Title
81374
    1CHL1    C3    1   6.318   4.066  10.208 -0.0504 -0.0724  0.8303
    1CHL1    H3    2   6.428   4.076  10.215  0.0508 -0.6462  0.1147
    1CHL1    O3    3   6.253   4.109  10.324 -1.2066  0.0356 -0.2797
    1CHL1   H3'    4   6.247   4.036  10.386 -0.8254  0.3902  0.1818
    1CHL1    C4    5   6.266   4.153  10.089  0.1039 -0.3199 -0.1164
    1CHL1   H4A    6   6.158   4.127  10.084  0.2199 -0.6750 -1.1304
    1CHL1   H4B    7   6.267   4.263  10.110  0.6094 -0.3298 -0.0927
    1CHL1    C5    8   6.321   4.107   9.956  0.0085  0.0583 -0.2410
    1CHL1    C6    9   6.387   4.195   9.884 -1.0479  0.0268 -0.0408
    1CHL1    H6   10   6.394   4.299   9.918 -1.3201 -0.1431  0.5493
    1CHL1    C7   11   6.450   4.161   9.749 -0.5193  0.0264  0.1771
    1CHL1   H7A   12   6.423   4.234   9.669 -2.4946  0.6937  1.3724
    1CHL1   H7B   13   6.559   4.142   9.762 -0.4511  0.6324  0.5116
    1CHL1    C8   14   6.398   4.024   9.696  0.2221 -0.0516  0.1118
    1CHL1    H8   15   6.292   4.029   9.663  0.7884  0.0515 -1.7944
    1CHL1   C14   16   6.488   3.979   9.581 -0.8415  0.4698  0.4611
    1CHL1   H14   17   6.588   3.970   9.628 -0.4939  0.3589 -0.2693
    1CHL1   C15   18   6.500   4.071   9.462 -0.0289  0.1819  0.2026
    1CHL1  H15A   19   6.396   4.097   9.432 -1.0022 -0.2191  2.9766
    1CHL1  H15B   20   6.559   4.164   9.477 -0.2692  0.2218  0.9184
    1CHL1   C16   21   6.552   3.977   9.349  0.2365 -0.0646 -0.1205
    1CHL1  H16A   22   6.465   3.977   9.281  0.3608 -1.8496 -0.3089
    1CHL1  H16B   23   6.639   4.017   9.293 -0.7080  3.8474  0.8449
    1CHL1   C17   24   6.576   3.838   9.415 -0.5466  0.0850 -0.0580
    1CHL1   H17   25   6.677   3.845   9.460 -0.3634  0.0998 -0.4665
    1CHL1   C13   26   6.469   3.837   9.530 -0.8467  0.0540  0.6122
    1CHL1   C18   27   6.324   3.818   9.475 -0.3642 -0.0673 -0.2556
    1CHL1  H18A   28   6.316   3.715   9.433  0.8570 -1.9350  3.5487
    1CHL1  H18B   29   6.257   3.835   9.562  0.0802  1.7722 -0.2423
    1CHL1  H18C   30   6.315   3.888   9.389  1.0389  0.9900  0.4235
    1CHL1   C12   31   6.497   3.749   9.644 -0.0373 -0.1024 -0.2613
    1CHL1  H12A   32   6.473   3.644   9.620 -0.6922 -0.2496  0.9448
    1CHL1  H12B   33   6.602   3.754   9.678  0.2115  1.7327 -1.1332
    1CHL1   C11   34   6.405   3.777   9.766  0.4781  0.0547  0.2301
    1CHL1  H11A   35   6.303   3.736   9.752  0.9996 -0.7777 -1.3699
    1CHL1  H11B   36   6.448   3.716   9.849 -0.2773  0.2998  0.8053
    1CHL1    C9   37   6.402   3.923   9.805  0.0390 -0.5004 -1.2442
    1CHL1    H9   38   6.507   3.935   9.838 -0.6905  1.4081  0.5714
    1CHL1   C10   39   6.304   3.954   9.925  0.4140  0.5042 -0.0432
    1CHL1   C19   40   6.162   3.917   9.877  0.8324 -0.1217 -0.1020
    1CHL1  H19A   41   6.155   3.809   9.852  1.3458  0.1410 -1.5286
    1CHL1  H19B   42   6.088   3.935   9.958 -0.5455 -1.1692 -1.0851
    1CHL1  H19C   43   6.119   3.980   9.796 -0.5981  0.4971  1.0876
    1CHL1    C1   44   6.334   3.864  10.052 -0.1900 -0.1142 -0.1102
    1CHL1   H1A   45   6.302   3.764  10.015  0.7628  0.3446 -2.3313
    1CHL1   H1B   46   6.443   3.864  10.073 -0.3677  0.4968  0.8671
    1CHL1    C2   47   6.277   3.921  10.185  0.1186  0.2545 -0.7271
    1CHL1   H2A   48   6.324   3.860  10.266 -1.8538 -2.0100 -1.1652
    1CHL1   H2B   49   6.171   3.891  10.197  0.1620  0.5513  0.5231
    1CHL1   C20   50   6.576   3.721   9.311 -0.0696 -0.1640 -0.3746
    1CHL1   H20   51   6.473   3.689   9.287  0.9313 -0.9835 -4.2533
    1CHL1   C21   52   6.648   3.601   9.378 -0.1733  0.2352  0.1816
    1CHL1  H21A   53   6.647   3.504   9.325  0.9166 -0.3104  1.1075
    1CHL1  H21B   54   6.609   3.581   9.480 -0.1137  1.2747  0.4269
    1CHL1  H21C   55   6.752   3.639   9.393 -0.6766  1.5878  0.3681
    1CHL1   C22   56   6.642   3.751   9.171 -0.6902  0.8500 -0.1328
    1CHL1  H22A   57   6.617   3.856   9.142 -0.2978  1.8570  2.7959
    1CHL1  H22B   58   6.752   3.733   9.173 -0.8034 -0.5725 -2.7797
    1CHL1   C23   59   6.583   3.659   9.062 -0.3910  0.0649  0.7003
    1CHL1  H23A   60   6.595   3.552   9.089 -1.3895 -0.0883  0.5912
    1CHL1  H23B   61   6.480   3.689   9.034  0.4483  2.1536 -0.3647
    1CHL1   C24   62   6.669   3.696   8.944 -0.1485  0.8256  0.3631
    1CHL1  H24A   63   6.674   3.806   8.932  2.8084  0.9021  1.3283
    1CHL1  H24B   64   6.771   3.656   8.966 -0.8639 -0.6027  1.1742
    1CHL1   C25   65   6.610   3.632   8.814  0.1635 -0.0718 -0.3090
    1CHL1   H25   66   6.507   3.671   8.801  1.1967  2.1043 -2.8180
    1CHL1   C26   67   6.686   3.680   8.683  0.3179  0.3612 -0.4867
    1CHL1  H26A   68   6.685   3.790   8.667  1.0392  0.3089 -0.9475
    1CHL1  H26B   69   6.795   3.662   8.696  0.0623 -0.6109  0.4710
    1CHL1  H26C   70   6.648   3.622   8.596  1.8956  1.0786 -1.7026
    1CHL1   C27   71   6.592   3.475   8.806  0.3166 -0.0215  0.1566
    1CHL1  H27A   72   6.556   3.439   8.905  1.9281 -0.7886  0.5014
    1CHL1  H27B   73   6.519   3.454   8.725 -0.0329  1.0351  0.1890
    1CHL1  H27C   74   6.695   3.435   8.792  0.5200  0.8450 -0.9074
    2CHL1    C3   75   6.498   0.166   9.863  0.3686  0.1206 -0.6151
    2CHL1    H3   76   6.389   0.145   9.869  0.5672 -1.0828 -0.9581
    2CHL1    O3   77   6.548   0.159   9.998  0.1466  0.3167  0.5228
    2CHL1   H3'   78   6.642   0.140   9.991  0.5295  0.4835  3.7733
    2CHL1    C4   79   6.557   0.052   9.778  0.3611  0.1184 -0.1493
    2CHL1   H4A   80   6.667   0.043   9.777  0.4551  0.5441 -2.8303
    2CHL1   H4B   81   6.525  -0.048   9.814 -1.0289 -0.3521 -2.4796
    2CHL1    C5   82   6.484   0.056   9.635 -0.3545 -0.2203 -0.3773
    2CHL1    C6   83   6.407  -0.048   9.594  0.0606 -0.0398  0.6411
    2CHL1    H6   84   6.404  -0.135   9.661  0.5561 -0.1339  0.5394
    2CHL1    C7   85   6.358  -0.054   9.447  0.1590  0.2237  0.4076
    2CHL1   H7A   86   6.371  -0.152   9.396  0.3760  0.6391 -0.3506
    2CHL1   H7B   87   6.248  -0.038   9.450  0.1411  0.0631  0.6033
    2CHL1    C8   88   6.417   0.060   9.358  0.1987  0.1724  0.5739
    2CHL1    H8   89   6.515   0.025   9.319 -0.5805 -1.0631 -0.3476
    2CHL1   C14   90   6.318   0.077   9.232 -0.7171  0.0495 -0.5385
    2CHL1   H14   91   6.220   0.119   9.265 -0.9375  2.0471 -3.4475
    2CHL1   C15   92   6.287  -0.055   9.156  0.0781  0.1693  0.0978
    2CHL1  H15A   93   6.378  -0.110   9.123  0.4395  0.9588 -0.2571
    2CHL1  H15B   94   6.222  -0.116   9.221  0.6960 -2.4918 -1.6192
    2CHL1   C16   95   6.222  -0.008   9.026 -0.4251  0.1383  0.5152
    2CHL1  H16A   96   6.262  -0.062   8.938 -0.9245  2.8616 -1.5437
    2CHL1  H16B   97   6.111  -0.018   9.026 -0.5442  1.2477 -0.2282
    2CHL1   C17   98   6.265   0.144   9.009 -0.4223  0.2726 -0.2355
    2CHL1   H17   99   6.181   0.205   9.050 -0.2384 -0.4903  1.3558
    2CHL1   C13  100   6.368   0.167   9.122 -0.4978  0.1866  0.9394
    2CHL1   C18  101   6.506   0.122   9.071  0.4689  0.4765  0.0162
    2CHL1  H18A  102   6.499   0.036   9.000  1.0658  1.1943 -0.9334
    2CHL1  H18B  103   6.546   0.208   9.013  1.9006 -0.0758  0.1633
    2CHL1  H18C  104   6.579   0.102   9.152 -1.1393  2.0975  1.9886
    2CHL1   C12  105   6.374   0.307   9.191  0.2140  0.4149  0.0314
    2CHL1  H12A  106   6.406   0.390   9.124  1.8908  0.4158  0.7710
    2CHL1  H12B  107   6.272   0.335   9.223 -0.2962 -0.6354 -0.6241
    2CHL1   C11  108   6.465   0.311   9.323  0.4859  0.0111  0.0718
    2CHL1  H11A  109   6.570   0.298   9.287  0.0738  0.4321 -1.3669
    2CHL1  H11B  110   6.455   0.412   9.367 -0.6481  0.9133 -2.0806
    2CHL1    C9  111   6.421   0.200   9.430 -0.4608 -0.7767  0.2827
    2CHL1    H9  112   6.315   0.218   9.461 -0.1368 -2.2812  2.5069
    2CHL1   C10  113   6.506   0.193   9.562 -0.4351  0.7638 -0.3096
    2CHL1   C19  114   6.651   0.198   9.518 -0.6803  0.2521 -0.7197
    2CHL1  H19A  115   6.719   0.194   9.605 -0.6408  1.1782 -0.6935
    2CHL1  H19B  116   6.666   0.114   9.446 -1.5615  1.0069 -1.8275
    2CHL1  H19C  117   6.676   0.290   9.461  3.8531  0.4484  1.1877
    2CHL1    C1  118   6.465   0.304   9.663  1.1076  0.5950  1.1296
    2CHL1   H1A  119   6.476   0.406   9.620  0.8170  0.7241  1.3596
    2CHL1   H1B  120   6.355   0.297   9.677  0.8512  1.7482 -0.0955
    2CHL1    C2  121   6.525   0.303   9.805 -0.1799 -0.0158 -0.0277
    2CHL1   H2A  122   6.484   0.375   9.880  0.6831 -1.7260  2.2024
    2CHL1   H2B  123   6.632   0.326   9.783  0.3487 -3.6168 -2.0637
    2CHL1   C20  124   6.290   0.183   8.853 -0.0073  0.3444  0.7870
    2CHL1   H20  125   6.382   0.129   8.822 -0.3673 -1.6919  2.9836
    2CHL1   C21  126   6.296   0.333   8.847 -0.3817  0.4493  0.2993
    2CHL1  H21A  127   6.309   0.354   8.739 -2.0577 -3.8867 -0.9821
    2CHL1  H21B  128   6.381   0.378   8.903 -0.3713 -1.0579  1.5761
    2CHL1  H21C  129   6.203   0.370   8.894  0.8312  2.3486  1.3005
    2CHL1   C22  130   6.165   0.147   8.765 -0.2343  0.3179  0.1393
    2CHL1  H22A  131   6.126   0.049   8.799  0.7410  0.7382  2.7017
    2CHL1  H22B  132   6.096   0.234   8.773  0.3838  0.8128  0.1986
    2CHL1   C23  133   6.193   0.123   8.616 -0.2419 -0.2469  0.7370
    2CHL1  H23A  134   6.228   0.212   8.561 -1.5710  0.9200  1.7072
    2CHL1  H23B  135   6.259   0.034   8.603  0.2168  0.1935  0.0039
    2CHL1   C24  136   6.058   0.089   8.555 -0.6234  0.3434  0.3386
    2CHL1  H24A  137   6.004   0.013   8.616 -1.5860  1.3879  0.8280
    2CHL1  H24B  138   5.995   0.181   8.558 -2.8665 -1.0934  0.0167
    2CHL1   C25  139   6.065   0.045   8.408  0.0771  0.0895  0.8808
    2CHL1   H25  140   6.114   0.132   8.358 -2.5163  1.4964  0.5976
    2CHL1   C26  141   6.163  -0.077   8.375  0.3672  0.1279  0.2886
    2CHL1  H26A  142   6.267  -0.063   8.412  0.1510  0.3534  0.8263
    2CHL1  H26B  143   6.111  -0.168   8.412  1.1375 -0.9057 -1.0921
    2CHL1  H26C  144   6.160  -0.096   8.266  1.7203  0.8614  0.1069
    2CHL1   C27  145   5.929   0.017   8.336 -0.1435 -0.2720  0.2413
    2CHL1  H27A  146   5.867   0.105   8.362  1.8892  1.1430  0.5915
    2CHL1  H27B  147   5.954  -0.002   8.229 -0.8135 -0.7655  0.1680
    2CHL1  H27C  148   5.898  -0.079   8.383  0.1970 -1.3582 -1.6560
    3CHL1    C3  149   1.453   2.728  10.117  0.7578  0.3229 -0.2959
    3CHL1    H3  150   1.384   2.811  10.092  3.1034  1.3016 -4.5413
    3CHL1    O3  151   1.462   2.706  10.253  0.2164 -0.4336 -0.6499
    3CHL1   H3'  152   1.518   2.628  10.263  3.2155  1.8514  3.1889
    3CHL1    C4  153   1.396   2.601  10.046  0.3856  0.3823  0.0940
    3CHL1   H4A  154   1.463   2.518  10.078  0.7935 -0.1361 -1.9370
    3CHL1   H4B  155   1.293   2.610  10.086  0.0385  0.5518 -0.8088
    3CHL1    C5  156   1.390   2.612   9.894 -0.0533  0.7220 -0.3674
    3CHL1    C6  157   1.276   2.600   9.825 -0.1963  0.3598 -0.3050
    3CHL1    H6  158   1.183   2.568   9.874  0.0139  3.0912  2.1251
    3CHL1    C7  159   1.272   2.612   9.673  0.0339 -0.6093 -0.0139
    3CHL1   H7A  160   1.225   2.523   9.627  0.9810 -1.2880  0.3094
    3CHL1   H7B  161   1.213   2.704   9.654 -0.5695 -0.8162  0.8009
    3CHL1    C8  162   1.410   2.612   9.603 -0.0080  0.3108 -0.4584
    3CHL1    H8  163   1.451   2.510   9.619 -0.8349 -0.0728 -0.7165
    3CHL1   C14  164   1.404   2.661   9.457  0.4906  0.5632  0.5929
    3CHL1   H14  165   1.366   2.765   9.465 -1.1161  0.0054  0.6305
    3CHL1   C15  166   1.307   2.598   9.356 -0.4501 -0.2754 -0.7530
    3CHL1  H15A  167   1.298   2.488   9.372  0.4830 -0.3504 -0.6761
    3CHL1  H15B  168   1.205   2.642   9.354 -0.1574  0.3780 -1.6828
    3CHL1   C16  169   1.367   2.627   9.215  0.6830 -0.1818  0.2497
    3CHL1  H16A  170   1.401   2.531   9.169  0.6425  0.5128 -1.2833
    3CHL1  H16B  171   1.292   2.665   9.143  0.2091 -1.5191  0.0002
    3CHL1   C17  172   1.497   2.714   9.245  0.3609  0.6874  0.9401
    3CHL1   H17  173   1.453   2.815   9.264  0.6650  0.8228  0.9258
    3CHL1   C13  174   1.539   2.661   9.394 -0.9758 -0.2584  0.4007
    3CHL1   C18  175   1.610   2.526   9.378  0.3734 -0.1294  0.5648
    3CHL1  H18A  176   1.605   2.461   9.468  1.4156 -0.3833  0.4518
    3CHL1  H18B  177   1.554   2.471   9.300  0.8425 -1.7414  1.3233
    3CHL1  H18C  178   1.714   2.541   9.342 -0.0947  2.1758 -0.0247
    3CHL1   C12  179   1.634   2.759   9.467  0.0318 -0.5136 -0.0112
    3CHL1  H12A  180   1.727   2.773   9.408 -0.5773 -2.6337 -1.6234
    3CHL1  H12B  181   1.579   2.855   9.476 -2.5445 -1.9601  0.8435
    3CHL1   C11  182   1.651   2.704   9.606 -0.2196  0.5801 -1.0221
    3CHL1  H11A  183   1.708   2.609   9.604  0.1492  0.5803  2.6692
    3CHL1  H11B  184   1.715   2.777   9.660 -1.0954 -0.0995  1.0670
    3CHL1    C9  185   1.517   2.691   9.682 -0.2598 -0.6691  0.3784
    3CHL1    H9  186   1.478   2.795   9.684  1.0227 -0.1598 -0.0382
    3CHL1   C10  187   1.526   2.649   9.834  0.2636  0.4407  0.1359
    3CHL1   C19  188   1.631   2.527   9.851  0.3409  0.4651 -0.3108
    3CHL1  H19A  189   1.646   2.502   9.958  1.0382  1.0124 -0.2769
    3CHL1  H19B  190   1.576   2.439   9.811  0.0193  1.0577 -1.2144
    3CHL1  H19C  191   1.731   2.551   9.808  0.0426  1.8214 -0.2761
    3CHL1    C1  192   1.573   2.778   9.903  0.2118  0.0923  0.7570
    3CHL1   H1A  193   1.675   2.802   9.865  0.2396 -1.2889 -0.1098
    3CHL1   H1B  194   1.510   2.867   9.883  1.8431  1.0089 -0.5273
    3CHL1    C2  195   1.587   2.767  10.051 -0.3215  0.1179 -0.1017
    3CHL1   H2A  196   1.623   2.864  10.093  2.2747 -0.8408  0.0395
    3CHL1   H2B  197   1.657   2.685  10.076 -1.0360 -0.5304 -0.1915
    3CHL1   C20  198   1.609   2.718   9.139  0.1494  0.1193 -0.0959
    3CHL1   H20  199   1.698   2.654   9.160  1.1986  1.1671 -1.2145
    3CHL1   C21  200   1.659   2.861   9.133 -0.1986 -0.0929 -0.3875
    3CHL1  H21A  201   1.754   2.873   9.076 -0.0673 -0.0921 -0.1705
    3CHL1  H21B  202   1.681   2.911   9.229  0.3078 -0.8054 -0.1213
    3CHL1  H21C  203   1.599   2.928   9.068  1.7920  0.9964 -1.2123
    3CHL1   C22  204   1.574   2.682   8.996 -0.3429  0.8286  0.0128
    3CHL1  H22A  205   1.567   2.571   8.999  1.8465  0.6274 -0.7713
    3CHL1  H22B  206   1.472   2.715   8.966 -0.2384  0.8456 -0.3302
    3CHL1   C23  207   1.672   2.708   8.880  0.2176  0.0399 -0.5596
    3CHL1  H23A  208   1.678   2.819   8.873  2.3689  0.0451  0.3052
    3CHL1  H23B  209   1.770   2.664   8.910  1.4402  0.5415 -3.4972
    3CHL1   C24  210   1.631   2.649   8.752 -0.1458  0.1146  0.7248
    3CHL1  H24A  211   1.617   2.539   8.757 -1.9901  0.1087 -2.1804
    3CHL1  H24B  212   1.538   2.700   8.717  0.3304  1.1624  0.9498
    3CHL1   C25  213   1.729   2.669   8.631 -0.1573  1.0293  0.7484
    3CHL1   H25  214   1.722   2.777   8.606  0.2780  0.9157  0.1108
    3CHL1   C26  215   1.882   2.656   8.670 -0.2519  0.2067  0.0917
    3CHL1  H26A  216   1.938   2.636   8.577 -1.5325  0.2517 -0.7123
    3CHL1  H26B  217   1.924   2.738   8.733 -0.2683  0.6670 -0.4850
    3CHL1  H26C  218   1.885   2.558   8.722  0.9397 -0.5946 -1.4222
    3CHL1   C27  219   1.684   2.584   8.506  0.5313 -0.3691  0.2292
    3CHL1  H27A  220   1.755   2.585   8.421  0.7662  2.8534  0.3302
    3CHL1  H27B  221   1.673   2.479   8.540  1.1280 -0.9309 -1.2454
    3CHL1  H27C  222   1.584   2.606   8.463 -0.5409 -3.5570  0.8782
    4CHL1    C3  223   6.668   4.064  10.408  1.0388  0.0056 -1.0778
    4CHL1    H3  224   6.573   4.023  10.366  1.1434 -0.4257 -0.9019
    4CHL1    O3  225   6.659   4.082  10.553 -0.1041 -0.0364  0.4264
    4CHL1   H3'  226   6.745   4.062  10.591  0.6307 -1.5606 -1.8674
    4CHL1    C4  227   6.766   3.959  10.363 -0.2989  0.4260  0.8786
    4CHL1   H4A  228   6.866   3.977  10.409 -0.3601 -0.2202  1.2657
    4CHL1   H4B  229   6.720   3.870  10.410  1.4679 -0.1731  1.5718
    4CHL1    C5  230   6.778   3.949  10.210  0.0946  0.3051 -0.7581
    4CHL1    C6  231   6.740   3.837  10.150  0.1505 -0.8191  0.9793
    4CHL1    H6  232   6.689   3.757  10.205  1.3800 -3.9810 -2.1083
    4CHL1    C7  233   6.760   3.821  10.001 -0.6219  0.8026 -0.1918
    4CHL1   H7A  234   6.804   3.720   9.988 -1.9284  0.3746 -1.7253
    4CHL1   H7B  235   6.661   3.840   9.954 -1.8097  0.0666  1.9040
    4CHL1    C8  236   6.862   3.918   9.944  0.2695  0.3529 -0.0073
    4CHL1    H8  237   6.966   3.900   9.979  0.7167  0.8342 -1.0451
    4CHL1   C14  238   6.877   3.902   9.791 -0.0267 -0.2499  0.5150
    4CHL1   H14  239   6.778   3.906   9.740  0.2970  0.7376 -0.0421
    4CHL1   C15  240   6.927   3.767   9.732 -0.8660 -0.4198 -0.1289
    4CHL1  H15A  241   7.021   3.730   9.778 -2.0085 -3.0785  0.2392
    4CHL1  H15B  242   6.857   3.688   9.765 -0.8923  0.0905  1.1024
    4CHL1   C16  243   6.947   3.801   9.583 -0.3467  0.4124 -0.3687
    4CHL1  H16A  244   7.045   3.756   9.557 -0.5648 -0.4415  0.2490
    4CHL1  H16B  245   6.876   3.746   9.518  0.1329  1.1347 -1.5429
    4CHL1   C17  246   6.935   3.951   9.570 -0.2121 -0.9071 -0.9266
    4CHL1   H17  247   6.830   3.977   9.547 -1.0298 -2.7858  0.4574
    4CHL1   C13  248   6.955   4.007   9.717 -0.1088 -0.0441  0.2111
    4CHL1   C18  249   7.103   3.992   9.739  0.1276  0.2106 -0.8274
    4CHL1  H18A  250   7.158   4.063   9.674  0.2026  0.0927 -0.8941
    4CHL1  H18B  251   7.131   4.014   9.844  1.7942  1.1956 -1.4359
    4CHL1  H18C  252   7.157   3.896   9.723  1.2330  0.9689 -1.8389
    4CHL1   C12  253   6.896   4.149   9.751 -0.3342 -0.7017 -0.8512
    4CHL1  H12A  254   6.937   4.238   9.699  0.3477  0.1302  1.0206
    4CHL1  H12B  255   6.790   4.131   9.725 -0.0479 -1.1297 -1.7929
    4CHL1   C11  256   6.893   4.172   9.907 -0.0891  0.1226  0.3616
    4CHL1  H11A  257   7.000   4.180   9.937 -0.0520 -0.2756  0.3454
    4CHL1  H11B  258   6.839   4.266   9.929  0.2765  0.5684 -0.6130
    4CHL1    C9  259   6.817   4.064   9.985 -0.8712  0.5002  0.1268
    4CHL1    H9  260   6.713   4.074   9.946 -0.3233  1.9296 -1.0993
    4CHL1   C10  261   6.827   4.081  10.145 -0.4639 -0.6520 -0.2677
    4CHL1   C19  262   6.969   4.116  10.190 -0.2131  0.0099 -0.8419
    4CHL1  H19A  263   7.004   4.206  10.136  0.5105  0.3516  0.1576
    4CHL1  H19B  264   6.974   4.129  10.300 -0.4169 -0.0418 -0.8263
    4CHL1  H19C  265   7.040   4.034  10.164 -0.9013 -0.8298 -0.1354
    4CHL1    C1  266   6.727   4.195  10.186 -0.0391 -0.2599  0.3808
    4CHL1   H1A  267   6.767   4.294  10.154 -0.3067 -0.5158 -0.7629
    4CHL1   H1B  268   6.630   4.180  10.133 -1.1016  3.5061  0.9712
    4CHL1    C2  269   6.700   4.195  10.341 -0.1615 -0.4588  0.0988
    4CHL1   H2A  270   6.623   4.273  10.357  1.2431  1.6780 -2.6352
    4CHL1   H2B  271   6.784   4.231  10.403  0.5080  0.8384 -1.4939
    4CHL1   C20  272   7.006   4.007   9.449 -0.2101  0.7283  0.3922
    4CHL1   H20  273   7.115   4.001   9.466 -0.2034  2.5947  1.2395
    4CHL1   C21  274   6.978   4.161   9.433  0.2846  0.1287 -1.1123
    4CHL1  H21A  275   6.870   4.171   9.456  0.3763 -2.3102  0.8254
    4CHL1  H21B  276   6.990   4.194   9.327 -2.5651  1.6889 -1.0429
    4CHL1  H21C  277   7.038   4.216   9.509 -0.9730 -0.1521  0.1103
    4CHL1   C22  278   6.976   3.926   9.318 -0.1188 -0.3641 -0.0528
    4CHL1  H22A  279   6.988   3.817   9.335  0.6226  0.0757  2.6483
    4CHL1  H22B  280   6.870   3.927   9.287  0.0380 -0.3313 -0.6155
    4CHL1   C23  281   7.066   3.955   9.189  0.2309 -0.0962 -0.0920
    4CHL1  H23A  282   7.046   4.061   9.162  1.0261  0.6390  1.9901
    4CHL1  H23B  283   7.171   3.923   9.206  0.2733  0.8144  1.6002
    4CHL1   C24  284   7.021   3.870   9.064  0.0903 -0.2526  0.6164
    4CHL1  H24A  285   7.001   3.768   9.103  0.8773 -0.5417  0.2813
    4CHL1  H24B  286   6.924   3.905   9.023  0.8654 -0.0848 -1.1822
    4CHL1   C25  287   7.122   3.846   8.948  0.6466 -0.3802 -0.1666
    4CHL1   H25  288   7.215   3.803   8.993  0.8634  0.7541  0.5203
    4CHL1   C26  289   7.061   3.758   8.845 -0.1341  0.2148  0.0483
    4CHL1  H26A  290   7.125   3.734   8.758  0.6546  1.9107  0.1189
    4CHL1  H26B  291   7.011   3.670   8.890  0.0886  0.2894  0.4495
    4CHL1  H26C  292   6.979   3.817   8.800  1.3838  1.2906 -1.4547
    4CHL1   C27  293   7.168   3.973   8.884 -0.4293  0.5758 -0.3890
    4CHL1  H27A  294   7.105   4.007   8.799 -0.0823 -0.6501 -1.1760
    4CHL1  H27B  295   7.181   4.043   8.969  0.4199 -0.6366  0.5168
    4CHL1  H27C  296   7.268   3.953   8.840 -0.2026  2.0639 -0.5864
    5CHL1    C3  297   2.880   3.187  10.233 -0.1454  0.1496  0.9772
    5CHL1    H3  298   2.773   3.207  10.212 -0.0414 -0.9899 -0.9229
    5CHL1    O3  299   2.913   3.138  10.365 -0.4897  0.5118  0.8316
    5CHL1   H3'  300   3.006   3.117  10.367 -0.2050  1.6669  3.0000
    5CHL1    C4  301   2.920   3.081  10.134  0.0196  0.1532 -0.3389
    5CHL1   H4A  302   3.025   3.051  10.154 -0.9272 -3.0740  0.3861
    5CHL1   H4B  303   2.851   2.996  10.154 -0.2181  0.5181  0.4264
    5CHL1    C5  304   2.921   3.118   9.986  0.9289 -0.3930  0.5124
    5CHL1    C6  305   2.863   3.035   9.893  0.9893  0.2442 -0.2886
    5CHL1    H6  306   2.817   2.943   9.932  3.1267 -0.4576  0.7326
    5CHL1    C7  307   2.854   3.056   9.751  0.7811 -1.0920  0.2590
    5CHL1   H7A  308   2.893   2.969   9.694 -0.2468 -0.5638 -1.3472
    5CHL1   H7B  309   2.747   3.072   9.723  1.2206  0.7799 -0.5454
    5CHL1    C8  310   2.932   3.189   9.706 -0.1493 -0.3963 -0.2104
    5CHL1    H8  311   3.039   3.160   9.704 -0.5106 -2.1134  1.6806
    5CHL1   C14  312   2.882   3.236   9.572 -0.0010 -0.4890 -0.0637
    5CHL1   H14  313   2.776   3.260   9.599  0.4267  0.4562  0.8701
    5CHL1   C15  314   2.866   3.144   9.449 -0.3142 -0.1735  0.0457
    5CHL1  H15A  315   2.949   3.071   9.437 -0.4453 -0.1311 -1.2077
    5CHL1  H15B  316   2.779   3.077   9.469  0.2018 -0.8168  0.1638
    5CHL1   C16  317   2.853   3.240   9.329  0.8809 -0.3632 -0.0373
    5CHL1  H16A  318   2.930   3.220   9.251 -0.8113 -0.1845 -1.8300
    5CHL1  H16B  319   2.744   3.236   9.308  0.7322 -1.5353  0.8798
    5CHL1   C17  320   2.878   3.383   9.385  0.0745  0.2539 -0.0973
    5CHL1   H17  321   2.782   3.435   9.406 -0.3258 -0.2297 -0.6850
    5CHL1   C13  322   2.946   3.366   9.525 -0.1956 -0.6427 -0.1741
    5CHL1   C18  323   3.103   3.351   9.507  0.3114  0.5723  0.2017
    5CHL1  H18A  324   3.152   3.445   9.474  0.7264  1.2101  2.4234
    5CHL1  H18B  325   3.160   3.311   9.594  2.1779  1.4073 -0.5789
    5CHL1  H18C  326   3.122   3.281   9.423  1.4494  0.9661  0.1121
    5CHL1   C12  327   2.918   3.475   9.627 -0.0234 -0.2499 -0.1374
    5CHL1  H12A  328   2.976   3.568   9.613  0.2631  0.0783  2.6394
    5CHL1  H12B  329   2.808   3.490   9.625 -0.1972 -1.3766 -2.3906
    5CHL1   C11  330   2.969   3.440   9.770 -0.2190 -0.3478  0.2490
    5CHL1  H11A  331   3.080   3.451   9.778 -0.3930  1.4636  0.6973
    5CHL1  H11B  332   2.907   3.505   9.836 -3.2273 -1.8090 -0.9488
    5CHL1    C9  333   2.920   3.301   9.814  1.0098 -0.1476 -0.2306
    5CHL1    H9  334   2.810   3.312   9.823  1.0575 -0.1772  0.4513
    5CHL1   C10  335   2.970   3.252   9.955  0.0079  0.5287  0.7241
    5CHL1   C19  336   3.128   3.240   9.956  0.1145 -0.0683 -0.6218
    5CHL1  H19A  337   3.174   3.177   9.876  0.5469  1.6820 -1.8010
    5CHL1  H19B  338   3.171   3.341   9.946  1.9527 -0.8467 -0.8959
    5CHL1  H19C  339   3.164   3.199  10.052  2.3509 -1.3782 -1.9341
    5CHL1    C1  340   2.931   3.363  10.059  0.0300  0.2613 -0.4737
    5CHL1   H1A  341   2.986   3.459  10.045 -0.9353  0.8999  0.0342
    5CHL1   H1B  342   2.824   3.386  10.042 -0.2750  0.1007  1.0521
    5CHL1    C2  343   2.937   3.327  10.202 -0.8266  0.5626 -0.6148
    5CHL1   H2A  344   2.871   3.393  10.262  0.5193  2.0039 -0.6630
    5CHL1   H2B  345   3.041   3.343  10.239 -0.4915  1.8432 -2.0205
    5CHL1   C20  346   2.943   3.475   9.279  0.0342  0.1165 -0.2771
    5CHL1   H20  347   3.046   3.439   9.255  0.0509  0.7766 -1.2488
    5CHL1   C21  348   2.948   3.619   9.346 -0.4222  0.2420  0.4964
    5CHL1  H21A  349   3.026   3.624   9.425 -0.9198 -0.7414  1.0744
    5CHL1  H21B  350   2.852   3.656   9.387 -1.8950  0.5143 -2.8463
    5CHL1  H21C  351   2.979   3.691   9.267  0.6436  0.9456  1.5259
    5CHL1   C22  352   2.861   3.485   9.147  0.2570  0.2704 -0.7985
    5CHL1  H22A  353   2.758   3.455   9.174  1.0519 -2.9557 -0.9642
    5CHL1  H22B  354   2.867   3.593   9.121  4.6883  0.9242  1.9713
    5CHL1   C23  355   2.887   3.386   9.029 -0.4550 -0.3524  0.0824
    5CHL1  H23A  356   2.997   3.382   9.011 -0.7898 -3.7090 -1.9587
    5CHL1  H23B  357   2.859   3.283   9.060  3.5333 -1.2012  1.4798
    5CHL1   C24  358   2.803   3.413   8.903 -0.4757 -0.3568 -0.0218
    5CHL1  H24A  359   2.698   3.435   8.931 -0.7032  2.4953 -2.5262
    5CHL1  H24B  360   2.844   3.509   8.862  1.6359 -0.8772  0.7389
    5CHL1   C25  361   2.806   3.299   8.798 -0.1478  0.0229  0.8365
    5CHL1   H25  362   2.912   3.280   8.772 -0.7486  0.1012 -2.0439
    5CHL1   C26  363   2.745   3.161   8.847 -0.0231  0.0075 -0.3290
    5CHL1  H26A  364   2.794   3.134   8.944  0.8378 -1.3601 -1.1016
    5CHL1  H26B  365   2.636   3.171   8.865 -0.5538 -2.2016 -1.8936
    5CHL1  H26C  366   2.760   3.080   8.772  0.3498 -2.3049  2.0815
    5CHL1   C27  367   2.733   3.347   8.666 -0.2828 -0.5215  0.5379
    5CHL1  H27A  368   2.627   3.371   8.686 -0.2821 -0.2412  0.2003
    5CHL1  H27B  369   2.788   3.434   8.623  0.7978 -1.9980 -1.1808
    5CHL1  H27C  370   2.733   3.260   8.597 -0.5505  0.1579 -0.3236
    6CHL1    C3  371   4.128   3.868  10.164  0.5283 -0.1968  0.1869
    6CHL1    H3  372   4.041   3.806  10.134 -1.1200  1.2362  1.7006
    6CHL1    O3  373   4.140   3.853  10.308 -0.3596  0.7912  0.0682
    6CHL1   H3'  374   4.050   3.852  10.340 -0.1226  3.9734  1.1583
    6CHL1    C4  375   4.258   3.819  10.094 -0.4065 -0.6600  0.0938
    6CHL1   H4A  376   4.341   3.874  10.143  0.4566 -0.6150 -1.3780
    6CHL1   H4B  377   4.277   3.710  10.107  1.7828 -0.1894  1.4400
    6CHL1    C5  378   4.250   3.854   9.946  0.1073  0.2504 -0.1609
    6CHL1    C6  379   4.249   3.754   9.855 -0.9686  0.3787 -0.2121
    6CHL1    H6  380   4.245   3.650   9.892  0.6162  0.0933 -0.7590
    6CHL1    C7  381   4.248   3.770   9.703  0.4714  0.2208 -0.2692
    6CHL1   H7A  382   4.331   3.717   9.654  2.6772  0.5035  2.8367
    6CHL1   H7B  383   4.147   3.743   9.665 -0.6142 -0.0632  2.5537
    6CHL1    C8  384   4.277   3.920   9.669  0.0433  0.1346  0.2857
    6CHL1    H8  385   4.387   3.928   9.681  0.0029  0.0277  0.7669
    6CHL1   C14  386   4.232   3.939   9.528  0.1464  0.2597 -0.6097
    6CHL1   H14  387   4.121   3.937   9.530  0.1447  0.0241  1.4614
    6CHL1   C15  388   4.273   3.835   9.415  0.2583 -0.4790 -0.1054
    6CHL1  H15A  389   4.372   3.788   9.432  1.1840  0.8447 -1.5927
    6CHL1  H15B  390   4.190   3.761   9.421 -1.1842  1.2158  3.6879
    6CHL1   C16  391   4.263   3.909   9.285  0.0327 -0.5057  0.0451
    6CHL1  H16A  392   4.350   3.893   9.219 -0.9814 -0.9189 -1.2284
    6CHL1  H16B  393   4.181   3.873   9.219  1.2945 -1.6491 -0.9514
    6CHL1   C17  394   4.230   4.057   9.327  0.1916  0.6101 -0.2735
    6CHL1   H17  395   4.119   4.051   9.325  0.2152 -1.6564 -3.5400
    6CHL1   C13  396   4.271   4.070   9.475  0.2961  0.1530 -0.9889
    6CHL1   C18  397   4.427   4.095   9.466  0.1490 -0.0879 -0.2568
    6CHL1  H18A  398   4.459   4.185   9.410  4.1634 -1.6477 -0.7959
    6CHL1  H18B  399   4.468   4.109   9.568  0.8241 -0.2847 -0.4903
    6CHL1  H18C  400   4.475   4.008   9.415 -3.2908 -2.0052 -0.5441
    6CHL1   C12  401   4.197   4.177   9.556  0.4546 -0.3264 -0.1435
    6CHL1  H12A  402   4.216   4.280   9.519  1.7197 -0.6344 -0.4216
    6CHL1  H12B  403   4.091   4.150   9.540 -0.4362  2.3047  0.7950
    6CHL1   C11  404   4.222   4.168   9.707  0.0350  0.0227  0.2178
    6CHL1  H11A  405   4.328   4.203   9.713  0.1524  0.0147 -1.3079
    6CHL1  H11B  406   4.157   4.243   9.756  1.2588  0.9729  0.4305
    6CHL1    C9  407   4.206   4.022   9.758 -0.1215  0.3976 -0.0925
    6CHL1    H9  408   4.096   4.004   9.754 -0.3803  1.3946  1.5105
    6CHL1   C10  409   4.239   4.002   9.910  0.1418 -0.0115  0.2506
    6CHL1   C19  410   4.360   4.088   9.951  0.3086  0.1258 -0.1268
    6CHL1  H19A  411   4.382   4.052  10.054 -1.2902  0.1512  0.2570
    6CHL1  H19B  412   4.443   4.079   9.877 -1.1005  0.2104 -1.7964
    6CHL1  H19C  413   4.325   4.193   9.957 -1.1097 -0.3616  0.4511
    6CHL1    C1  414   4.123   4.054   9.991  0.3881 -0.3001  0.3370
    6CHL1   H1A  415   4.117   4.164   9.986 -2.4731 -0.3305  1.3724
    6CHL1   H1B  416   4.020   4.034   9.955 -0.1272 -0.6040  1.9146
    6CHL1    C2  417   4.110   4.013  10.138 -1.1187 -0.5141  0.7911
    6CHL1   H2A  418   4.015   4.059  10.173 -1.2788  0.5446 -0.8997
    6CHL1   H2B  419   4.195   4.067  10.186  1.4571 -3.8669  0.3407
    6CHL1   C20  420   4.264   4.169   9.233 -0.1656  0.6363  0.2765
    6CHL1   H20  421   4.287   4.269   9.277 -1.5523  1.3216 -0.4882
    6CHL1   C21  422   4.132   4.188   9.148 -0.1221  0.2888 -0.5217
    6CHL1  H21A  423   4.121   4.283   9.090 -0.0220  0.6028 -0.0323
    6CHL1  H21B  424   4.054   4.201   9.226 -0.2100  3.2277 -0.9758
    6CHL1  H21C  425   4.114   4.097   9.088  1.4800 -1.3919  1.3880
    6CHL1   C22  426   4.383   4.136   9.140 -0.1031  0.4527  0.0185
    6CHL1  H22A  427   4.474   4.101   9.193 -0.5230 -3.2408 -1.4560
    6CHL1  H22B  428   4.355   4.051   9.075 -1.1466 -0.5541  1.7138
    6CHL1   C23  429   4.416   4.252   9.042 -0.4575 -0.3413  0.0689
    6CHL1  H23A  430   4.325   4.269   8.981  0.8136 -2.0235 -2.4651
    6CHL1  H23B  431   4.439   4.348   9.092  1.2176 -0.7548  0.1382
    6CHL1   C24  432   4.529   4.220   8.942 -0.0591  0.8288  0.4147
    6CHL1  H24A  433   4.615   4.211   9.011  0.1716 -0.1893  0.0234
    6CHL1  H24B  434   4.499   4.123   8.897  1.9854 -0.4604  1.6520
    6CHL1   C25  435   4.549   4.324   8.828  0.2440  0.4599 -0.4505
    6CHL1   H25  436   4.575   4.424   8.869  1.4628  0.8539 -2.0653
    6CHL1   C26  437   4.679   4.281   8.756 -0.0522 -0.2251 -0.3760
    6CHL1  H26A  438   4.708   4.358   8.681  0.0974 -1.8729 -2.0770
    6CHL1  H26B  439   4.753   4.267   8.837 -1.2043 -0.1438  0.7234
    6CHL1  H26C  440   4.675   4.179   8.713 -0.9391 -1.0331  1.5266
    6CHL1   C27  441   4.430   4.331   8.733  0.5377  0.3123 -0.9680
    6CHL1  H27A  442   4.440   4.405   8.651 -0.3052 -1.1246 -2.4200
    6CHL1  H27B  443   4.415   4.239   8.674  1.7498  0.3515 -1.3689
    6CHL1  H27C  444   4.333   4.359   8.778  0.2533 -0.4155 -1.1136
    7CHL1    C3  445   1.581   4.965  10.264 -0.2770 -0.4354  0.2799
    7CHL1    H3  446   1.650   4.891  10.219 -1.5414  0.3188 -3.2055
    7CHL1    O3  447   1.567   4.932  10.399  0.4478 -0.0210 -0.5793
    7CHL1   H3'  448   1.636   4.968  10.455  0.9040  1.4630 -2.0367
    7CHL1    C4  449   1.643   5.106  10.257 -0.2547 -0.1162 -0.9059
    7CHL1   H4A  450   1.566   5.179  10.290  0.1724  0.0600 -0.2826
    7CHL1   H4B  451   1.734   5.114  10.321  0.3143  1.8800 -1.8889
    7CHL1    C5  452   1.665   5.151  10.112 -0.9333 -0.3009  0.7412
    7CHL1    C6  453   1.789   5.176  10.059  0.6973 -0.2569  0.2071
    7CHL1    H6  454   1.867   5.176  10.137  0.3821 -0.0912  0.5239
    7CHL1    C7  455   1.808   5.216   9.916  0.2390 -0.3172  0.3855
    7CHL1   H7A  456   1.865   5.312   9.912 -0.3363 -0.0031 -0.9853
    7CHL1   H7B  457   1.868   5.134   9.871  1.2262  0.6190 -0.0696
    7CHL1    C8  458   1.677   5.241   9.838  0.4002 -0.0840  0.3170
    7CHL1    H8  459   1.632   5.335   9.876  0.9748  1.1151 -1.7827
    7CHL1   C14  460   1.710   5.242   9.688 -0.1597 -0.3988  0.2971
    7CHL1   H14  461   1.737   5.135   9.675 -0.3148 -0.4225  0.1812
    7CHL1   C15  462   1.825   5.330   9.635 -0.5614  0.8304  0.0227
    7CHL1  H15A  463   1.816   5.435   9.669 -0.4578  0.2738  1.8559
    7CHL1  H15B  464   1.926   5.290   9.658 -1.0891 -1.3015 -1.1043
    7CHL1   C16  465   1.804   5.338   9.483  0.1839 -0.0652  0.3707
    7CHL1  H16A  466   1.798   5.447   9.463  0.1842 -0.1141  0.1060
    7CHL1  H16B  467   1.882   5.303   9.413  0.1132  0.4960  0.0023
    7CHL1   C17  468   1.670   5.266   9.451 -0.1378  0.6143 -0.0200
    7CHL1   H17  469   1.706   5.164   9.426  0.9900  1.5132 -2.4686
    7CHL1   C13  470   1.592   5.259   9.589  0.5433  0.0514  0.1312
    7CHL1   C18  471   1.530   5.397   9.612 -0.3561  0.7807 -0.7292
    7CHL1  H18A  472   1.451   5.421   9.538  2.3034  0.3310 -3.9616
    7CHL1  H18B  473   1.505   5.410   9.719 -0.9916 -0.1598 -0.7547
    7CHL1  H18C  474   1.604   5.478   9.591 -0.8634  0.9657 -1.8426
    7CHL1   C12  475   1.494   5.144   9.616 -0.1389  0.1504 -0.0606
    7CHL1  H12A  476   1.403   5.162   9.554 -0.4842 -2.2873 -0.3714
    7CHL1  H12B  477   1.529   5.043   9.585 -2.3343 -0.5178 -0.5922
    7CHL1   C11  478   1.448   5.140   9.765 -0.5059 -0.0518  0.6766
    7CHL1  H11A  479   1.396   5.234   9.794  2.6301  1.9421  0.2524
    7CHL1  H11B  480   1.376   5.057   9.785  0.3244 -1.1794 -0.7995
    7CHL1    C9  481   1.574   5.127   9.859  0.3057  0.0189 -0.4121
    7CHL1    H9  482   1.621   5.028   9.839 -0.5496 -0.3206 -0.7763
    7CHL1   C10  483   1.541   5.127  10.008 -0.1293  0.3012 -0.3332
    7CHL1   C19  484   1.441   5.249  10.040  0.0182 -0.5544  0.3690
    7CHL1  H19A  485   1.344   5.238   9.986  0.3439  1.3130 -0.6681
    7CHL1  H19B  486   1.418   5.240  10.148  1.5122 -0.9703  0.6756
    7CHL1  H19C  487   1.490   5.345  10.013  0.5233 -1.6003 -2.9620
    7CHL1    C1  488   1.470   4.982  10.032 -0.0529 -0.4765 -0.1946
    7CHL1   H1A  489   1.369   4.994   9.986  0.2024  1.6882 -0.3135
    7CHL1   H1B  490   1.522   4.899   9.980 -1.6892 -1.0342 -0.9983
    7CHL1    C2  491   1.454   4.959  10.187  0.8757  0.2262  0.6026
    7CHL1   H2A  492   1.404   4.860  10.201 -0.0027  0.2544 -1.7765
    7CHL1   H2B  493   1.380   5.034  10.222 -0.9033 -1.3942  0.5013
    7CHL1   C20  494   1.598   5.310   9.327  0.2825  0.6745  0.0305
    7CHL1   H20  495   1.553   5.410   9.343  1.9240  1.5125 -0.3161
    7CHL1   C21  496   1.493   5.204   9.277 -0.3662 -0.7515  0.0036
    7CHL1  H21A  497   1.418   5.190   9.358 -0.6372  0.4556 -0.0184
    7CHL1  H21B  498   1.530   5.104   9.246  0.3933  0.9289 -5.5984
    7CHL1  H21C  499   1.438   5.246   9.190 -0.6353 -0.9976  0.0561
    7CHL1   C22  500   1.697   5.350   9.212 -0.1539  0.0268 -0.3887
    7CHL1  H22A  501   1.778   5.417   9.248 -1.3395  2.5269 -2.0820
    7CHL1  H22B  502   1.745   5.254   9.183  1.4941  0.6069  0.3163
    7CHL1   C23  503   1.628   5.414   9.092  0.4385 -1.1051 -0.6182
    7CHL1  H23A  504   1.597   5.326   9.032  1.4625 -0.9461 -1.4133
    7CHL1  H23B  505   1.550   5.480   9.134  1.7304 -0.5426  1.0372
    7CHL1   C24  506   1.712   5.507   9.009 -0.3876 -0.2502  0.5865
    7CHL1  H24A  507   1.776   5.572   9.072 -0.1451 -1.3887  1.5590
    7CHL1  H24B  508   1.779   5.451   8.940 -1.4734 -0.8891  0.0147
    7CHL1   C25  509   1.613   5.597   8.929 -0.2344 -0.8992  0.5086
    7CHL1   H25  510   1.539   5.639   9.000 -1.8002 -0.7855 -1.1215
    7CHL1   C26  511   1.683   5.714   8.872  0.0020 -0.1596 -0.0398
    7CHL1  H26A  512   1.611   5.796   8.853  0.3750  0.3060  0.5205
    7CHL1  H26B  513   1.753   5.757   8.948  1.3692  0.4938 -1.6002
    7CHL1  H26C  514   1.738   5.681   8.781  0.1839  1.0305 -0.3817
    7CHL1   C27  515   1.536   5.518   8.826 -0.6277  0.1016  0.6847
    7CHL1  H27A  516   1.459   5.453   8.873 -0.1716 -0.7565  0.2709
    7CHL1  H27B  517   1.477   5.580   8.755 -0.3986 -0.9239 -0.4436
    7CHL1  H27C  518   1.604   5.448   8.772 -1.2210 -0.6488  0.8859
    8CHL1    C3  519   1.196   4.014  10.106 -0.0757  0.1469  0.6833
    8CHL1    H3  520   1.202   3.903  10.098  1.7430  0.1703  1.2593
    8CHL1    O3  521   1.212   4.042  10.246 -0.2175 -0.3934 -0.2348
    8CHL1   H3'  522   1.125   4.019  10.281  0.4010 -2.1963  0.2020
    8CHL1    C4  523   1.323   4.068  10.036 -0.3364  0.3465 -0.1519
    8CHL1   H4A  524   1.361   4.163  10.078  0.2099 -0.8237  2.1754
    8CHL1   H4B  525   1.412   4.016  10.077  2.1612  3.2861 -1.4335
    8CHL1    C5  526   1.323   4.058   9.884  0.4272 -0.4508 -0.7380
    8CHL1    C6  527   1.410   3.981   9.818 -0.1019 -0.1616  0.3155
    8CHL1    H6  528   1.482   3.927   9.882  1.8894  0.3639 -1.3784
    8CHL1    C7  529   1.414   3.964   9.669  0.2229  0.0189  0.1865
    8CHL1   H7A  530   1.518   3.948   9.633 -0.0067  1.7348 -1.3126
    8CHL1   H7B  531   1.355   3.874   9.640 -2.8732  1.5048  1.4060
    8CHL1    C8  532   1.338   4.070   9.594  0.1950 -0.7831  0.2479
    8CHL1    H8  533   1.386   4.170   9.592 -1.2345 -0.0681  0.3604
    8CHL1   C14  534   1.321   4.036   9.451  0.1396 -0.7563  0.0231
    8CHL1   H14  535   1.267   3.940   9.438 -0.9292 -0.5244  2.2356
    8CHL1   C15  536   1.451   4.036   9.361  0.5327 -0.1088  0.0003
    8CHL1  H15A  537   1.507   4.132   9.367 -5.0880  3.6963  0.2588
    8CHL1  H15B  538   1.519   3.953   9.388  1.5309  0.3460 -1.0015
    8CHL1   C16  539   1.386   4.030   9.213 -0.6664 -0.0283 -0.3433
    8CHL1  H16A  540   1.444   4.106   9.156 -2.1511  2.0080  0.6891
    8CHL1  H16B  541   1.395   3.933   9.161 -2.5500 -0.9352  0.9066
    8CHL1   C17  542   1.237   4.072   9.224  0.0973 -0.0069 -0.6867
    8CHL1   H17  543   1.183   3.975   9.218  0.6605 -0.3545 -0.1536
    8CHL1   C13  544   1.219   4.127   9.369  0.2475 -0.1046 -0.5650
    8CHL1   C18  545   1.269   4.274   9.361 -0.2270  0.0247  0.3336
    8CHL1  H18A  546   1.191   4.338   9.315  0.6543  0.5104 -0.5479
    8CHL1  H18B  547   1.290   4.325   9.458  1.6593  3.4180 -1.6424
    8CHL1  H18C  548   1.362   4.283   9.300 -0.1535 -1.5235  0.1875
    8CHL1   C12  549   1.091   4.109   9.440 -0.2768  0.1326 -0.2221
    8CHL1  H12A  550   1.013   4.171   9.390  0.5715  0.9305 -0.5677
    8CHL1  H12B  551   1.060   4.002   9.447 -1.6326  0.5455  0.3174
    8CHL1   C11  552   1.090   4.157   9.589  0.3357 -0.5073  0.1343
    8CHL1  H11A  553   1.118   4.264   9.594 -2.1540  0.4254 -2.8730
    8CHL1  H11B  554   0.991   4.153   9.640  0.5256 -2.2882  0.4309
    8CHL1    C9  555   1.195   4.073   9.665 -0.1045 -0.7480  0.3722
    8CHL1    H9  556   1.152   3.971   9.653 -1.4442  0.0107 -2.0536
    8CHL1   C10  557   1.199   4.119   9.813 -1.2448 -0.2096 -0.6865
    8CHL1   C19  558   1.215   4.274   9.830  0.6241  0.2717  0.6630
    8CHL1  H19A  559   1.132   4.341   9.801 -0.1638  0.6669  3.4909
    8CHL1  H19B  560   1.246   4.303   9.933  0.0119 -1.2407  1.2983
    8CHL1  H19C  561   1.295   4.311   9.762 -0.5911  0.6266 -0.6176
    8CHL1    C1  562   1.077   4.054   9.889 -0.8364  0.1965  0.0445
    8CHL1   H1A  563   0.987   4.101   9.843 -0.6250 -0.6125 -1.2479
    8CHL1   H1B  564   1.081   3.945   9.865 -0.1337 -0.1184  1.5148
    8CHL1    C2  565   1.068   4.069  10.045  0.9426 -0.0328  0.5506
    8CHL1   H2A  566   0.977   4.015  10.079 -0.2581  1.1258 -0.6601
    8CHL1   H2B  567   1.057   4.174  10.081  1.8773 -0.0726  0.9820
    8CHL1   C20  568   1.191   4.147   9.098  0.4067 -0.1966  0.1079
    8CHL1   H20  569   1.237   4.247   9.088 -0.1050 -0.0673 -1.0150
    8CHL1   C21  570   1.037   4.169   9.113 -0.0005 -0.7217 -0.3929
    8CHL1  H21A  571   1.018   4.244   9.192  1.4415  0.2908 -0.9567
    8CHL1  H21B  572   0.978   4.076   9.121 -0.2837 -0.5500 -0.4959
    8CHL1  H21C  573   0.990   4.211   9.022  0.1971  1.1717  0.3332
    8CHL1   C22  574   1.217   4.058   8.974 -0.7907 -0.3470  0.2496
    8CHL1  H22A  575   1.315   4.007   8.967 -0.4110  0.2432  1.0961
    8CHL1  H22B  576   1.137   3.982   8.965  0.1855 -1.3193 -0.3629
    8CHL1   C23  577   1.213   4.144   8.846  0.4971  0.7521  0.2977
    8CHL1  H23A  578   1.192   4.075   8.761  0.8397  1.5761 -0.4790
    8CHL1  H23B  579   1.137   4.224   8.858  0.7039  0.8640  0.8892
    8CHL1   C24  580   1.346   4.205   8.810  0.5465 -0.5792 -0.3140
    8CHL1  H24A  581   1.388   4.278   8.882 -1.4190  1.6911 -1.3155
    8CHL1  H24B  582   1.414   4.120   8.787 -2.0075 -2.3857 -1.6463
    8CHL1   C25  583   1.338   4.301   8.682  0.0942  0.0462 -0.3852
    8CHL1   H25  584   1.255   4.373   8.694  0.9807  1.1716 -0.8680
    8CHL1   C26  585   1.460   4.395   8.664 -0.2620  0.4246 -1.0338
    8CHL1  H26A  586   1.551   4.333   8.650 -1.8684 -1.8893 -1.8000
    8CHL1  H26B  587   1.447   4.478   8.592 -0.0823  1.7311  0.3786
    8CHL1  H26C  588   1.481   4.444   8.762  0.2604 -1.1201 -0.3330
    8CHL1   C27  589   1.314   4.220   8.549 -0.2651 -0.1642  0.0893
    8CHL1  H27A  590   1.217   4.166   8.556 -0.1466 -0.2351  1.6244
    8CHL1  H27B  591   1.306   4.280   8.456 -1.7332 -1.2274 -0.5260
    8CHL1  H27C  592   1.398   4.147   8.545  1.1213  1.1989  2.2995
    9CHL1    C3  593   6.178   6.385  10.087  0.0492  0.2923  0.5769
    9CHL1    H3  594   6.081   6.432  10.115 -0.3861 -1.7096  2.6905
    9CHL1    O3  595   6.245   6.377  10.213  0.4768 -0.0785  0.0889
    9CHL1   H3'  596   6.318   6.315  10.205  0.6470  0.1977 -0.5335
    9CHL1    C4  597   6.159   6.250  10.028 -0.5756  0.3131  0.3205
    9CHL1   H4A  598   6.256   6.198  10.010 -0.7698  0.1824 -0.3893
    9CHL1   H4B  599   6.089   6.194  10.092  0.1021 -1.0493 -0.0999
    9CHL1    C5  600   6.085   6.277   9.892 -0.6600  0.5537 -0.4858
    9CHL1    C6  601   5.964   6.221   9.879 -0.1721 -0.9205 -1.0682
    9CHL1    H6  602   5.921   6.172   9.967  3.2011 -0.8052  0.7731
    9CHL1    C7  603   5.890   6.233   9.757 -0.3905  0.0988  0.9064
    9CHL1   H7A  604   5.866   6.130   9.723  0.2179  0.9169 -2.4183
    9CHL1   H7B  605   5.800   6.296   9.772 -0.1773 -0.0115  2.8555
    9CHL1    C8  606   5.979   6.288   9.635  0.7788 -0.1346  0.2763
    9CHL1    H8  607   6.047   6.205   9.606  2.9782  1.5283  0.4428
    9CHL1   C14  608   5.884   6.332   9.528 -0.1177  0.3553 -0.5747
    9CHL1   H14  609   5.824   6.415   9.572  0.9968  0.6973  0.3744
    9CHL1   C15  610   5.785   6.220   9.467  0.3360  0.4263 -0.0179
    9CHL1  H15A  611   5.843   6.126   9.459  0.4130  0.3563  1.1423
    9CHL1  H15B  612   5.694   6.202   9.528  0.1200  1.6746  0.0736
    9CHL1   C16  613   5.743   6.277   9.330 -0.8024  0.1218 -0.3725
    9CHL1  H16A  614   5.753   6.199   9.252 -3.3531 -0.9446  0.2717
    9CHL1  H16B  615   5.634   6.298   9.336 -0.7946  0.9750 -2.4636
    9CHL1   C17  616   5.825   6.411   9.312  0.4490 -0.2250  0.2274
    9CHL1   H17  617   5.761   6.486   9.363 -0.0051 -0.6640  0.3084
    9CHL1   C13  618   5.946   6.396   9.396  0.4258 -0.1306 -0.0153
    9CHL1   C18  619   6.032   6.280   9.332  0.9068 -0.3681  0.6583
    9CHL1  H18A  620   6.098   6.237   9.410  0.6306 -1.6319  0.2051
    9CHL1  H18B  621   5.975   6.191   9.299 -0.0101  0.2978  0.4020
    9CHL1  H18C  622   6.091   6.317   9.245  0.0469 -1.4913 -0.4298
    9CHL1   C12  623   6.030   6.520   9.448  0.5585  0.4029 -0.0372
    9CHL1  H12A  624   6.074   6.576   9.362  0.2349  1.2580  0.3500
    9CHL1  H12B  625   5.961   6.590   9.499 -1.4964 -1.1757 -0.5280
    9CHL1   C11  626   6.140   6.471   9.551 -0.3099 -0.0435 -0.3019
    9CHL1  H11A  627   6.216   6.401   9.513  1.2544  1.7574 -0.6574
    9CHL1  H11B  628   6.191   6.565   9.583 -0.7734  0.9502 -2.3009
    9CHL1    C9  629   6.068   6.401   9.670 -0.1287 -0.1051  0.1697
    9CHL1    H9  630   5.990   6.469   9.712 -1.1009 -0.5360 -0.8770
    9CHL1   C10  631   6.160   6.358   9.788  0.3488  0.1329  0.8047
    9CHL1   C19  632   6.281   6.279   9.730  0.2179 -0.6065 -0.2725
    9CHL1  H19A  633   6.245   6.191   9.673 -0.8750 -0.2765 -0.1101
    9CHL1  H19B  634   6.337   6.353   9.669 -2.1884  0.7524 -0.9642
    9CHL1  H19C  635   6.353   6.245   9.808  0.7869 -1.0457 -0.9698
    9CHL1    C1  636   6.209   6.494   9.848  0.0801  0.7610  0.4193
    9CHL1   H1A  637   6.301   6.528   9.795  2.0191 -1.9521  1.7646
    9CHL1   H1B  638   6.126   6.566   9.857 -0.1567  0.6468 -0.6464
    9CHL1    C2  639   6.261   6.476   9.994  0.2348  0.3529  0.1328
    9CHL1   H2A  640   6.263   6.579  10.035  1.4248  0.4394 -0.1059
    9CHL1   H2B  641   6.364   6.435   9.996 -0.3216 -1.1684 -0.5538
    9CHL1   C20  642   5.844   6.441   9.166  0.0137  0.6802  0.4005
    9CHL1   H20  643   5.930   6.391   9.115 -0.1032  0.8715  0.0080
    9CHL1   C21  644   5.868   6.591   9.162  0.0321 -0.4210 -0.1849
    9CHL1  H21A  645   5.865   6.623   9.056  0.2235 -2.1138 -0.7273
    9CHL1  H21B  646   5.974   6.602   9.194  0.4300  3.6770 -2.3126
    9CHL1  H21C  647   5.808   6.655   9.230  2.2992  2.1045 -0.4116
    9CHL1   C22  648   5.720   6.408   9.075 -0.5568  0.0707 -0.5373
    9CHL1  H22A  649   5.688   6.302   9.088 -0.4011  0.1768  0.8277
    9CHL1  H22B  650   5.641   6.481   9.101 -0.4747 -0.1800  0.4594
    9CHL1   C23  651   5.752   6.416   8.928  0.2337  0.4802 -0.0589
    9CHL1  H23A  652   5.741   6.522   8.898 -1.9194  0.2516 -0.2109
    9CHL1  H23B  653   5.850   6.370   8.903 -0.6064 -0.8408 -1.1276
    9CHL1   C24  654   5.653   6.341   8.827 -0.2110  0.0918  0.2187
    9CHL1  H24A  655   5.652   6.233   8.854 -1.6375  0.0208 -0.0074
    9CHL1  H24B  656   5.551   6.383   8.843 -0.5079 -1.5581  3.4969
    9CHL1   C25  657   5.703   6.345   8.678 -0.1558  0.6336 -0.5915
    9CHL1   H25  658   5.779   6.264   8.668 -0.3873 -0.2293  3.0235
    9CHL1   C26  659   5.594   6.295   8.591 -0.1349  0.7144 -0.3416
    9CHL1  H26A  660   5.495   6.339   8.615  0.6995  1.9476  0.9670
    9CHL1  H26B  661   5.620   6.292   8.483 -1.7979 -2.9923 -0.7704
    9CHL1  H26C  662   5.580   6.188   8.614 -0.0658  0.2290 -2.3369
    9CHL1   C27  663   5.763   6.472   8.628  0.3811  0.0708 -0.0831
    9CHL1  H27A  664   5.805   6.451   8.527  0.6743  0.3494 -0.0223
    9CHL1  H27B  665   5.677   6.542   8.624  1.4321  1.6850  2.5347
    9CHL1  H27C  666   5.845   6.510   8.692  0.3950  0.2752 -0.2189
   10CHL1    C3  667   4.559   5.046  10.188  0.2835 -0.6988  0.3366
   10CHL1    H3  668   4.468   5.055  10.125  1.0668 -0.1628 -0.7448
   10CHL1    O3  669   4.526   5.038  10.326  0.1401 -0.7371  0.8602
   10CHL1   H3'  670   4.552   4.950  10.355 -0.2988 -1.5208 -1.0073
   10CHL1    C4  671   4.652   4.931  10.153  0.0268 -0.3487 -0.6717
   10CHL1   H4A  672   4.726   4.939  10.236 -0.6488  2.3290 -0.2365
   10CHL1   H4B  673   4.597   4.836  10.176 -1.7923  1.2571  2.3549
   10CHL1    C5  674   4.710   4.945  10.013 -0.1501  0.0672 -0.6173
   10CHL1    C6  675   4.691   4.839   9.924  1.0466 -0.5123 -0.0929
   10CHL1    H6  676   4.654   4.737   9.944  0.8249 -0.2695  0.7806
   10CHL1    C7  677   4.737   4.858   9.778 -0.4779 -0.1384  0.1149
   10CHL1   H7A  678   4.798   4.773   9.741  0.4330  1.3073 -1.8858
   10CHL1   H7B  679   4.648   4.874   9.715 -1.3002 -0.3692  1.1852
   10CHL1    C8  680   4.833   4.981   9.754  0.2418  0.7228  0.1762
   10CHL1    H8  681   4.934   4.964   9.797  0.7603 -0.1230 -1.2969
   10CHL1   C14  682   4.841   4.999   9.601  0.8272  0.3456  0.8001
   10CHL1   H14  683   4.739   5.025   9.566  1.5268  0.3374 -1.3612
   10CHL1   C15  684   4.895   4.888   9.511 -0.1991  0.1942 -0.6616
   10CHL1  H15A  685   4.989   4.849   9.555 -0.9352  1.5977  2.4105
   10CHL1  H15B  686   4.818   4.808   9.513  0.9123 -0.8752  0.2769
   10CHL1   C16  687   4.912   4.954   9.376  0.4167  0.3577 -0.2794
   10CHL1  H16A  688   5.010   4.924   9.333 -0.2578  0.2400 -1.8187
   10CHL1  H16B  689   4.838   4.910   9.305  0.9657 -1.6209  0.3185
   10CHL1   C17  690   4.903   5.111   9.398  0.5552 -0.0797 -0.7846
   10CHL1   H17  691   4.797   5.132   9.372  0.2446 -1.4007 -0.6580
   10CHL1   C13  692   4.916   5.127   9.556  0.0528  0.0304 -0.0041
   10CHL1   C18  693   5.067   5.121   9.598 -0.4392  0.2937  0.4636
   10CHL1  H18A  694   5.077   5.143   9.707  1.7729  0.1570  0.3403
   10CHL1  H18B  695   5.109   5.020   9.577  0.8325  1.4657 -3.5606
   10CHL1  H18C  696   5.127   5.200   9.549 -0.6071  1.3135  1.8315
   10CHL1   C12  697   4.858   5.255   9.619  0.0360 -0.6828 -0.0861
   10CHL1  H12A  698   4.907   5.350   9.589  0.4847 -1.1216 -0.7627
   10CHL1  H12B  699   4.753   5.256   9.581 -0.0425  1.0093  0.1013
   10CHL1   C11  700   4.848   5.241   9.773 -0.2155 -0.2932  0.3097
   10CHL1  H11A  701   4.945   5.262   9.824 -1.1582  1.0574  1.6277
   10CHL1  H11B  702   4.782   5.316   9.822 -1.0987  0.9189 -2.5579
   10CHL1    C9  703   4.775   5.110   9.814  0.1794  0.3306 -0.4872
   10CHL1    H9  704   4.674   5.128   9.773 -0.6862  0.9086  1.7542
   10CHL1   C10  705   4.762   5.092   9.971  0.3196 -0.3250  0.2739
   10CHL1   C19  706   4.894   5.118  10.033 -0.7524  0.1650 -0.5326
   10CHL1  H19A  707   4.891   5.095  10.142 -1.4558  1.0870 -0.3451
   10CHL1  H19B  708   4.977   5.056   9.995  0.3876  2.3979 -1.8209
   10CHL1  H19C  709   4.929   5.223  10.022  0.3059 -0.1510 -0.2517
   10CHL1    C1  710   4.663   5.198  10.024 -0.4338  0.4446  0.0202
   10CHL1   H1A  711   4.703   5.301  10.020 -3.1845  1.7715  2.4358
   10CHL1   H1B  712   4.577   5.191   9.954  3.0566  0.6198 -4.6972
   10CHL1    C2  713   4.626   5.182  10.170  0.0348  0.1585  0.0164
   10CHL1   H2A  714   4.557   5.265  10.197 -0.4853 -0.1062 -0.4803
   10CHL1   H2B  715   4.714   5.180  10.238 -0.1671 -0.4657  0.2683
   10CHL1   C20  716   4.992   5.202   9.315  0.2689 -0.4138  0.2009
   10CHL1   H20  717   5.016   5.293   9.374 -0.7826 -0.7965  1.2644
   10CHL1   C21  718   4.900   5.249   9.193 -0.4281  0.3367 -0.3570
   10CHL1  H21A  719   4.863   5.158   9.141 -0.3047  0.5437 -0.8105
   10CHL1  H21B  720   4.964   5.312   9.128  0.2380  0.1028  0.0609
   10CHL1  H21C  721   4.810   5.301   9.231 -2.5060 -1.7925 -2.0646
   10CHL1   C22  722   5.116   5.138   9.256  0.2788 -0.2413  0.2254
   10CHL1  H22A  723   5.164   5.072   9.331 -1.2010 -0.6708  0.8276
   10CHL1  H22B  724   5.092   5.072   9.170 -1.1376 -0.3021  0.6416
   10CHL1   C23  725   5.221   5.243   9.218 -0.6294 -0.8633 -0.3470
   10CHL1  H23A  726   5.169   5.328   9.169  0.2208  1.2773  2.2181
   10CHL1  H23B  727   5.273   5.283   9.307  1.5725  0.1324 -1.9910
   10CHL1   C24  728   5.324   5.184   9.121 -0.2539  0.0885  0.3101
   10CHL1  H24A  729   5.393   5.110   9.167  0.6531 -0.8884 -2.4305
   10CHL1  H24B  730   5.275   5.137   9.033  2.5615 -0.0450 -1.3066
   10CHL1   C25  731   5.424   5.286   9.065 -0.2734 -0.6370 -0.3186
   10CHL1   H25  732   5.357   5.364   9.024  1.3571  1.5490  0.9848
   10CHL1   C26  733   5.508   5.353   9.178 -0.4637  0.2165  0.0205
   10CHL1  H26A  734   5.460   5.390   9.270 -0.5672 -0.6886  0.3433
   10CHL1  H26B  735   5.587   5.284   9.215  0.8309  0.1020 -2.6594
   10CHL1  H26C  736   5.559   5.437   9.126 -0.9642  0.1416 -0.6078
   10CHL1   C27  737   5.514   5.230   8.952 -0.4815  0.6339 -0.1078
   10CHL1  H27A  738   5.555   5.131   8.983  0.5264  0.4985 -1.7759
   10CHL1  H27B  739   5.457   5.220   8.857  0.3924 -1.9718 -0.4484
   10CHL1  H27C  740   5.595   5.299   8.920 -0.0578  0.4677  0.5780
   11CHL1    C3  741   6.311   0.596  10.039  0.7355  1.2285 -0.5477
   11CHL1    H3  742   6.409   0.573   9.992  2.1384  2.0993  1.7941
   11CHL1    O3  743   6.340   0.582  10.180  0.4850 -0.0370  0.3782
   11CHL1   H3'  744   6.403   0.510  10.182 -1.6763 -2.0517 -0.1281
   11CHL1    C4  745   6.257   0.731  10.004 -0.0282  0.0653 -0.1574
   11CHL1   H4A  746   6.163   0.750  10.062 -0.3105  0.0165 -0.5960
   11CHL1   H4B  747   6.330   0.806  10.039 -0.8612  1.9169 -2.1458
   11CHL1    C5  748   6.239   0.742   9.855  0.2535 -0.5172  1.1627
   11CHL1    C6  749   6.299   0.840   9.784 -0.0415 -0.0259  0.6014
   11CHL1    H6  750   6.360   0.916   9.836  2.5645  0.1354 -2.3952
   11CHL1    C7  751   6.280   0.860   9.642 -0.2919  0.4277 -0.8362
   11CHL1   H7A  752   6.262   0.967   9.618  0.7217  0.8544  0.2236
   11CHL1   H7B  753   6.374   0.833   9.590 -1.7756 -0.0328 -3.4736
   11CHL1    C8  754   6.167   0.773   9.574 -0.4635  0.7148  0.3934
   11CHL1    H8  755   6.067   0.818   9.593 -1.0329 -0.2366 -0.2864
   11CHL1   C14  756   6.199   0.766   9.430  0.0414  0.0203  0.2558
   11CHL1   H14  757   6.299   0.719   9.418  0.4599  1.0278 -0.3840
   11CHL1   C15  758   6.220   0.889   9.344  0.3285 -0.7029  0.0202
   11CHL1  H15A  759   6.137   0.960   9.364  0.2102 -0.9670  0.4637
   11CHL1  H15B  760   6.316   0.932   9.380  0.6878 -1.7766  0.3660
   11CHL1   C16  761   6.219   0.832   9.206  0.0043 -0.2508 -0.2333
   11CHL1  H16A  762   6.159   0.900   9.142 -0.8668 -2.3095 -1.7064
   11CHL1  H16B  763   6.311   0.838   9.144  0.7683 -2.0034  0.6628
   11CHL1   C17  764   6.167   0.687   9.211 -0.1864  0.0784  0.7186
   11CHL1   H17  765   6.255   0.620   9.222 -0.7316 -0.7340  0.2887
   11CHL1   C13  766   6.106   0.668   9.346  0.0590  0.1680  0.0557
   11CHL1   C18  767   5.968   0.741   9.339 -0.0055  0.1238  0.7302
   11CHL1  H18A  768   5.975   0.840   9.288  2.3330 -0.9535 -1.2547
   11CHL1  H18B  769   5.887   0.680   9.294 -0.8333 -0.9796  3.4921
   11CHL1  H18C  770   5.935   0.740   9.445 -3.7337 -0.8633 -0.3024
   11CHL1   C12  771   6.104   0.530   9.416  0.6156 -0.2612  0.1458
   11CHL1  H12A  772   6.031   0.467   9.360  2.2432 -0.0896 -2.3501
   11CHL1  H12B  773   6.197   0.473   9.395  0.0049 -1.0287 -0.5581
   11CHL1   C11  774   6.066   0.535   9.562 -0.2527  0.6243  0.0866
   11CHL1  H11A  775   5.962   0.576   9.565  0.3296  2.2122 -0.1223
   11CHL1  H11B  776   6.070   0.429   9.595 -0.7288 -0.1807 -2.2250
   11CHL1    C9  777   6.162   0.632   9.636 -0.3366  0.1313  0.9009
   11CHL1    H9  778   6.259   0.590   9.604 -1.0046  0.8668 -2.4524
   11CHL1   C10  779   6.160   0.626   9.786  0.4081 -0.1155  0.1099
   11CHL1   C19  780   6.011   0.638   9.833  0.5410  0.9102  0.4108
   11CHL1  H19A  781   5.995   0.653   9.942  1.7701  1.7238  0.5103
   11CHL1  H19B  782   5.963   0.722   9.777  1.2404 -0.2600 -2.0734
   11CHL1  H19C  783   5.957   0.544   9.811  0.3642  0.9496  0.6724
   11CHL1    C1  784   6.200   0.487   9.838 -0.6902  0.1834  0.6543
   11CHL1   H1A  785   6.133   0.405   9.804  0.5200 -0.1634 -0.9887
   11CHL1   H1B  786   6.299   0.463   9.795 -1.2904  0.1831 -0.7798
   11CHL1    C2  787   6.209   0.480   9.994 -0.5655 -0.0888 -0.3144
   11CHL1   H2A  788   6.258   0.386  10.027  0.4421  0.6907  0.4696
   11CHL1   H2B  789   6.109   0.495  10.039 -1.5957 -1.1548 -2.1568
   11CHL1   C20  790   6.090   0.657   9.083 -0.1679 -0.6711 -0.2235
   11CHL1   H20  791   6.011   0.734   9.068  0.3648  0.8054  3.4556
   11CHL1   C21  792   6.020   0.517   9.090 -0.0694 -0.3554 -0.0403
   11CHL1  H21A  793   5.961   0.486   9.001 -0.2851 -0.9443  0.2978
   11CHL1  H21B  794   5.940   0.511   9.167  0.3435 -2.3611  0.2985
   11CHL1  H21C  795   6.106   0.452   9.118  1.0429  1.3389  0.6063
   11CHL1   C22  796   6.181   0.671   8.959 -0.9279 -0.1730  0.2711
   11CHL1  H22A  797   6.243   0.762   8.942  0.6795 -1.5277 -1.6240
   11CHL1  H22B  798   6.252   0.586   8.966  0.1494  0.6567 -0.2304
   11CHL1   C23  799   6.106   0.662   8.823  0.4710 -0.5194 -0.1116
   11CHL1  H23A  800   6.053   0.564   8.822  0.1354 -0.3635  1.1936
   11CHL1  H23B  801   6.027   0.740   8.826  0.4395 -0.3477  5.6051
   11CHL1   C24  802   6.205   0.683   8.703  0.5799 -0.1937  0.2370
   11CHL1  H24A  803   6.234   0.791   8.700 -0.5507  0.1577  1.0755
   11CHL1  H24B  804   6.302   0.629   8.716 -0.3934 -1.6561  1.9093
   11CHL1   C25  805   6.146   0.638   8.563  0.4666 -0.1300  0.1807
   11CHL1   H25  806   6.045   0.684   8.565  0.3043 -0.4735  0.0379
   11CHL1   C26  807   6.227   0.698   8.451 -0.4777 -0.3471  0.1091
   11CHL1  H26A  808   6.253   0.803   8.474  1.8434 -0.6073 -1.0896
   11CHL1  H26B  809   6.326   0.648   8.449  0.0702  0.6634  0.8009
   11CHL1  H26C  810   6.170   0.694   8.356 -0.1512  1.5687 -0.2070
   11CHL1   C27  811   6.127   0.490   8.543 -0.1603  0.5404  0.1233
   11CHL1  H27A  812   6.085   0.469   8.442 -2.7337 -1.8800  1.5691
   11CHL1  H27B  813   6.222   0.432   8.544 -0.3018  0.3128  1.1888
   11CHL1  H27C  814   6.051   0.446   8.610 -0.1166 -1.4907 -1.0731
   12CHL1    C3  815   4.328   4.387  10.254 -0.1444 -0.6499 -0.4417
   12CHL1    H3  816   4.339   4.283  10.216 -2.1601 -0.0111 -3.1523
   12CHL1    O3  817   4.322   4.393  10.393 -0.0873 -0.1788 -0.6026
   12CHL1   H3'  818   4.261   4.324  10.420  0.6401 -0.4096  0.4975
   12CHL1    C4  819   4.446   4.475  10.195 -0.2627 -0.7585  0.3491
   12CHL1   H4A  820   4.436   4.573  10.246 -2.3180 -1.1247  0.7301
   12CHL1   H4B  821   4.537   4.429  10.239  1.9138  1.6799 -1.2732
   12CHL1    C5  822   4.451   4.498  10.044 -0.4378  1.2053 -0.0173
   12CHL1    C6  823   4.550   4.458   9.966  0.8664  0.0967  0.8302
   12CHL1    H6  824   4.645   4.426  10.011  1.8208  2.9309  1.0446
   12CHL1    C7  825   4.553   4.483   9.816 -0.1098 -0.0833  0.0366
   12CHL1   H7A  826   4.650   4.523   9.779 -1.7887  0.5511 -4.3734
   12CHL1   H7B  827   4.536   4.384   9.769 -0.7618  0.4141 -0.8193
   12CHL1    C8  828   4.440   4.575   9.763  0.0858  0.6179 -0.3225
   12CHL1    H8  829   4.474   4.678   9.787  0.9237  0.2137  0.2770
   12CHL1   C14  830   4.413   4.561   9.615 -0.2184 -0.6480  0.3891
   12CHL1   H14  831   4.370   4.459   9.606 -2.0726  0.1079  0.2486
   12CHL1   C15  832   4.532   4.574   9.524 -0.0145  0.0139 -0.6893
   12CHL1  H15A  833   4.591   4.666   9.542 -1.0439  0.2410  1.9802
   12CHL1  H15B  834   4.602   4.491   9.548 -0.5003  0.1977  1.6170
   12CHL1   C16  835   4.463   4.573   9.386  0.7423  0.1996  0.6725
   12CHL1  H16A  836   4.510   4.659   9.333 -0.6625  1.2615  1.0908
   12CHL1  H16B  837   4.484   4.480   9.330 -2.4079 -0.0869 -0.2248
   12CHL1   C17  838   4.308   4.599   9.408 -0.1817  0.8062 -0.1041
   12CHL1   H17  839   4.243   4.509   9.408  0.7465  0.0439  2.4434
   12CHL1   C13  840   4.303   4.650   9.557  0.0310  1.1373 -0.7196
   12CHL1   C18  841   4.343   4.804   9.565 -0.1337  0.2689 -0.2455
   12CHL1  H18A  842   4.360   4.840   9.668 -1.7214  2.1373 -0.5923
   12CHL1  H18B  843   4.441   4.826   9.519  0.5404  1.8321  1.8468
   12CHL1  H18C  844   4.266   4.867   9.516 -0.7856 -0.2996  0.0246
   12CHL1   C12  845   4.175   4.630   9.632  0.3743  0.0799 -0.0606
   12CHL1  H12A  846   4.111   4.716   9.603 -0.9131 -1.2584 -1.3529
   12CHL1  H12B  847   4.127   4.534   9.602 -0.8890  0.8964 -0.7211
   12CHL1   C11  848   4.196   4.635   9.784  0.8770 -0.1431 -0.4653
   12CHL1  H11A  849   4.218   4.743   9.798 -1.9654  0.3692  0.7432
   12CHL1  H11B  850   4.104   4.604   9.838  1.8418 -0.0161  1.3348
   12CHL1    C9  851   4.311   4.552   9.842  0.1440 -1.0680  0.9163
   12CHL1    H9  852   4.293   4.444   9.820  0.1466 -0.4123 -3.2028
   12CHL1   C10  853   4.321   4.559   9.997  0.2706  0.7612 -0.5314
   12CHL1   C19  854   4.311   4.702  10.047 -0.1264 -0.2363  0.5723
   12CHL1  H19A  855   4.404   4.758  10.023 -1.2524  0.8663 -1.5122
   12CHL1  H19B  856   4.230   4.757   9.994  1.2232  0.5411 -0.7789
   12CHL1  H19C  857   4.293   4.703  10.157 -1.9148  2.2907  0.3395
   12CHL1    C1  858   4.200   4.471  10.059  0.0538 -0.7756  0.7521
   12CHL1   H1A  859   4.099   4.509  10.031  0.4413 -1.1839 -1.4185
   12CHL1   H1B  860   4.203   4.369  10.013 -1.3219 -0.0099 -1.1637
   12CHL1    C2  861   4.197   4.445  10.211  0.0182 -0.2201 -0.8433
   12CHL1   H2A  862   4.121   4.368  10.238 -0.7809  1.0184  0.6290
   12CHL1   H2B  863   4.168   4.538  10.265 -0.3395 -2.6071  3.5997
   12CHL1   C20  864   4.246   4.697   9.297  0.0534 -0.9157 -0.6053
   12CHL1   H20  865   4.307   4.789   9.294  1.0316 -1.4487  1.1676
   12CHL1   C21  866   4.101   4.741   9.321  1.0878 -0.3209  0.3518
   12CHL1  H21A  867   4.067   4.800   9.234  2.1383  0.5092  0.4762
   12CHL1  H21B  868   4.087   4.811   9.407  1.5586 -1.1281  1.0989
   12CHL1  H21C  869   4.039   4.650   9.312 -0.4346  0.5401  1.6438
   12CHL1   C22  870   4.246   4.628   9.161  0.3433  0.7422 -0.6481
   12CHL1  H22A  871   4.344   4.583   9.134 -0.2018 -0.1029 -1.2666
   12CHL1  H22B  872   4.176   4.542   9.166  3.0762 -1.6112 -0.0537
   12CHL1   C23  873   4.206   4.708   9.034 -0.2507 -0.0243 -0.5089
   12CHL1  H23A  874   4.101   4.739   9.047  0.4513  2.0403  0.7548
   12CHL1  H23B  875   4.266   4.801   9.025 -0.6611  0.5845  2.2139
   12CHL1   C24  876   4.206   4.619   8.905  0.3412  0.0559  0.1012
   12CHL1  H24A  877   4.309   4.584   8.880 -0.3921 -2.5373  0.4890
   12CHL1  H24B  878   4.144   4.528   8.916  1.4528 -0.7393 -0.0756
   12CHL1   C25  879   4.162   4.690   8.775  0.1628 -0.4442  0.2509
   12CHL1   H25  880   4.158   4.615   8.693  2.7247  0.9201 -1.2529
   12CHL1   C26  881   4.023   4.750   8.776  0.0323 -0.4230 -0.6750
   12CHL1  H26A  882   4.022   4.854   8.814 -0.3042 -1.0403  1.1165
   12CHL1  H26B  883   3.980   4.753   8.674  0.4221 -0.2284 -0.8362
   12CHL1  H26C  884   3.956   4.687   8.838  1.2450 -0.8400  0.2628
   12CHL1   C27  885   4.257   4.799   8.723  1.0507  0.4010 -0.2737
   12CHL1  H27A  886   4.358   4.753   8.720  0.5488 -0.7438  0.0461
   12CHL1  H27B  887   4.221   4.842   8.626  0.8398  2.8853  0.8189
   12CHL1  H27C  888   4.253   4.886   8.792 -0.1712  0.2911 -0.1715
   13CHL1    C3  889   3.365   6.543   9.893 -0.5693  0.7198  0.2724
   13CHL1    H3  890   3.454   6.482   9.865 -0.0642  1.4861  0.1699
   13CHL1    O3  891   3.374   6.594  10.027  0.5034  0.6030  0.0582
   13CHL1   H3'  892   3.299   6.563  10.079 -0.4950  0.0056 -1.6530
   13CHL1    C4  893   3.355   6.661   9.798 -0.6498  0.7244  0.4472
   13CHL1   H4A  894   3.278   6.727   9.843 -1.9504  0.5159 -1.3790
   13CHL1   H4B  895   3.451   6.718   9.801 -1.1776  1.6069  1.3540
   13CHL1    C5  896   3.327   6.632   9.653 -0.5133 -0.1868 -1.0094
   13CHL1    C6  897   3.420   6.654   9.559  1.0269  0.7185 -0.2204
   13CHL1    H6  898   3.511   6.712   9.584  1.4405  0.9538 -2.0894
   13CHL1    C7  899   3.402   6.626   9.417 -0.4754 -0.0077 -0.1052
   13CHL1   H7A  900   3.413   6.716   9.353 -1.2434 -0.7190 -1.2946
   13CHL1   H7B  901   3.468   6.540   9.394  0.2310  0.6205 -0.4475
   13CHL1    C8  902   3.256   6.580   9.381 -0.0383  0.6771  1.2123
   13CHL1    H8  903   3.191   6.670   9.383 -0.9882  0.0417  0.4062
   13CHL1   C14  904   3.266   6.505   9.247 -0.3104  0.8979  0.6156
   13CHL1   H14  905   3.329   6.414   9.251 -1.0171  0.2826 -1.2140
   13CHL1   C15  906   3.333   6.573   9.131 -0.2854 -0.5642  0.8030
   13CHL1  H15A  907   3.299   6.677   9.110 -0.1230 -0.7472 -0.4491
   13CHL1  H15B  908   3.442   6.560   9.148  0.0828  1.3337  0.2452
   13CHL1   C16  909   3.291   6.489   9.009  0.1787 -0.3281  0.2544
   13CHL1  H16A  910   3.269   6.562   8.928  1.3346 -0.7025 -0.4309
   13CHL1  H16B  911   3.372   6.421   8.974  0.4263  0.1023 -0.0181
   13CHL1   C17  912   3.172   6.401   9.054 -0.3711 -0.3580  0.5752
   13CHL1   H17  913   3.222   6.303   9.059  1.0397  0.2948 -0.1403
   13CHL1   C13  914   3.136   6.455   9.194  0.5160 -0.0726  0.3440
   13CHL1   C18  915   3.033   6.572   9.176  0.0600 -0.3260 -0.3378
   13CHL1  H18A  916   2.937   6.537   9.132 -0.4307 -1.4175  1.4883
   13CHL1  H18B  917   2.996   6.623   9.268  0.3189 -0.1718 -0.3193
   13CHL1  H18C  918   3.074   6.651   9.109 -1.4899  1.2685  0.4744
   13CHL1   C12  919   3.077   6.354   9.297  0.0694 -0.0693  0.0320
   13CHL1  H12A  920   2.976   6.318   9.272  0.1308  0.0744 -0.4274
   13CHL1  H12B  921   3.136   6.261   9.311  0.8464  0.7938  3.4561
   13CHL1   C11  922   3.070   6.411   9.440  0.5209  0.0552 -1.1558
   13CHL1  H11A  923   2.994   6.492   9.450  1.5671  0.9037  0.5523
   13CHL1  H11B  924   3.045   6.335   9.517  0.4257  0.5384 -0.6969
   13CHL1    C9  925   3.203   6.481   9.482 -0.1628 -0.6058 -0.2304
   13CHL1    H9  926   3.280   6.401   9.484  0.0232 -0.4371 -0.5738
   13CHL1   C10  927   3.199   6.537   9.624 -0.1872 -0.6566 -0.5152
   13CHL1   C19  928   3.077   6.626   9.656  0.2198 -0.0725  0.3479
   13CHL1  H19A  929   3.072   6.709   9.582  1.3505 -0.9710 -0.7932
   13CHL1  H19B  930   2.983   6.567   9.657  0.6463 -0.7907  2.5036
   13CHL1  H19C  931   3.079   6.687   9.749  1.7033 -1.4452  1.2811
   13CHL1    C1  932   3.215   6.426   9.731  0.6005  0.2950 -0.6304
   13CHL1   H1A  933   3.123   6.365   9.717 -0.0424  1.1356 -0.1968
   13CHL1   H1B  934   3.292   6.353   9.699  1.7461  0.4336  1.6314
   13CHL1    C2  935   3.236   6.465   9.880 -0.2062 -0.7465 -0.0361
   13CHL1   H2A  936   3.246   6.385   9.957  2.6058  1.1951  1.7991
   13CHL1   H2B  937   3.154   6.529   9.920  1.2485  1.8225 -0.9393
   13CHL1   C20  938   3.065   6.378   8.947 -0.3058 -0.1016 -0.0393
   13CHL1   H20  939   3.007   6.472   8.938 -1.5922 -0.8427  0.2138
   13CHL1   C21  940   2.974   6.253   8.979 -0.2473  0.7716  0.2790
   13CHL1  H21A  941   3.031   6.159   8.960 -0.2204  0.6695  0.8481
   13CHL1  H21B  942   2.879   6.265   8.923 -1.2753  0.6805  1.9555
   13CHL1  H21C  943   2.952   6.239   9.087 -0.2941 -2.8568 -0.0912
   13CHL1   C22  944   3.125   6.364   8.810  0.4977 -0.1875  0.2126
   13CHL1  H22A  945   3.153   6.466   8.774  0.4543  0.0035  0.7089
   13CHL1  H22B  946   3.220   6.308   8.827  0.3333 -0.2251  1.0169
   13CHL1   C23  947   3.027   6.302   8.708 -0.6168 -0.4780  0.4996
   13CHL1  H23A  948   3.004   6.201   8.748  0.6848 -1.1074 -0.2751
   13CHL1  H23B  949   2.932   6.360   8.708 -1.2896 -1.5646  0.6190
   13CHL1   C24  950   3.078   6.307   8.560  0.5195  0.3861 -0.8244
   13CHL1  H24A  951   3.121   6.406   8.536  0.6331  0.5433  0.0012
   13CHL1  H24B  952   3.148   6.225   8.530  0.1420  0.3581 -1.6317
   13CHL1   C25  953   2.955   6.300   8.462  0.7185 -0.1028 -0.3440
   13CHL1   H25  954   2.887   6.388   8.472  0.8315 -0.0948  0.4071
   13CHL1   C26  955   3.010   6.301   8.314 -0.0198  0.2012 -0.4277
   13CHL1  H26A  956   3.054   6.201   8.292 -2.1676 -0.7787 -0.5275
   13CHL1  H26B  957   2.926   6.307   8.242  1.1255  2.3324 -1.6901
   13CHL1  H26C  958   3.091   6.376   8.302 -0.1914  0.4761  0.1069
   13CHL1   C27  959   2.877   6.176   8.481 -0.2886  0.3036  0.1880
   13CHL1  H27A  960   2.838   6.170   8.585 -1.6411 -0.2042 -0.3356
   13CHL1  H27B  961   2.803   6.169   8.399 -1.2036  1.2247  0.9055
   13CHL1  H27C  962   2.953   6.096   8.466  1.1274  1.6914 -0.3815
   14CHL1    C3  963   1.788   3.614  10.306  0.1635  0.8170 -0.1767
   14CHL1    H3  964   1.887   3.573  10.279 -0.3684 -1.2146  0.7378
   14CHL1    O3  965   1.762   3.636  10.444  0.5034  0.2100  0.3227
   14CHL1   H3'  966   1.736   3.563  10.501 -0.5109 -0.0748 -0.4800
   14CHL1    C4  967   1.759   3.738  10.224 -0.5019  0.2150  0.2484
   14CHL1   H4A  968   1.659   3.786  10.235 -2.1379 -2.4402 -1.6798
   14CHL1   H4B  969   1.829   3.819  10.253 -0.0810 -1.0724  3.1576
   14CHL1    C5  970   1.786   3.704  10.075 -0.7154  0.1245  0.2621
   14CHL1    C6  971   1.871   3.779   9.999 -0.5517 -0.2437  0.2996
   14CHL1    H6  972   1.920   3.867  10.043 -1.1639  0.5653 -0.5856
   14CHL1    C7  973   1.890   3.761   9.850 -0.2533  0.0500  0.5157
   14CHL1   H7A  974   1.918   3.859   9.806 -0.0334  0.4403  1.4910
   14CHL1   H7B  975   1.976   3.693   9.832 -0.3870 -0.1249  0.5436
   14CHL1    C8  976   1.770   3.692   9.790  0.4643 -0.5379  0.4447
   14CHL1    H8  977   1.690   3.769   9.789 -2.0539 -2.9626 -0.8785
   14CHL1   C14  978   1.799   3.648   9.649  0.2289 -0.0730 -0.3758
   14CHL1   H14  979   1.885   3.578   9.659  1.2311  1.2486  0.5387
   14CHL1   C15  980   1.838   3.769   9.550  0.0909  0.6930 -0.3608
   14CHL1  H15A  981   1.780   3.862   9.569  1.9258  1.6925  0.5762
   14CHL1  H15B  982   1.944   3.800   9.563 -0.1999  2.6865 -2.2670
   14CHL1   C16  983   1.816   3.704   9.412  0.7793 -0.7392 -0.3321
   14CHL1  H16A  984   1.757   3.781   9.357  0.6650 -0.4041  0.2441
   14CHL1  H16B  985   1.909   3.672   9.361  1.0801 -1.5118  0.6708
   14CHL1   C17  986   1.738   3.570   9.434 -0.7164  0.0701  0.1837
   14CHL1   H17  987   1.808   3.485   9.428 -1.8957 -1.2168  2.7813
   14CHL1   C13  988   1.687   3.571   9.581  0.5908 -0.1222 -0.2062
   14CHL1   C18  989   1.566   3.667   9.580  0.4870  0.0362  0.4488
   14CHL1  H18A  990   1.534   3.701   9.681 -2.4154  0.8933 -0.6466
   14CHL1  H18B  991   1.589   3.761   9.525  1.3037  0.8293  2.0976
   14CHL1  H18C  992   1.473   3.618   9.542 -0.1529  2.4558 -1.3419
   14CHL1   C12  993   1.672   3.438   9.653  0.0407  0.4125  0.2748
   14CHL1  H12A  994   1.603   3.363   9.609  2.9276 -1.3238 -1.5792
   14CHL1  H12B  995   1.775   3.397   9.646  0.0946  0.6855 -0.7301
   14CHL1   C11  996   1.647   3.444   9.802  0.4759 -0.0766 -0.5840
   14CHL1  H11A  997   1.537   3.458   9.807  0.6271  0.8959  0.3069
   14CHL1  H11B  998   1.676   3.350   9.855  2.6111 -0.1394 -1.7839
   14CHL1    C9  999   1.737   3.559   9.872 -0.0943 -0.5546  0.1706
   14CHL1    H9 1000   1.838   3.517   9.890 -0.1034 -0.6670 -0.0526
   14CHL1   C10 1001   1.695   3.595  10.021 -0.0748  0.2931  0.4217
   14CHL1   C19 1002   1.551   3.643  10.026 -1.3122  0.5377  0.0282
   14CHL1  H19A 1003   1.534   3.728   9.957  0.9659  1.5430  0.6118
   14CHL1  H19B 1004   1.487   3.557   9.997 -1.1459 -0.0416  1.2816
   14CHL1  H19C 1005   1.520   3.669  10.130 -0.3649  2.2874 -0.0853
   14CHL1    C1 1006   1.701   3.467  10.110 -0.2559 -0.1272 -0.0990
   14CHL1   H1A 1007   1.613   3.404  10.085 -1.7329  1.3562  1.1285
   14CHL1   H1B 1008   1.803   3.429  10.090  0.4427  1.9841 -0.8654
   14CHL1    C2 1009   1.693   3.492  10.262  0.2779 -0.2657  0.4918
   14CHL1   H2A 1010   1.719   3.400  10.318 -0.3835  0.4394  2.0018
   14CHL1   H2B 1011   1.587   3.507  10.290  0.1365 -0.9385  0.3334
   14CHL1   C20 1012   1.637   3.550   9.321 -0.3697 -0.1798  0.9689
   14CHL1   H20 1013   1.561   3.631   9.318  0.1661  0.2907 -0.5814
   14CHL1   C21 1014   1.559   3.427   9.344  0.0111 -0.4877 -0.4414
   14CHL1  H21A 1015   1.486   3.426   9.259 -0.6382  0.1753  0.0915
   14CHL1  H21B 1016   1.500   3.423   9.438 -1.2592  0.9158 -1.1303
   14CHL1  H21C 1017   1.625   3.338   9.331  0.6795 -0.2676  1.1830
   14CHL1   C22 1018   1.698   3.550   9.178 -0.0783 -0.4735 -0.1475
   14CHL1  H22A 1019   1.708   3.658   9.154  0.3893 -0.8356 -1.7185
   14CHL1  H22B 1020   1.791   3.491   9.194  0.4114  0.0076 -1.1549
   14CHL1   C23 1021   1.617   3.486   9.065 -0.1578  0.7657 -0.4882
   14CHL1  H23A 1022   1.602   3.378   9.087  1.3746  0.7911  0.9413
   14CHL1  H23B 1023   1.521   3.542   9.063  0.2701  1.5047 -0.5701
   14CHL1   C24 1024   1.679   3.500   8.921 -0.1470 -0.3215 -0.9830
   14CHL1  H24A 1025   1.698   3.608   8.903  1.1766 -0.3488  0.1358
   14CHL1  H24B 1026   1.775   3.444   8.926 -0.2301 -0.3726  0.4777
   14CHL1   C25 1027   1.591   3.439   8.810 -0.1486  0.2458  0.1849
   14CHL1   H25 1028   1.584   3.329   8.824 -0.3724  0.2330 -0.0343
   14CHL1   C26 1029   1.453   3.504   8.787 -0.4823  0.0630 -0.2033
   14CHL1  H26A 1030   1.385   3.486   8.873 -1.5334 -2.1200 -1.4006
   14CHL1  H26B 1031   1.460   3.614   8.778 -0.4437  0.1404  0.6551
   14CHL1  H26C 1032   1.405   3.466   8.694 -2.6338  1.8283  0.1066
   14CHL1   C27 1033   1.662   3.443   8.667  0.0654  0.3645  0.0303
   14CHL1  H27A 1034   1.611   3.387   8.586  0.4650 -1.0074  0.6944
   14CHL1  H27B 1035   1.673   3.550   8.640  2.5495 -0.0272 -0.7890
   14CHL1  H27C 1036   1.761   3.393   8.678 -0.1966 -0.5771 -1.6019
   15CHL1    C3 1037   0.896   1.955  10.001  0.3240  0.0414 -0.4516
   15CHL1    H3 1038   0.927   2.062   9.991  1.2844 -0.3530 -2.0473
   15CHL1    O3 1039   0.886   1.930  10.140 -0.8558 -0.0943 -0.0387
   15CHL1   H3' 1040   0.979   1.926  10.166 -1.2541  1.4358  1.8273
   15CHL1    C4 1041   0.754   1.934   9.939 -0.7262 -0.2991 -0.1875
   15CHL1   H4A 1042   0.732   1.828   9.964 -2.1057 -0.3301 -1.3754
   15CHL1   H4B 1043   0.691   1.999  10.002  0.1223 -1.5784  2.1109
   15CHL1    C5 1044   0.752   1.945   9.788  0.4741 -0.1098  0.0270
   15CHL1    C6 1045   0.667   2.029   9.728  0.2684  0.4090 -0.0990
   15CHL1    H6 1046   0.594   2.076   9.796  0.0254 -0.7809  0.5030
   15CHL1    C7 1047   0.657   2.036   9.580  0.6703  0.1501 -0.3638
   15CHL1   H7A 1048   0.552   2.046   9.547  1.0383 -2.2074 -2.5542
   15CHL1   H7B 1049   0.711   2.129   9.553 -0.0461  0.6098 -0.2379
   15CHL1    C8 1050   0.731   1.923   9.504  0.4725  0.6042 -0.2856
   15CHL1    H8 1051   0.675   1.829   9.524 -1.1057  1.2802 -1.2720
   15CHL1   C14 1052   0.729   1.939   9.353 -0.0081 -0.1906 -0.2424
   15CHL1   H14 1053   0.777   2.037   9.332  0.4609 -0.8686 -2.6091
   15CHL1   C15 1054   0.600   1.957   9.278 -0.4056 -0.7785 -0.0036
   15CHL1  H15A 1055   0.521   1.886   9.313 -0.0535 -0.0465  2.5027
   15CHL1  H15B 1056   0.562   2.059   9.298  0.5638 -0.6437  1.3028
   15CHL1   C16 1057   0.626   1.921   9.130 -0.0807  0.3762 -0.7362
   15CHL1  H16A 1058   0.554   1.844   9.095  1.2357 -1.2492  0.0546
   15CHL1  H16B 1059   0.618   2.014   9.068  0.7343  1.5027  0.7943
   15CHL1   C17 1060   0.774   1.873   9.126 -0.0160  0.3449 -0.7846
   15CHL1   H17 1061   0.835   1.963   9.103  0.4617  0.8543  2.1265
   15CHL1   C13 1062   0.814   1.837   9.272 -0.2722  0.7347  0.3146
   15CHL1   C18 1063   0.767   1.689   9.294 -0.1205  0.6925 -0.2261
   15CHL1  H18A 1064   0.676   1.667   9.234  1.0529  0.7608 -2.1358
   15CHL1  H18B 1065   0.850   1.627   9.253  1.8055  2.6667  0.5032
   15CHL1  H18C 1066   0.755   1.652   9.398  0.7798 -0.8541 -0.6236
   15CHL1   C12 1067   0.957   1.861   9.303  0.0618  0.1767 -0.4352
   15CHL1  H12A 1068   1.029   1.800   9.244  1.4041 -0.4766  1.7509
   15CHL1  H12B 1069   0.984   1.966   9.279 -1.0525  0.7841  0.8301
   15CHL1   C11 1070   0.976   1.832   9.461  0.1401 -0.1439 -0.2705
   15CHL1  H11A 1071   0.971   1.721   9.470  2.0285 -0.3409 -1.0983
   15CHL1  H11B 1072   1.079   1.857   9.493 -0.0197  3.6958 -2.1935
   15CHL1    C9 1073   0.870   1.905   9.550 -0.1255  0.1594 -0.8881
   15CHL1    H9 1074   0.895   2.013   9.553 -1.6395  0.5134  2.3100
   15CHL1   C10 1075   0.859   1.870   9.707 -0.1970  0.2178  0.1277
   15CHL1   C19 1076   0.843   1.715   9.716 -0.2266 -0.0753  0.6969
   15CHL1  H19A 1077   0.752   1.670   9.670  0.6544 -0.3993 -0.7883
   15CHL1  H19B 1078   0.923   1.666   9.656 -1.4807 -0.9842 -0.2886
   15CHL1  H19C 1079   0.847   1.691   9.825 -0.7626  1.5790  1.0939
   15CHL1    C1 1080   0.997   1.906   9.782  0.6994 -0.2938 -0.1122
   15CHL1   H1A 1081   1.072   1.849   9.724  1.9422 -0.2037  1.3299
   15CHL1   H1B 1082   1.027   2.013   9.774 -1.3737  0.4011  0.6492
   15CHL1    C2 1083   0.999   1.868   9.934 -0.0172  0.0818  0.0624
   15CHL1   H2A 1084   1.102   1.886   9.972  0.3853 -1.3835 -0.2650
   15CHL1   H2B 1085   0.977   1.761   9.956 -2.1939 -0.3223 -3.3928
   15CHL1   C20 1086   0.797   1.769   9.019  0.5120  0.0261 -0.2531
   15CHL1   H20 1087   0.735   1.681   9.045  0.5414  0.2559  0.6643
   15CHL1   C21 1088   0.944   1.722   9.012 -0.4854  0.4156  0.5476
   15CHL1  H21A 1089   0.964   1.667   8.918 -2.2501  0.5345  0.0631
   15CHL1  H21B 1090   0.977   1.653   9.092  1.6477  0.2790 -0.3846
   15CHL1  H21C 1091   1.018   1.805   9.013  0.2771 -0.1935 -1.1635
   15CHL1   C22 1092   0.757   1.815   8.877 -0.7948  0.0474  0.0605
   15CHL1  H22A 1093   0.771   1.732   8.804  1.1555  0.4543 -0.0878
   15CHL1  H22B 1094   0.653   1.853   8.884 -0.4316  0.8121  1.6650
   15CHL1   C23 1095   0.845   1.924   8.809  0.1413  0.0573 -0.0547
   15CHL1  H23A 1096   0.859   2.008   8.881  1.8536  1.1757 -1.5892
   15CHL1  H23B 1097   0.937   1.865   8.790 -0.7118 -1.4704  0.3933
   15CHL1   C24 1098   0.791   1.981   8.674  0.4767 -0.3102 -0.6556
   15CHL1  H24A 1099   0.730   1.906   8.620  1.8824 -2.3918  0.5342
   15CHL1  H24B 1100   0.710   2.049   8.710  1.0244 -0.4127  0.8459
   15CHL1   C25 1101   0.866   2.070   8.579 -0.4377 -0.4085  0.2508
   15CHL1   H25 1102   0.951   2.012   8.537 -0.6812 -0.6027  0.0185
   15CHL1   C26 1103   0.775   2.133   8.480 -0.5522  0.6467  0.9372
   15CHL1  H26A 1104   0.727   2.051   8.421  1.4734 -1.3672  1.9422
   15CHL1  H26B 1105   0.700   2.197   8.531 -0.6112  0.7653  0.7042
   15CHL1  H26C 1106   0.837   2.191   8.408 -1.2084  1.8136  1.2989
   15CHL1   C27 1107   0.943   2.178   8.664  0.3371 -0.0710  0.4001
   15CHL1  H27A 1108   0.884   2.222   8.748  1.3616 -0.2538  1.2299
   15CHL1  H27B 1109   1.046   2.143   8.684  0.1771 -0.6243  0.2745
   15CHL1  H27C 1110   0.959   2.264   8.595 -3.0225 -0.7755 -1.4545
   16CHL1    C3 1111   2.794   3.737  10.377  0.4527  0.3926  0.1255
   16CHL1    H3 1112   2.859   3.647  10.378 -0.2165 -0.0900  0.4067
   16CHL1    O3 1113   2.773   3.761  10.513  0.5072 -0.7306  0.5329
   16CHL1   H3' 1114   2.731   3.681  10.545 -1.5279 -0.2060 -0.6204
   16CHL1    C4 1115   2.880   3.853  10.310  0.2779  0.4766 -0.3003
   16CHL1   H4A 1116   2.847   3.950  10.355  4.5729  1.3368  1.4739
   16CHL1   H4B 1117   2.985   3.846  10.345  0.5011  1.7214 -0.6664
   16CHL1    C5 1118   2.877   3.856  10.159  0.5738  0.5376 -0.5879
   16CHL1    C6 1119   2.989   3.859  10.088  0.3684  0.0310  0.3645
   16CHL1    H6 1120   3.079   3.872  10.149  1.4257 -0.8114 -0.9484
   16CHL1    C7 1121   2.995   3.882   9.937 -0.6081  0.8903 -0.5342
   16CHL1   H7A 1122   3.080   3.951   9.916  0.8291  0.7394  3.6730
   16CHL1   H7B 1123   3.025   3.789   9.884 -0.1564  0.8559 -0.2308
   16CHL1    C8 1124   2.852   3.919   9.887  0.3064 -0.1107  0.4426
   16CHL1    H8 1125   2.835   4.023   9.923  1.5751  1.1003 -2.1690
   16CHL1   C14 1126   2.854   3.906   9.736  0.2662 -0.0102  0.3508
   16CHL1   H14 1127   2.869   3.798   9.714  1.0900  0.6166 -2.6337
   16CHL1   C15 1128   2.967   3.986   9.667  0.4257 -0.3748 -0.0609
   16CHL1  H15A 1129   2.969   4.085   9.719 -0.4936 -1.9100  3.1303
   16CHL1  H15B 1130   3.071   3.948   9.679  1.0307  1.0559 -0.4006
   16CHL1   C16 1131   2.915   4.000   9.523  0.2669  0.2323  0.5879
   16CHL1  H16A 1132   2.912   4.107   9.493  1.5227 -0.9158 -4.5344
   16CHL1  H16B 1133   2.975   3.937   9.454 -2.7360 -1.4571 -0.6836
   16CHL1   C17 1134   2.765   3.937   9.520  0.9185  0.2089  0.1865
   16CHL1   H17 1135   2.765   3.829   9.496 -0.2290 -0.2588  2.0854
   16CHL1   C13 1136   2.723   3.946   9.663  0.6723 -0.5589 -0.4277
   16CHL1   C18 1137   2.682   4.089   9.702  0.4651 -0.0884 -0.4622
   16CHL1  H18A 1138   2.684   4.108   9.811 -0.7498  0.6205 -0.5458
   16CHL1  H18B 1139   2.744   4.167   9.654 -2.1852  1.8951 -0.9353
   16CHL1  H18C 1140   2.576   4.107   9.672  0.2718 -0.6917 -0.1691
   16CHL1   C12 1141   2.621   3.839   9.710 -0.1504 -0.2825 -0.5212
   16CHL1  H12A 1142   2.517   3.845   9.671 -0.2711  1.1915 -0.0451
   16CHL1  H12B 1143   2.661   3.744   9.668  0.6629 -0.0714 -0.2492
   16CHL1   C11 1144   2.612   3.841   9.867  0.1770  0.2401 -0.5207
   16CHL1  H11A 1145   2.555   3.934   9.890 -1.2477 -0.8647  0.5993
   16CHL1  H11B 1146   2.557   3.752   9.903  2.0513 -0.1427  1.5460
   16CHL1    C9 1147   2.742   3.827   9.941 -0.4753 -0.2441  0.1563
   16CHL1    H9 1148   2.777   3.724   9.922  1.1341  0.5873 -1.7742
   16CHL1   C10 1149   2.735   3.845  10.094  0.1998  0.3022  0.1836
   16CHL1   C19 1150   2.645   3.963  10.139  0.4175  0.1440  0.8182
   16CHL1  H19A 1151   2.659   3.975  10.248  3.7678 -0.1646  0.5344
   16CHL1  H19B 1152   2.663   4.051  10.074 -1.4542 -2.4696 -3.7618
   16CHL1  H19C 1153   2.537   3.951  10.117  1.1303  1.1720 -5.0796
   16CHL1    C1 1154   2.672   3.715  10.155 -0.3318 -0.0778  0.6473
   16CHL1   H1A 1155   2.570   3.690  10.120 -1.0958  2.6008  0.7147
   16CHL1   H1B 1156   2.722   3.621  10.125 -1.7442 -1.3144  1.9748
   16CHL1    C2 1157   2.658   3.718  10.305 -0.2037 -0.3670 -0.0383
   16CHL1   H2A 1158   2.619   3.623  10.347  0.2564 -0.1542  0.8983
   16CHL1   H2B 1159   2.579   3.789  10.336  1.4145  0.3374  2.7846
   16CHL1   C20 1160   2.679   4.000   9.402 -0.0884  0.0702 -0.4746
   16CHL1   H20 1161   2.697   4.110   9.392 -0.8772  0.2701  0.1675
   16CHL1   C21 1162   2.529   3.981   9.432 -0.3790  0.0239  0.1178
   16CHL1  H21A 1163   2.517   3.875   9.461  0.5895 -0.6757 -1.8579
   16CHL1  H21B 1164   2.475   3.981   9.335  0.5177 -2.9312 -0.4688
   16CHL1  H21C 1165   2.486   4.051   9.507 -1.5959  1.3480 -1.7230
   16CHL1   C22 1166   2.713   3.929   9.274 -0.9453  0.2084  0.3305
   16CHL1  H22A 1167   2.824   3.920   9.274 -1.0379 -1.3833  1.3598
   16CHL1  H22B 1168   2.667   3.828   9.282 -2.8285  0.8669 -1.4393
   16CHL1   C23 1169   2.669   3.989   9.146 -0.2388 -0.2116  0.7943
   16CHL1  H23A 1170   2.578   3.932   9.116  1.0959 -0.4546 -3.6005
   16CHL1  H23B 1171   2.632   4.093   9.153  1.1683  0.2918  1.0899
   16CHL1   C24 1172   2.759   3.967   9.020  0.3547 -0.0693 -0.1574
   16CHL1  H24A 1173   2.860   4.004   9.048  0.6342  0.7756 -2.0959
   16CHL1  H24B 1174   2.757   3.857   9.003 -3.6159 -0.5614  2.1943
   16CHL1   C25 1175   2.704   4.028   8.892 -0.2465 -0.0201 -0.1875
   16CHL1   H25 1176   2.669   4.130   8.920 -1.5550 -0.4994  0.0064
   16CHL1   C26 1177   2.816   4.057   8.779  0.1152 -0.0668  0.0138
   16CHL1  H26A 1178   2.770   4.094   8.685  2.0171 -0.6404 -1.2074
   16CHL1  H26B 1179   2.877   4.138   8.824 -2.1466  2.3723 -1.0768
   16CHL1  H26C 1180   2.873   3.966   8.751  1.6393  1.1457 -0.9358
   16CHL1   C27 1181   2.591   3.944   8.834 -0.5218 -0.2915  0.1683
   16CHL1  H27A 1182   2.619   3.840   8.806 -2.2492 -1.5547  2.6797
   16CHL1  H27B 1183   2.516   3.940   8.916  2.8258  0.1381  3.5209
   16CHL1  H27C 1184   2.561   3.997   8.741  1.9558  1.1378  0.1250
   17CHL1    C3 1185   5.719   6.663  10.144  0.1264 -0.0941 -0.1141
   17CHL1    H3 1186   5.774   6.755  10.116  2.1529 -1.4776 -0.9773
   17CHL1    O3 1187   5.759   6.616  10.270  0.5169 -0.3729 -0.3918
   17CHL1   H3' 1188   5.849   6.586  10.251  0.8663  1.0175 -1.0767
   17CHL1    C4 1189   5.565   6.705  10.138  0.2222 -0.1331 -0.3332
   17CHL1   H4A 1190   5.512   6.620  10.185 -0.3008 -0.5845 -1.6918
   17CHL1   H4B 1191   5.552   6.781  10.218 -1.0094  0.2711 -0.9069
   17CHL1    C5 1192   5.507   6.745  10.006 -0.5791 -0.9173  0.6066
   17CHL1    C6 1193   5.438   6.864   9.985 -0.1794  0.3292 -0.1646
   17CHL1    H6 1194   5.420   6.936  10.067  3.1563  1.1880 -0.0392
   17CHL1    C7 1195   5.376   6.894   9.853  0.4656  0.5071 -0.0529
   17CHL1   H7A 1196   5.269   6.913   9.876  1.3561  4.2175  1.7883
   17CHL1   H7B 1197   5.414   6.986   9.804 -3.1874  1.6516 -1.1118
   17CHL1    C8 1198   5.391   6.784   9.740 -0.6829 -0.2260 -0.5520
   17CHL1    H8 1199   5.304   6.718   9.760 -1.3607  0.6850 -0.4288
   17CHL1   C14 1200   5.375   6.855   9.610  0.0647 -0.4163  0.2949
   17CHL1   H14 1201   5.465   6.920   9.603  0.3262 -0.7727  0.3356
   17CHL1   C15 1202   5.251   6.950   9.594  0.1872 -0.5878 -0.4411
   17CHL1  H15A 1203   5.164   6.891   9.630  0.0517 -1.6307 -2.3622
   17CHL1  H15B 1204   5.260   7.042   9.655  0.4069 -2.6349  2.8709
   17CHL1   C16 1205   5.249   6.970   9.444 -0.5278 -0.1726 -0.4110
   17CHL1  H16A 1206   5.144   6.956   9.409 -1.1864  0.9568  1.0148
   17CHL1  H16B 1207   5.248   7.079   9.421 -0.3248 -0.2661 -0.8656
   17CHL1   C17 1208   5.350   6.867   9.386 -1.0518  0.0891 -0.0288
   17CHL1   H17 1209   5.443   6.925   9.370 -1.3485  0.2940 -1.0829
   17CHL1   C13 1210   5.379   6.761   9.495 -0.2665 -0.1883  0.0758
   17CHL1   C18 1211   5.253   6.663   9.490  0.2814  0.1689  0.7979
   17CHL1  H18A 1212   5.263   6.581   9.417 -1.6882 -1.2356  1.9975
   17CHL1  H18B 1213   5.233   6.623   9.592  1.8672  1.2882  1.5793
   17CHL1  H18C 1214   5.165   6.728   9.467  0.1577 -0.1275  0.4256
   17CHL1   C12 1215   5.514   6.694   9.500 -0.8089  0.0806  0.2696
   17CHL1  H12A 1216   5.530   6.616   9.422 -0.4950  0.9192 -0.5280
   17CHL1  H12B 1217   5.594   6.769   9.491  0.3371 -0.9369  1.6474
   17CHL1   C11 1218   5.532   6.618   9.631 -0.3770 -0.1865 -0.0786
   17CHL1  H11A 1219   5.447   6.547   9.629 -4.1660  3.8775 -3.3326
   17CHL1  H11B 1220   5.626   6.559   9.640  0.1026  0.8122  2.2522
   17CHL1    C9 1221   5.521   6.714   9.750 -0.6230 -0.3077  0.3607
   17CHL1    H9 1222   5.596   6.795   9.738  0.2899 -1.1665  0.1079
   17CHL1   C10 1223   5.543   6.650   9.889 -0.4929  0.2461  0.2204
   17CHL1   C19 1224   5.463   6.518   9.893  0.0384  0.4909  0.2225
   17CHL1  H19A 1225   5.357   6.539   9.866  0.1599 -1.3066 -1.8868
   17CHL1  H19B 1226   5.507   6.443   9.824  2.8659  1.8940  0.3847
   17CHL1  H19C 1227   5.450   6.472   9.993  0.9454  0.9777  0.5755
   17CHL1    C1 1228   5.695   6.618   9.897 -0.3800  0.0908 -0.3243
   17CHL1   H1A 1229   5.719   6.545   9.817 -0.8959  0.1347 -0.5242
   17CHL1   H1B 1230   5.754   6.707   9.865 -0.6640  0.1536 -0.6955
   17CHL1    C2 1231   5.748   6.561  10.036  0.1959 -0.6127 -0.1614
   17CHL1   H2A 1232   5.851   6.522  10.019  2.0237  2.8755  1.7402
   17CHL1   H2B 1233   5.696   6.467  10.064 -0.7810  0.3438  1.4006
   17CHL1   C20 1234   5.332   6.826   9.237 -0.5417  0.4206  0.7956
   17CHL1   H20 1235   5.235   6.772   9.227  0.3135 -0.7693 -2.6238
   17CHL1   C21 1236   5.442   6.738   9.187 -0.4613 -0.1932  0.0432
   17CHL1  H21A 1237   5.459   6.644   9.244  0.3433 -0.6238 -0.8696
   17CHL1  H21B 1238   5.528   6.807   9.199 -0.6768  0.4603 -1.8629
   17CHL1  H21C 1239   5.436   6.705   9.081 -1.0867  0.9952 -0.3122
   17CHL1   C22 1240   5.306   6.948   9.140 -0.2878 -0.1057 -0.2668
   17CHL1  H22A 1241   5.225   7.012   9.182  0.3735  1.5737 -1.4257
   17CHL1  H22B 1242   5.400   7.007   9.128 -1.6761  1.8190 -2.5876
   17CHL1   C23 1243   5.251   6.917   8.997 -0.4772  0.1187 -0.0224
   17CHL1  H23A 1244   5.320   6.862   8.930 -0.5653  0.2471 -0.2202
   17CHL1  H23B 1245   5.162   6.850   9.005 -0.0826 -0.2266  2.3702
   17CHL1   C24 1246   5.199   7.046   8.921  0.5631 -0.3491 -0.1078
   17CHL1  H24A 1247   5.134   7.109   8.987  1.0410 -0.0013  0.0349
   17CHL1  H24B 1248   5.282   7.104   8.875 -0.8652  0.3476 -1.9362
   17CHL1   C25 1249   5.117   7.014   8.794 -0.3985 -0.1131 -0.5975
   17CHL1   H25 1250   5.018   6.973   8.824 -1.6112  1.1739 -2.5768
   17CHL1   C26 1251   5.100   7.143   8.716  0.0632  0.2650 -0.2497
   17CHL1  H26A 1252   5.026   7.216   8.754  1.4826  1.3388  0.5800
   17CHL1  H26B 1253   5.200   7.190   8.702  1.0704 -1.6098  0.2210
   17CHL1  H26C 1254   5.067   7.120   8.612 -1.1942 -0.4067  0.2749
   17CHL1   C27 1255   5.176   6.901   8.710 -0.2046  0.6013  0.0692
   17CHL1  H27A 1256   5.124   6.876   8.615 -3.4016 -2.4428  2.3746
   17CHL1  H27B 1257   5.285   6.922   8.701 -0.2208  1.0646  0.9162
   17CHL1  H27C 1258   5.178   6.813   8.777 -0.5208  0.3500 -0.2486
   18CHL1    C3 1259   4.496   3.397   9.931 -0.0001 -0.4937 -0.3589
   18CHL1    H3 1260   4.539   3.490   9.889  0.0700 -1.0145 -1.4880
   18CHL1    O3 1261   4.478   3.412  10.070 -0.0316 -0.0011 -0.2369
   18CHL1   H3' 1262   4.439   3.327  10.095  0.7007 -0.5439 -0.8950
   18CHL1    C4 1263   4.365   3.366   9.861  0.6840  0.4487 -0.6599
   18CHL1   H4A 1264   4.309   3.281   9.905 -0.1647  0.2840 -2.0055
   18CHL1   H4B 1265   4.292   3.448   9.882  1.2464  0.5269  1.1562
   18CHL1    C5 1266   4.369   3.344   9.714 -0.0894  0.6642  0.1880
   18CHL1    C6 1267   4.290   3.416   9.635 -0.1950  0.4198  0.1207
   18CHL1    H6 1268   4.226   3.490   9.686 -0.9618  0.3138 -0.6555
   18CHL1    C7 1269   4.295   3.408   9.485 -0.1649 -0.0033 -0.1660
   18CHL1   H7A 1270   4.191   3.383   9.454 -0.9283  0.9495  1.5234
   18CHL1   H7B 1271   4.323   3.511   9.454  1.2282  0.8050  3.3417
   18CHL1    C8 1272   4.382   3.297   9.424 -0.6856  0.6142  0.6878
   18CHL1    H8 1273   4.319   3.206   9.430 -1.3655  1.0982  1.0280
   18CHL1   C14 1274   4.430   3.331   9.283 -0.0838 -0.0824  0.0818
   18CHL1   H14 1275   4.512   3.406   9.283  0.9612 -1.0534 -3.3325
   18CHL1   C15 1276   4.332   3.383   9.178  0.0068  0.2789 -0.3400
   18CHL1  H15A 1277   4.232   3.348   9.211 -0.9499  3.4837  0.5007
   18CHL1  H15B 1278   4.328   3.494   9.173  1.5958  0.4310  0.8657
   18CHL1   C16 1279   4.370   3.315   9.047 -0.0842 -0.4379 -0.2414
   18CHL1  H16A 1280   4.288   3.249   9.012 -1.1575 -0.6107  2.3789
   18CHL1  H16B 1281   4.375   3.393   8.968 -1.3188 -0.0425  0.0365
   18CHL1   C17 1282   4.501   3.243   9.063  0.2632  0.4555  0.2876
   18CHL1   H17 1283   4.579   3.321   9.049  0.2902  0.4906  0.6083
   18CHL1   C13 1284   4.497   3.201   9.219  0.2471 -0.1928  0.3470
   18CHL1   C18 1285   4.394   3.081   9.227  0.3014  0.5409 -0.4104
   18CHL1  H18A 1286   4.383   3.045   9.332  2.5049 -0.8880 -0.5985
   18CHL1  H18B 1287   4.295   3.112   9.187 -0.7556 -1.1593  0.7560
   18CHL1  H18C 1288   4.421   2.990   9.169 -1.6681 -1.1786  1.2015
   18CHL1   C12 1289   4.631   3.187   9.293  1.5045 -0.2996 -0.0820
   18CHL1  H12A 1290   4.692   3.111   9.240 -0.1027 -0.4563 -1.8156
   18CHL1  H12B 1291   4.693   3.279   9.283 -1.0379  1.6076  0.6598
   18CHL1   C11 1292   4.600   3.166   9.441  0.0887 -0.4007 -0.8993
   18CHL1  H11A 1293   4.549   3.069   9.459 -1.6953  0.4006 -1.4180
   18CHL1  H11B 1294   4.691   3.159   9.504 -1.4176 -0.0307  1.4518
   18CHL1    C9 1295   4.504   3.274   9.509 -0.0225  0.3111  0.2722
   18CHL1    H9 1296   4.557   3.371   9.516 -0.9601  0.8322  0.2779
   18CHL1   C10 1297   4.478   3.244   9.662  0.4419 -0.3433  0.6639
   18CHL1   C19 1298   4.419   3.091   9.680  0.1296 -0.3056  0.1584
   18CHL1  H19A 1299   4.368   3.070   9.776 -2.5125  1.5722 -0.7322
   18CHL1  H19B 1300   4.339   3.084   9.604  1.2025 -1.2264 -0.9277
   18CHL1  H19C 1301   4.500   3.018   9.658 -1.3994 -2.0258  0.0220
   18CHL1    C1 1302   4.611   3.268   9.747  0.1161 -0.1100  0.2172
   18CHL1   H1A 1303   4.669   3.174   9.736 -0.4784 -0.5737  0.9790
   18CHL1   H1B 1304   4.677   3.351   9.715  1.4645 -1.5786 -0.9790
   18CHL1    C2 1305   4.593   3.279   9.900  0.6016 -0.0436  0.3305
   18CHL1   H2A 1306   4.694   3.310   9.934  1.3017 -1.0482 -0.7197
   18CHL1   H2B 1307   4.564   3.184   9.949  1.1633 -0.2825  0.2103
   18CHL1   C20 1308   4.524   3.135   8.959  0.4202 -0.2820  0.0330
   18CHL1   H20 1309   4.452   3.056   8.985 -2.5568  2.0197 -0.6614
   18CHL1   C21 1310   4.664   3.071   8.975  0.5175 -0.2418 -0.8378
   18CHL1  H21A 1311   4.693   3.022   8.880  1.3396 -2.7206  0.6263
   18CHL1  H21B 1312   4.666   3.001   9.061 -2.3913  0.0949 -0.3712
   18CHL1  H21C 1313   4.741   3.151   8.981  1.1120 -0.6882 -2.1879
   18CHL1   C22 1314   4.506   3.167   8.808  0.5437 -0.6976 -0.3145
   18CHL1  H22A 1315   4.501   3.068   8.758 -1.8099 -0.3415 -0.9220
   18CHL1  H22B 1316   4.408   3.215   8.788  1.1618  0.2149 -1.2579
   18CHL1   C23 1317   4.611   3.267   8.770 -0.7960 -0.4607  0.0879
   18CHL1  H23A 1318   4.610   3.347   8.847  1.1245  0.5424 -0.8347
   18CHL1  H23B 1319   4.713   3.222   8.770 -0.2282  0.7725  0.7153
   18CHL1   C24 1320   4.587   3.335   8.635 -0.3103 -0.3506  0.1694
   18CHL1  H24A 1321   4.597   3.257   8.557  0.7508  2.8656 -3.2158
   18CHL1  H24B 1322   4.487   3.385   8.632  0.7134  1.9732  1.4713
   18CHL1   C25 1323   4.683   3.454   8.604 -0.2200 -0.1344  0.3892
   18CHL1   H25 1324   4.691   3.523   8.690 -0.7467  2.5217 -1.5493
   18CHL1   C26 1325   4.820   3.407   8.555 -0.1155 -0.5901 -0.7102
   18CHL1  H26A 1326   4.813   3.350   8.460 -0.1797  1.1987 -1.8246
   18CHL1  H26B 1327   4.895   3.486   8.538  1.8153 -2.2997 -0.5643
   18CHL1  H26C 1328   4.854   3.342   8.638  0.8686 -0.6064 -1.1128
   18CHL1   C27 1329   4.632   3.537   8.489  0.5275  0.4557  0.3158
   18CHL1  H27A 1330   4.544   3.604   8.502 -0.9972 -1.2602 -0.6156
   18CHL1  H27B 1331   4.718   3.597   8.451  0.4244  0.1753 -0.3818
   18CHL1  H27C 1332   4.599   3.467   8.409  0.6088 -0.0038  0.6807
   19CHL1    C3 1333   2.692   1.285  10.058 -0.0549 -0.6420 -0.5970
   19CHL1    H3 1334   2.679   1.394  10.073  1.2865 -0.3065 -1.6618
   19CHL1    O3 1335   2.728   1.214  10.173  0.2137  1.0364  0.0343
   19CHL1   H3' 1336   2.762   1.277  10.236  0.2333 -1.5132  2.8055
   19CHL1    C4 1337   2.550   1.233  10.025  0.2978 -0.2170 -0.1876
   19CHL1   H4A 1338   2.539   1.123  10.035  0.3058 -0.5006 -2.6999
   19CHL1   H4B 1339   2.497   1.281  10.110  0.2768 -0.8651  0.1712
   19CHL1    C5 1340   2.497   1.275   9.891 -0.6715  0.2851  0.2353
   19CHL1    C6 1341   2.383   1.343   9.870 -0.0568  0.7438 -0.1051
   19CHL1    H6 1342   2.333   1.378   9.961  4.5286  0.5176  2.7977
   19CHL1    C7 1343   2.324   1.371   9.736 -0.1996  0.8153 -0.1413
   19CHL1   H7A 1344   2.215   1.351   9.730  0.2234 -2.3590  1.1355
   19CHL1   H7B 1345   2.338   1.482   9.733 -2.3025  1.1365  0.4151
   19CHL1    C8 1346   2.400   1.298   9.623 -0.0173  0.5248 -0.6768
   19CHL1    H8 1347   2.363   1.193   9.620  1.1773  0.0931 -1.0273
   19CHL1   C14 1348   2.369   1.365   9.492 -0.4758  0.0507 -0.5160
   19CHL1   H14 1349   2.419   1.464   9.503 -1.3645  0.1566  4.5422
   19CHL1   C15 1350   2.223   1.398   9.473  0.1873 -0.2354  0.1596
   19CHL1  H15A 1351   2.159   1.317   9.513 -0.7175  0.7260  0.7270
   19CHL1  H15B 1352   2.177   1.484   9.526 -2.0766 -2.1305  1.4940
   19CHL1   C16 1353   2.208   1.427   9.320 -0.7197 -0.0225  0.4013
   19CHL1  H16A 1354   2.138   1.347   9.289  0.9050 -0.6548 -1.9509
   19CHL1  H16B 1355   2.169   1.529   9.298 -1.6070 -0.0263  1.8580
   19CHL1   C17 1356   2.351   1.400   9.261 -0.0386  0.0493  0.2077
   19CHL1   H17 1357   2.408   1.495   9.263 -1.0136  0.6313  1.3896
   19CHL1   C13 1358   2.420   1.304   9.361 -0.3326  0.6015 -0.0554
   19CHL1   C18 1359   2.359   1.163   9.348  0.0731  0.4091  0.1114
   19CHL1  H18A 1360   2.397   1.100   9.431 -0.8671 -0.6655 -0.2368
   19CHL1  H18B 1361   2.251   1.165   9.375 -0.1289  2.6991 -0.6554
   19CHL1  H18C 1362   2.391   1.110   9.255  0.9558 -1.6640  1.5210
   19CHL1   C12 1363   2.581   1.302   9.376  1.1533 -0.1997  0.2086
   19CHL1  H12A 1364   2.626   1.246   9.291 -0.0696  1.9064 -1.9550
   19CHL1  H12B 1365   2.604   1.409   9.359  0.4684 -0.3243 -1.8095
   19CHL1   C11 1366   2.629   1.248   9.512 -0.3138  0.3282 -0.1221
   19CHL1  H11A 1367   2.632   1.138   9.498  0.7009  0.5763 -2.2144
   19CHL1  H11B 1368   2.735   1.278   9.525 -0.1730  0.5676 -1.6534
   19CHL1    C9 1369   2.551   1.296   9.640  0.0078  0.2632 -0.2192
   19CHL1    H9 1370   2.573   1.405   9.647 -3.4507  1.0098  1.2643
   19CHL1   C10 1371   2.596   1.235   9.774  0.2564  0.4295  0.0237
   19CHL1   C19 1372   2.605   1.080   9.750 -0.2449 -0.2980 -0.4768
   19CHL1  H19A 1373   2.617   1.030   9.848  0.4334 -0.4609 -0.6384
   19CHL1  H19B 1374   2.511   1.053   9.697 -0.1003  1.7045 -1.8847
   19CHL1  H19C 1375   2.690   1.047   9.686 -0.4765  1.2638 -1.6642
   19CHL1    C1 1376   2.734   1.294   9.801 -1.0318 -0.2651 -0.7640
   19CHL1   H1A 1377   2.819   1.269   9.733  0.1574 -2.1035  1.2619
   19CHL1   H1B 1378   2.724   1.404   9.786  1.2490 -0.0528 -1.1763
   19CHL1    C2 1379   2.788   1.258   9.945 -0.0882 -0.2790  0.1067
   19CHL1   H2A 1380   2.885   1.307   9.970 -0.5631  0.5900  0.2725
   19CHL1   H2B 1381   2.800   1.147   9.940  0.5411 -0.2417  0.6887
   19CHL1   C20 1382   2.347   1.346   9.118 -0.4847 -0.4187 -0.5655
   19CHL1   H20 1383   2.277   1.260   9.115 -1.7075  0.5732 -2.1990
   19CHL1   C21 1384   2.488   1.291   9.070  0.2829 -0.1590 -0.2415
   19CHL1  H21A 1385   2.567   1.368   9.079 -3.2280  3.7413  0.7328
   19CHL1  H21B 1386   2.491   1.261   8.963 -0.1465  0.3452 -0.4038
   19CHL1  H21C 1387   2.510   1.197   9.125 -1.9033 -0.7707 -0.3106
   19CHL1   C22 1388   2.292   1.453   9.015  0.2618 -0.2044 -0.4279
   19CHL1  H22A 1389   2.201   1.499   9.057  0.6761 -0.6523  1.0468
   19CHL1  H22B 1390   2.370   1.531   9.003 -0.0998  0.5954  1.8739
   19CHL1   C23 1391   2.278   1.389   8.878  0.7745 -0.4567 -0.1627
   19CHL1  H23A 1392   2.382   1.375   8.843  1.5956  0.5620  1.7146
   19CHL1  H23B 1393   2.226   1.291   8.882 -1.8032  0.8366  3.9858
   19CHL1   C24 1394   2.205   1.486   8.784  1.4384 -0.1985  0.1326
   19CHL1  H24A 1395   2.101   1.506   8.817  1.6541 -0.5476  1.0660
   19CHL1  H24B 1396   2.261   1.583   8.783 -1.5418  1.6441 -0.1261
   19CHL1   C25 1397   2.190   1.428   8.636 -0.4710 -0.5071 -1.0761
   19CHL1   H25 1398   2.289   1.395   8.598  0.3373 -0.3103  0.7595
   19CHL1   C26 1399   2.098   1.304   8.637 -0.2312 -0.6781 -0.4768
   19CHL1  H26A 1400   1.993   1.330   8.660 -0.1230 -1.4002  0.8800
   19CHL1  H26B 1401   2.095   1.254   8.538 -1.8769  2.7324 -2.3264
   19CHL1  H26C 1402   2.134   1.234   8.715 -0.2377  0.6328  0.7586
   19CHL1   C27 1403   2.154   1.539   8.538  0.0691  0.0455  0.3008
   19CHL1  H27A 1404   2.043   1.545   8.546 -0.1362 -2.1331 -0.2961
   19CHL1  H27B 1405   2.205   1.636   8.558  1.2681 -0.2257 -1.2502
   19CHL1  H27C 1406   2.175   1.515   8.432 -2.1616  3.1611 -1.0197
   20CHL1    C3 1407   4.861   2.190  10.089  0.0071 -0.3368  0.1802
   20CHL1    H3 1408   4.968   2.181  10.062 -0.0323  1.8479 -0.9106
   20CHL1    O3 1409   4.846   2.218  10.229 -0.0615  0.0056  0.4098
   20CHL1   H3' 1410   4.754   2.241  10.243 -0.0670 -0.3291  0.9643
   20CHL1    C4 1411   4.800   2.318  10.024  0.5598 -0.0256 -0.0544
   20CHL1   H4A 1412   4.696   2.327  10.061  0.5417 -0.4417  0.0033
   20CHL1   H4B 1413   4.854   2.407  10.063  0.2790 -0.2964  0.9702
   20CHL1    C5 1414   4.809   2.311   9.873  0.2740  0.0979  0.0197
   20CHL1    C6 1415   4.875   2.405   9.794  0.6096 -0.0956 -0.7962
   20CHL1    H6 1416   4.918   2.490   9.849 -0.9198 -0.7553  1.5725
   20CHL1    C7 1417   4.884   2.405   9.641  0.8488  0.5345 -0.4100
   20CHL1   H7A 1418   4.856   2.501   9.593  1.1327  1.5874  1.4315
   20CHL1   H7B 1419   4.989   2.374   9.625  0.6904  0.0445 -0.5222
   20CHL1    C8 1420   4.777   2.309   9.581 -0.8259 -0.0393 -0.0129
   20CHL1    H8 1421   4.682   2.366   9.571  0.9442  3.2991  0.5291
   20CHL1   C14 1422   4.817   2.273   9.435 -0.1088  0.2987 -0.6390
   20CHL1   H14 1423   4.913   2.219   9.436 -0.5691 -0.5330 -0.9022
   20CHL1   C15 1424   4.844   2.389   9.337 -0.2325  0.1654  0.5413
   20CHL1  H15A 1425   4.758   2.458   9.349 -0.0355  0.4807  0.1536
   20CHL1  H15B 1426   4.943   2.428   9.370 -0.1844  0.8978 -0.4374
   20CHL1   C16 1427   4.865   2.321   9.201 -0.4676  0.3766 -1.1068
   20CHL1  H16A 1428   4.824   2.391   9.125  0.5627  0.2768 -1.7803
   20CHL1  H16B 1429   4.971   2.298   9.174 -0.3445  0.5151 -0.7533
   20CHL1   C17 1430   4.809   2.175   9.216 -0.4451  0.4658  0.4746
   20CHL1   H17 1431   4.890   2.101   9.228 -0.7517 -0.5116 -2.5268
   20CHL1   C13 1432   4.732   2.181   9.355  0.2555 -0.2653  0.2591
   20CHL1   C18 1433   4.593   2.244   9.326 -0.9709  0.5209  0.6548
   20CHL1  H18A 1434   4.599   2.338   9.267 -0.7203 -1.1091 -2.0605
   20CHL1  H18B 1435   4.544   2.163   9.269 -0.5935  0.8156 -0.1008
   20CHL1  H18C 1436   4.544   2.255   9.425 -0.0087  0.3580  1.1688
   20CHL1   C12 1437   4.723   2.043   9.434  0.1297  0.3098 -0.1823
   20CHL1  H12A 1438   4.652   1.972   9.387  0.5297 -0.8021  0.8544
   20CHL1  H12B 1439   4.825   1.999   9.425 -0.0064 -0.0795  0.1750
   20CHL1   C11 1440   4.689   2.064   9.581 -0.2251 -0.4620 -0.5493
   20CHL1  H11A 1441   4.583   2.098   9.583  0.2814  1.1773 -0.3954
   20CHL1  H11B 1442   4.703   1.960   9.619 -0.9516 -1.0308 -1.7628
   20CHL1    C9 1443   4.774   2.176   9.653 -0.1924 -0.9190 -0.2545
   20CHL1    H9 1444   4.877   2.136   9.645  0.1890 -0.6795  2.5911
   20CHL1   C10 1445   4.741   2.192   9.808 -0.2656 -0.1092  0.1074
   20CHL1   C19 1446   4.589   2.211   9.823  0.2856 -0.7258  0.1095
   20CHL1  H19A 1447   4.543   2.110   9.822  1.3533 -1.2414 -1.1812
   20CHL1  H19B 1448   4.553   2.263   9.914  2.0638  1.8958 -0.5699
   20CHL1  H19C 1449   4.561   2.278   9.738  2.6617 -0.0657 -0.2473
   20CHL1    C1 1450   4.786   2.057   9.887 -0.3066 -0.2875  0.7216
   20CHL1   H1A 1451   4.716   1.978   9.853 -0.1051 -0.3942  0.5465
   20CHL1   H1B 1452   4.891   2.045   9.851 -0.3390  0.2548  0.4451
   20CHL1    C2 1453   4.780   2.065  10.043  0.1531  0.4832 -0.0277
   20CHL1   H2A 1454   4.838   1.979  10.081 -0.2300  0.6179  0.9021
   20CHL1   H2B 1455   4.675   2.078  10.079  0.1286 -1.0561  0.4975
   20CHL1   C20 1456   4.726   2.125   9.089 -0.1816  0.1924  0.3383
   20CHL1   H20 1457   4.630   2.181   9.093 -0.6262 -0.4689 -0.6569
   20CHL1   C21 1458   4.708   1.973   9.107  0.3084  0.3976 -0.2613
   20CHL1  H21A 1459   4.804   1.929   9.142  0.5928  0.9555 -0.3341
   20CHL1  H21B 1460   4.690   1.930   9.006  4.3343  2.7656 -2.2407
   20CHL1  H21C 1461   4.630   1.956   9.184  1.9339  1.2574  1.6440
   20CHL1   C22 1462   4.804   2.156   8.958  0.5160 -0.0983 -0.1860
   20CHL1  H22A 1463   4.740   2.119   8.875 -0.4312 -2.4357  1.4551
   20CHL1  H22B 1464   4.823   2.265   8.952  0.3316 -0.1199 -1.5370
   20CHL1   C23 1465   4.933   2.078   8.931 -0.1677 -0.3021  0.1348
   20CHL1  H23A 1466   5.022   2.127   8.974 -1.2294  1.8510  0.0256
   20CHL1  H23B 1467   4.931   1.982   8.987 -1.8610 -1.4209 -1.7173
   20CHL1   C24 1468   4.962   2.041   8.784 -0.8674 -0.3442 -0.4306
   20CHL1  H24A 1469   5.055   1.980   8.776 -0.3213  0.5455 -0.9560
   20CHL1  H24B 1470   4.871   1.983   8.756 -2.1315  1.3841 -0.0502
   20CHL1   C25 1471   4.978   2.148   8.678  0.3451 -0.2103 -0.6947
   20CHL1   H25 1472   4.896   2.221   8.688 -0.0630 -0.7998  0.4185
   20CHL1   C26 1473   5.110   2.222   8.709  0.5144  0.2040  0.2376
   20CHL1  H26A 1474   5.124   2.300   8.632 -3.2650 -0.1637 -1.0204
   20CHL1  H26B 1475   5.118   2.268   8.810  0.9087 -1.6629  1.1206
   20CHL1  H26C 1476   5.185   2.140   8.714 -2.9128 -3.2366 -0.3087
   20CHL1   C27 1477   4.968   2.088   8.539 -0.6075 -0.3141  0.0359
   20CHL1  H27A 1478   5.039   2.004   8.526  0.6115  0.5905  0.6311
   20CHL1  H27B 1479   4.869   2.037   8.535 -0.5714 -0.3722 -0.0985
   20CHL1  H27C 1480   4.984   2.164   8.460  0.4801  0.0847  0.6129
   21CHL1    C3 1481   5.447   3.937   9.977  0.4599 -0.4828  0.5881
   21CHL1    H3 1482   5.549   3.968   9.946  0.6368  0.7571  2.3076
   21CHL1    O3 1483   5.455   3.950  10.117 -0.4724 -0.2216  0.2212
   21CHL1   H3' 1484   5.417   4.033  10.146  0.6442  0.9467 -1.5151
   21CHL1    C4 1485   5.346   4.043   9.925 -0.9450 -0.7426  0.7198
   21CHL1   H4A 1486   5.243   4.015   9.957 -1.5333  0.8324  0.3080
   21CHL1   H4B 1487   5.371   4.143   9.965  0.2099 -0.9764  0.6135
   21CHL1    C5 1488   5.345   4.041   9.770  0.7306  0.5839 -0.3577
   21CHL1    C6 1489   5.371   4.153   9.708  0.1524  0.2189 -0.4691
   21CHL1    H6 1490   5.409   4.229   9.778  3.2591 -1.1063 -0.5251
   21CHL1    C7 1491   5.384   4.167   9.559 -0.0050 -0.8939  0.0971
   21CHL1   H7A 1492   5.350   4.263   9.516  2.1584  0.1160  0.5054
   21CHL1   H7B 1493   5.490   4.150   9.530  0.1046 -0.3183  0.1618
   21CHL1    C8 1494   5.296   4.053   9.488 -0.2714 -0.1851 -0.8289
   21CHL1    H8 1495   5.191   4.083   9.509  0.7759  3.2837  0.0684
   21CHL1   C14 1496   5.325   4.053   9.338  0.2104 -1.2913  0.4257
   21CHL1   H14 1497   5.435   4.036   9.335  0.5732  0.4775  1.6789
   21CHL1   C15 1498   5.308   4.192   9.265 -0.2107  0.0166  0.3025
   21CHL1  H15A 1499   5.204   4.221   9.287 -0.6283 -2.1984  1.6711
   21CHL1  H15B 1500   5.386   4.269   9.284  0.6058  1.1764 -5.8630
   21CHL1   C16 1501   5.319   4.146   9.114 -0.5515 -1.0612  0.2384
   21CHL1  H16A 1502   5.239   4.185   9.048 -1.7395 -0.5932  1.8734
   21CHL1  H16B 1503   5.419   4.181   9.080 -0.5571 -0.0066  1.2245
   21CHL1   C17 1504   5.326   3.995   9.115  0.8418 -0.2775 -0.0984
   21CHL1   H17 1505   5.436   3.975   9.116  1.5522  2.9526  1.1577
   21CHL1   C13 1506   5.273   3.942   9.252 -0.6865 -0.1532  0.2896
   21CHL1   C18 1507   5.111   3.932   9.263 -0.4822 -0.3194  0.7752
   21CHL1  H18A 1508   5.069   3.850   9.201 -1.9155 -0.5333  1.9720
   21CHL1  H18B 1509   5.094   3.903   9.369  0.6699  0.0441  1.0664
   21CHL1  H18C 1510   5.076   4.033   9.235  1.4847 -0.4093 -2.5263
   21CHL1   C12 1511   5.332   3.809   9.305 -0.4011  0.3580 -0.2457
   21CHL1  H12A 1512   5.281   3.723   9.255  0.2359 -0.6143  0.7389
   21CHL1  H12B 1513   5.443   3.807   9.302 -0.4062  1.1072 -1.8947
   21CHL1   C11 1514   5.299   3.790   9.459 -1.0196  0.2940  0.4238
   21CHL1  H11A 1515   5.195   3.752   9.462 -0.3629 -1.6319  0.4871
   21CHL1  H11B 1516   5.368   3.714   9.502  2.3009  2.1947 -1.1466
   21CHL1    C9 1517   5.336   3.914   9.546  1.1106 -0.2919  0.0405
   21CHL1    H9 1518   5.447   3.916   9.535  1.0983 -0.4053 -0.1171
   21CHL1   C10 1519   5.311   3.912   9.695  0.8003  0.6181  0.5019
   21CHL1   C19 1520   5.160   3.873   9.709 -1.2693  0.4217 -0.0211
   21CHL1  H19A 1521   5.150   3.769   9.673  0.0795  0.1399  0.3608
   21CHL1  H19B 1522   5.143   3.869   9.819 -0.1215  0.4878  0.1706
   21CHL1  H19C 1523   5.079   3.934   9.663 -0.9680  1.6710  1.0103
   21CHL1    C1 1524   5.407   3.803   9.758  1.1323  0.5821 -0.1575
   21CHL1   H1A 1525   5.364   3.703   9.735 -2.8811  1.8698  0.7771
   21CHL1   H1B 1526   5.511   3.816   9.724  1.0571  0.2408 -0.5217
   21CHL1    C2 1527   5.416   3.798   9.915 -0.3741 -0.1842 -0.5169
   21CHL1   H2A 1528   5.490   3.722   9.949  0.5528  0.7209 -0.4685
   21CHL1   H2B 1529   5.314   3.785   9.956 -0.0736  0.2631  0.3945
   21CHL1   C20 1530   5.273   3.920   8.988 -0.3390  0.2683  0.1964
   21CHL1   H20 1531   5.239   3.817   9.010  1.0533 -0.3549 -0.4580
   21CHL1   C21 1532   5.392   3.884   8.895 -1.3540  0.0435 -0.1499
   21CHL1  H21A 1533   5.465   3.834   8.963 -1.9614  0.7606  1.0763
   21CHL1  H21B 1534   5.427   3.974   8.841 -1.2017 -2.3602 -4.4624
   21CHL1  H21C 1535   5.374   3.808   8.816  0.6616 -0.4922 -0.1418
   21CHL1   C22 1536   5.158   3.989   8.916  0.3821  0.2321  0.4244
   21CHL1  H22A 1537   5.084   4.028   8.990 -0.0639  0.7140 -0.2692
   21CHL1  H22B 1538   5.203   4.077   8.865 -0.3594  0.6299  0.4375
   21CHL1   C23 1539   5.088   3.895   8.814  0.1558 -0.0050  0.2745
   21CHL1  H23A 1540   5.151   3.872   8.726  0.6434 -1.3723  0.9365
   21CHL1  H23B 1541   5.063   3.799   8.866  1.3218 -0.7887 -0.5554
   21CHL1   C24 1542   4.957   3.956   8.768 -0.4135  0.5608 -0.4348
   21CHL1  H24A 1543   4.889   3.958   8.856 -2.6046  3.0422 -2.0491
   21CHL1  H24B 1544   4.963   4.060   8.729 -1.3120  0.3848 -1.0818
   21CHL1   C25 1545   4.875   3.874   8.668  0.0619  0.0416 -0.3443
   21CHL1   H25 1546   4.850   3.779   8.721 -0.1366  0.3100  0.0511
   21CHL1   C26 1547   4.729   3.927   8.660 -0.1637  0.0353  0.8684
   21CHL1  H26A 1548   4.663   3.849   8.616 -0.3114  1.3957 -1.4973
   21CHL1  H26B 1549   4.681   3.951   8.757  0.1643 -3.1486  1.9253
   21CHL1  H26C 1550   4.719   4.017   8.595 -3.7926 -1.5752 -1.1126
   21CHL1   C27 1551   4.944   3.851   8.530  0.0350 -1.0764 -0.2317
   21CHL1  H27A 1552   4.891   3.769   8.477 -2.2574 -1.0462  1.8169
   21CHL1  H27B 1553   4.937   3.946   8.473  0.6367 -0.7096  0.2916
   21CHL1  H27C 1554   5.055   3.840   8.527  0.1365 -0.1785 -3.4037
   22CHL1    C3 1555   3.551   6.021  10.191 -0.3165  0.0966 -0.1958
   22CHL1    H3 1556   3.660   6.003  10.203 -0.5882 -2.9981 -1.6573
   22CHL1    O3 1557   3.511   6.025  10.322  0.3136 -0.5950  0.0205
   22CHL1   H3' 1558   3.559   5.952  10.360  1.2163  0.6049  1.2910
   22CHL1    C4 1559   3.524   6.155  10.120 -0.0303  0.2089 -0.5913
   22CHL1   H4A 1560   3.417   6.182  10.130  0.0539  0.7812 -1.1727
   22CHL1   H4B 1561   3.582   6.238  10.167  0.2323  0.1516 -0.8138
   22CHL1    C5 1562   3.541   6.158   9.974 -0.7296 -0.0081  0.0632
   22CHL1    C6 1563   3.620   6.251   9.914  0.2855  0.0487 -0.1419
   22CHL1    H6 1564   3.662   6.333   9.974 -1.1117  0.5334  0.2177
   22CHL1    C7 1565   3.634   6.257   9.769  0.4465  0.0703  0.4343
   22CHL1   H7A 1566   3.602   6.358   9.733 -2.5004 -1.0512 -0.4339
   22CHL1   H7B 1567   3.738   6.232   9.741  0.2339  1.0750 -1.4366
   22CHL1    C8 1568   3.539   6.167   9.687  0.0373  0.3506 -0.6430
   22CHL1    H8 1569   3.433   6.201   9.686 -1.2051 -3.0434  1.0818
   22CHL1   C14 1570   3.575   6.160   9.539  0.1642  0.1374 -0.4642
   22CHL1   H14 1571   3.680   6.123   9.535  0.3540  0.5978  0.1633
   22CHL1   C15 1572   3.572   6.295   9.470  0.5756  0.3125 -0.1231
   22CHL1  H15A 1573   3.485   6.357   9.498  1.2001  1.0218  0.2867
   22CHL1  H15B 1574   3.665   6.354   9.488 -1.0050  2.7886  0.3595
   22CHL1   C16 1575   3.582   6.253   9.324 -0.0515  0.9444  0.5286
   22CHL1  H16A 1576   3.503   6.311   9.270 -0.7222  0.6000  1.1320
   22CHL1  H16B 1577   3.685   6.272   9.286  1.0360 -1.0070  2.3166
   22CHL1   C17 1578   3.555   6.093   9.315  0.1791  0.9799 -0.7721
   22CHL1   H17 1579   3.659   6.054   9.319 -0.3188 -0.6004 -1.9489
   22CHL1   C13 1580   3.496   6.066   9.455  1.1995  0.5031  0.1067
   22CHL1   C18 1581   3.347   6.095   9.442  0.5294 -0.5423 -0.0757
   22CHL1  H18A 1582   3.298   6.094   9.542  2.4523  0.0761  0.9224
   22CHL1  H18B 1583   3.328   6.195   9.399 -0.4452 -0.2740  0.9376
   22CHL1  H18C 1584   3.305   6.012   9.381 -1.4793  0.0695  0.3926
   22CHL1   C12 1585   3.512   5.920   9.515  0.0685 -0.4265  0.0196
   22CHL1  H12A 1586   3.449   5.851   9.454 -0.1761  0.9617 -1.3573
   22CHL1  H12B 1587   3.619   5.891   9.517  0.8674  2.2669  0.0472
   22CHL1   C11 1588   3.460   5.920   9.656  0.5862  0.0897 -0.8165
   22CHL1  H11A 1589   3.351   5.936   9.653  0.3868 -0.9839 -0.0280
   22CHL1  H11B 1590   3.464   5.822   9.708  1.2872  0.8800  0.6653
   22CHL1    C9 1591   3.533   6.023   9.751  0.4821 -0.0349 -0.1515
   22CHL1    H9 1592   3.641   5.997   9.753  1.8075  4.5522 -0.4760
   22CHL1   C10 1593   3.483   6.034   9.896 -0.0207 -0.1281  0.1591
   22CHL1   C19 1594   3.326   6.057   9.891 -0.0967  0.1068  0.1001
   22CHL1  H19A 1595   3.278   6.063   9.991 -1.7318 -1.9593 -0.4862
   22CHL1  H19B 1596   3.296   6.152   9.842  1.1894 -0.3307 -1.6011
   22CHL1  H19C 1597   3.270   5.974   9.843  0.3800  0.9303 -1.9882
   22CHL1    C1 1598   3.527   5.903   9.972  0.2213  0.1445 -0.0446
   22CHL1   H1A 1599   3.489   5.819   9.910  0.1573  0.5392 -0.5449
   22CHL1   H1B 1600   3.637   5.893   9.962  0.1718 -0.9382  0.3274
   22CHL1    C2 1601   3.493   5.894  10.123  0.1452 -0.1393 -0.6010
   22CHL1   H2A 1602   3.518   5.804  10.182 -1.2688  1.3948  2.5621
   22CHL1   H2B 1603   3.384   5.912  10.133  0.0784  1.0935 -2.8441
   22CHL1   C20 1604   3.492   6.033   9.184  0.7832 -0.4508  0.5841
   22CHL1   H20 1605   3.387   6.069   9.181  0.7314 -0.6284  0.1352
   22CHL1   C21 1606   3.492   5.879   9.188  0.1037  0.0509  0.2029
   22CHL1  H21A 1607   3.472   5.823   9.095  3.6277 -1.3321  0.1158
   22CHL1  H21B 1608   3.406   5.857   9.255 -1.3638  3.8067 -0.2157
   22CHL1  H21C 1609   3.578   5.838   9.246 -0.4570 -0.2204  0.8501
   22CHL1   C22 1610   3.556   6.083   9.054 -0.2102  0.1094 -0.1376
   22CHL1  H22A 1611   3.543   6.194   9.050 -3.3636 -0.1911 -0.2668
   22CHL1  H22B 1612   3.663   6.056   9.039 -0.3668  1.2154 -4.6865
   22CHL1   C23 1613   3.500   6.026   8.928 -0.0652 -0.5932  0.7837
   22CHL1  H23A 1614   3.533   5.921   8.909 -0.4902 -0.3476 -1.5177
   22CHL1  H23B 1615   3.390   6.025   8.939  0.0985 -2.2738  3.2585
   22CHL1   C24 1616   3.548   6.115   8.817  0.3723  0.2375  0.7192
   22CHL1  H24A 1617   3.478   6.200   8.803  0.1684  0.5042  2.9121
   22CHL1  H24B 1618   3.650   6.156   8.833 -0.4081  1.8768  1.7639
   22CHL1   C25 1619   3.555   6.049   8.677 -0.7525  0.0891  0.3202
   22CHL1   H25 1620   3.603   5.951   8.700 -0.7685 -0.1485 -0.6068
   22CHL1   C26 1621   3.423   6.021   8.613  0.2343  0.0745 -0.8194
   22CHL1  H26A 1622   3.357   6.110   8.607 -1.5972 -1.2224 -1.1356
   22CHL1  H26B 1623   3.429   5.972   8.513  0.8063  0.0546 -0.7770
   22CHL1  H26C 1624   3.368   5.942   8.669  1.1476  0.3353  0.4817
   22CHL1   C27 1625   3.630   6.133   8.575  1.0609 -0.0963 -0.7301
   22CHL1  H27A 1626   3.588   6.235   8.561 -1.2913 -0.6830  1.4235
   22CHL1  H27B 1627   3.723   6.146   8.635  0.8475 -2.0308  0.0928
   22CHL1  H27C 1628   3.638   6.079   8.478  0.0240 -1.1107 -0.2678
   23CHL1    C3 1629   5.590   0.931   9.926  0.1138  0.1593 -0.1424
   23CHL1    H3 1630   5.505   0.997   9.952 -1.4563 -1.6364 -0.5155
   23CHL1    O3 1631   5.646   0.880  10.048 -0.0306  0.4365  0.4824
   23CHL1   H3' 1632   5.589   0.902  10.122  0.8366  1.0576  0.9742
   23CHL1    C4 1633   5.564   0.821   9.819  0.8920  0.5601 -0.4204
   23CHL1   H4A 1634   5.654   0.756   9.822  0.5487  0.1144  2.5107
   23CHL1   H4B 1635   5.479   0.759   9.853 -0.6832  0.6219 -3.7615
   23CHL1    C5 1636   5.527   0.878   9.685 -0.1369  0.2914 -0.1569
   23CHL1    C6 1637   5.409   0.847   9.631 -0.2238  0.6976  0.3879
   23CHL1    H6 1638   5.339   0.784   9.686 -0.7670  1.7882  0.9806
   23CHL1    C7 1639   5.369   0.891   9.492 -0.1725  0.5919  0.1715
   23CHL1   H7A 1640   5.326   0.807   9.433  0.1638  0.6942 -0.2262
   23CHL1   H7B 1641   5.285   0.964   9.503 -0.3926  0.1289  1.8271
   23CHL1    C8 1642   5.473   0.966   9.411  0.8554 -0.2853 -0.9247
   23CHL1    H8 1643   5.544   0.894   9.366  1.7979  1.3845 -2.2282
   23CHL1   C14 1644   5.406   1.048   9.303  0.4705  0.2018 -0.4519
   23CHL1   H14 1645   5.356   1.139   9.342  2.3047  0.5782  1.1462
   23CHL1   C15 1646   5.296   0.978   9.210 -0.2660 -0.8648 -0.2825
   23CHL1  H15A 1647   5.339   0.878   9.184 -1.7520 -1.2522 -1.3834
   23CHL1  H15B 1648   5.193   0.963   9.249 -1.9891  2.1214 -3.1683
   23CHL1   C16 1649   5.301   1.059   9.085 -0.0986 -0.8123  0.6336
   23CHL1  H16A 1650   5.325   0.994   8.999 -0.1920  0.7094 -0.5931
   23CHL1  H16B 1651   5.204   1.106   9.058  0.4270 -0.0428  0.0296
   23CHL1   C17 1652   5.419   1.169   9.091 -0.2214  0.1072 -0.3329
   23CHL1   H17 1653   5.368   1.259   9.132 -1.0074  0.0660 -1.1941
   23CHL1   C13 1654   5.506   1.116   9.208 -0.0404  0.2657 -0.3390
   23CHL1   C18 1655   5.592   1.004   9.147  0.7956 -0.5299 -0.1228
   23CHL1  H18A 1656   5.528   0.934   9.089 -1.5008 -1.6542  3.4800
   23CHL1  H18B 1657   5.660   1.054   9.076  2.2287 -1.5088  0.5232
   23CHL1  H18C 1658   5.652   0.939   9.213  0.3433  0.2116  1.0542
   23CHL1   C12 1659   5.587   1.215   9.295 -0.5249 -0.4524  0.2875
   23CHL1  H12A 1660   5.668   1.271   9.242 -0.3170  0.1854  1.2578
   23CHL1  H12B 1661   5.506   1.287   9.318 -1.3367 -0.6973 -1.5797
   23CHL1   C11 1662   5.654   1.140   9.409 -0.8938 -0.7656 -0.1816
   23CHL1  H11A 1663   5.738   1.080   9.368 -0.0996  1.0952 -1.4269
   23CHL1  H11B 1664   5.707   1.213   9.473  0.6512 -0.0843 -2.1257
   23CHL1    C9 1665   5.555   1.059   9.497  0.6513 -0.3290  0.2515
   23CHL1    H9 1666   5.498   1.140   9.546  0.6257  1.2551 -2.1973
   23CHL1   C10 1667   5.625   0.988   9.623  0.0982  0.4770 -0.5546
   23CHL1   C19 1668   5.748   0.912   9.577 -0.4456 -0.7741 -0.0526
   23CHL1  H19A 1669   5.736   0.842   9.492  1.5368 -0.0761 -0.9899
   23CHL1  H19B 1670   5.838   0.978   9.568 -1.0896  0.2843  0.9049
   23CHL1  H19C 1671   5.781   0.855   9.667 -1.9198 -1.5905 -0.0094
   23CHL1    C1 1672   5.657   1.087   9.738  0.6715 -0.4721 -0.8183
   23CHL1   H1A 1673   5.732   1.158   9.699 -0.2357  1.2593  0.4553
   23CHL1   H1B 1674   5.571   1.154   9.758 -1.0748 -1.8792 -3.0762
   23CHL1    C2 1675   5.694   1.030   9.874 -0.7617 -0.1180 -0.0454
   23CHL1   H2A 1676   5.701   1.107   9.954 -2.8815  1.6879 -1.4906
   23CHL1   H2B 1677   5.796   0.986   9.883 -0.9938 -0.8873 -1.0196
   23CHL1   C20 1678   5.479   1.204   8.952 -0.0005 -0.2316  0.1790
   23CHL1   H20 1679   5.517   1.111   8.905  1.2954 -0.5433  1.7822
   23CHL1   C21 1680   5.601   1.298   8.969 -0.0437  0.0582  0.8274
   23CHL1  H21A 1681   5.564   1.393   9.012 -3.9553 -1.3617  1.0476
   23CHL1  H21B 1682   5.651   1.311   8.871 -1.3604 -1.1444 -0.0644
   23CHL1  H21C 1683   5.678   1.250   9.033 -1.5510 -2.7751  0.7076
   23CHL1   C22 1684   5.372   1.256   8.852  0.2784 -0.0608  0.4358
   23CHL1  H22A 1685   5.282   1.191   8.854  0.1993  0.0537  2.2473
   23CHL1  H22B 1686   5.342   1.357   8.888  2.1685  1.3548 -1.6648
   23CHL1   C23 1687   5.426   1.267   8.708 -0.1066 -0.0857  0.3240
   23CHL1  H23A 1688   5.516   1.332   8.705 -0.2691  0.1340  0.1422
   23CHL1  H23B 1689   5.448   1.166   8.670  0.1493 -0.1638  0.6757
   23CHL1   C24 1690   5.328   1.341   8.614  0.5049 -0.1929  0.1096
   23CHL1  H24A 1691   5.233   1.285   8.607 -0.2365  1.1706 -1.3145
   23CHL1  H24B 1692   5.302   1.446   8.640 -2.5722 -0.7835 -0.2344
   23CHL1   C25 1693   5.389   1.339   8.475  0.2940 -0.0554 -0.4946
   23CHL1   H25 1694   5.421   1.235   8.452 -0.5275 -0.5119  0.3905
   23CHL1   C26 1695   5.287   1.377   8.368  0.3009  0.1573 -0.0602
   23CHL1  H26A 1696   5.214   1.295   8.355  0.2987 -0.1364  1.5065
   23CHL1  H26B 1697   5.238   1.472   8.400 -1.1336 -0.8512  0.8016
   23CHL1  H26C 1698   5.341   1.377   8.271 -2.8138 -1.1338 -1.9237
   23CHL1   C27 1699   5.524   1.417   8.456  0.2492 -0.2270 -0.7209
   23CHL1  H27A 1700   5.592   1.406   8.543  2.2798 -3.4690 -2.5151
   23CHL1  H27B 1701   5.565   1.354   8.374  2.1082 -1.2044  0.8667
   23CHL1  H27C 1702   5.508   1.521   8.420 -0.3876 -0.1584 -0.2398
   24CHL1    C3 1703   1.547   1.597  10.047  0.2448 -0.3150 -0.0474
   24CHL1    H3 1704   1.648   1.586  10.003  1.3239  0.6060  2.0132
   24CHL1    O3 1705   1.553   1.617  10.187  0.0589  0.0118 -0.1545
   24CHL1   H3' 1706   1.508   1.539  10.220 -3.0128  1.6725  0.0054
   24CHL1    C4 1707   1.473   1.703   9.972  0.0979 -0.2337  0.0096
   24CHL1   H4A 1708   1.374   1.719  10.019  1.3814 -0.5976  3.0254
   24CHL1   H4B 1709   1.527   1.799   9.985 -0.4175  0.4710 -2.4582
   24CHL1    C5 1710   1.448   1.675   9.825 -0.4365 -0.1000 -0.5126
   24CHL1    C6 1711   1.500   1.754   9.732 -0.1137 -0.2642 -0.4540
   24CHL1    H6 1712   1.561   1.838   9.769  1.7686 -0.6414 -2.4777
   24CHL1    C7 1713   1.474   1.738   9.584 -0.6540 -0.6438  0.0694
   24CHL1   H7A 1714   1.452   1.841   9.546  1.7994 -0.1642 -0.1853
   24CHL1   H7B 1715   1.574   1.714   9.542 -0.8320 -1.8234  0.2973
   24CHL1    C8 1716   1.366   1.633   9.555  0.5482 -0.0384  0.0217
   24CHL1    H8 1717   1.268   1.676   9.585  0.8760 -0.8276  2.4252
   24CHL1   C14 1718   1.378   1.594   9.406 -0.3199 -0.3653 -0.4819
   24CHL1   H14 1719   1.478   1.547   9.394 -0.1900  0.2813 -2.0884
   24CHL1   C15 1720   1.374   1.697   9.291 -0.0278  0.8831 -0.0150
   24CHL1  H15A 1721   1.301   1.777   9.317 -2.0324 -0.8632 -0.0475
   24CHL1  H15B 1722   1.475   1.742   9.276 -0.1534  1.8176  1.6430
   24CHL1   C16 1723   1.340   1.609   9.170 -0.2600 -0.0247 -0.4052
   24CHL1  H16A 1724   1.238   1.641   9.139 -1.5223  1.0329  4.0022
   24CHL1  H16B 1725   1.413   1.626   9.088  0.0658  0.1007 -0.0940
   24CHL1   C17 1726   1.341   1.460   9.205  0.2114 -0.8389 -0.0510
   24CHL1   H17 1727   1.441   1.413   9.214  0.6440 -0.4101 -2.1337
   24CHL1   C13 1728   1.293   1.469   9.355 -1.1226 -0.2579 -0.2462
   24CHL1   C18 1729   1.143   1.505   9.372  0.0551 -0.2644 -0.3307
   24CHL1  H18A 1730   1.129   1.543   9.475 -3.3349  0.9630 -1.1319
   24CHL1  H18B 1731   1.098   1.581   9.304  3.1230  0.5666 -1.6298
   24CHL1  H18C 1732   1.083   1.412   9.358 -0.5738 -0.1849  1.5991
   24CHL1   C12 1733   1.321   1.350   9.453 -0.0588  0.3640 -0.2095
   24CHL1  H12A 1734   1.247   1.275   9.419  1.0928  0.0447 -2.2315
   24CHL1  H12B 1735   1.429   1.325   9.445 -0.2235 -0.9232  1.2335
   24CHL1   C11 1736   1.305   1.390   9.601 -0.5230  0.5933  0.5878
   24CHL1  H11A 1737   1.198   1.408   9.626 -0.0797  1.9795  1.5582
   24CHL1  H11B 1738   1.345   1.297   9.647 -1.4466 -0.0715  0.1080
   24CHL1    C9 1739   1.385   1.515   9.642  0.0917  0.2993 -0.1271
   24CHL1    H9 1740   1.488   1.480   9.619 -0.0921 -0.7570  0.6293
   24CHL1   C10 1741   1.378   1.541   9.792 -0.2204  0.1150 -0.0618
   24CHL1   C19 1742   1.226   1.551   9.833 -1.0036  0.0735 -0.5022
   24CHL1  H19A 1743   1.180   1.451   9.820  0.4984 -0.5837 -1.0157
   24CHL1  H19B 1744   1.225   1.571   9.942  0.2808  1.4905 -0.7258
   24CHL1  H19C 1745   1.173   1.636   9.787  2.5280  2.9983  0.3664
   24CHL1    C1 1746   1.460   1.434   9.867  0.4016 -0.1477 -0.6119
   24CHL1   H1A 1747   1.424   1.329   9.868  1.0936 -0.4050  1.2031
   24CHL1   H1B 1748   1.562   1.425   9.822  0.8265 -0.7315  0.4368
   24CHL1    C2 1749   1.491   1.457  10.018  0.2131 -0.8313  0.9295
   24CHL1   H2A 1750   1.556   1.373  10.051  0.5684 -0.9536 -0.0457
   24CHL1   H2B 1751   1.389   1.461  10.062 -0.9884  1.5140 -1.7627
   24CHL1   C20 1752   1.263   1.369   9.109  0.0669 -0.4325  0.0870
   24CHL1   H20 1753   1.155   1.370   9.135 -0.0285  2.5321 -0.0712
   24CHL1   C21 1754   1.319   1.225   9.132 -0.7045 -0.2590  0.2325
   24CHL1  H21A 1755   1.307   1.185   9.235 -3.2892 -2.2150 -0.7089
   24CHL1  H21B 1756   1.426   1.226   9.103 -0.9358  2.9694 -0.9190
   24CHL1  H21C 1757   1.269   1.150   9.067  1.1468 -0.7060 -0.7198
   24CHL1   C22 1758   1.269   1.419   8.965 -0.2503 -0.3771  0.6886
   24CHL1  H22A 1759   1.221   1.518   8.957  1.4325  0.4879  0.9003
   24CHL1  H22B 1760   1.374   1.419   8.928 -0.0465 -1.5361  1.2295
   24CHL1   C23 1761   1.193   1.330   8.867  0.5111  0.4104  0.0982
   24CHL1  H23A 1762   1.244   1.232   8.858 -0.9466 -0.5770  1.7872
   24CHL1  H23B 1763   1.085   1.319   8.889 -0.1368 -0.7583 -3.1659
   24CHL1   C24 1764   1.202   1.391   8.721  0.7136 -0.2869  0.2471
   24CHL1  H24A 1765   1.154   1.490   8.721 -0.6649 -0.9319  0.2920
   24CHL1  H24B 1766   1.307   1.408   8.688 -0.1366  0.3930 -2.3054
   24CHL1   C25 1767   1.147   1.295   8.612 -0.1689  0.4690 -0.5339
   24CHL1   H25 1768   1.064   1.236   8.658  0.6979 -0.2574  0.1414
   24CHL1   C26 1769   1.104   1.360   8.486  0.1615  0.0828 -0.1921
   24CHL1  H26A 1770   1.023   1.432   8.509  0.5043  0.9480 -1.5792
   24CHL1  H26B 1771   1.189   1.411   8.435  0.8164  0.6485  1.3976
   24CHL1  H26C 1772   1.061   1.282   8.419 -0.2950 -0.7981  1.0840
   24CHL1   C27 1773   1.254   1.183   8.571  0.2852  0.1786 -0.0794
   24CHL1  H27A 1774   1.281   1.127   8.664 -1.9806 -0.5539  0.2156
   24CHL1  H27B 1775   1.192   1.117   8.506  0.5915 -0.6070  0.4071
   24CHL1  H27C 1776   1.335   1.230   8.512 -1.4356  2.6570 -0.5855
   25CHL1    C3 1777   2.240   3.328  10.424  0.0098 -0.4955 -0.1300
   25CHL1    H3 1778   2.244   3.230  10.373 -1.9035 -1.2594  1.0813
   25CHL1    O3 1779   2.233   3.310  10.569  0.2827 -0.0104  0.1904
   25CHL1   H3' 1780   2.201   3.393  10.606  1.0614  1.6366 -2.4982
   25CHL1    C4 1781   2.367   3.411  10.384 -0.1427 -0.0790 -0.5690
   25CHL1   H4A 1782   2.360   3.513  10.426 -1.5726 -1.5569  3.2785
   25CHL1   H4B 1783   2.453   3.355  10.427 -0.4659 -0.3293 -0.2403
   25CHL1    C5 1784   2.387   3.422  10.231  0.7093  0.5197  0.0350
   25CHL1    C6 1785   2.496   3.368  10.166 -0.1261 -0.7608 -0.5303
   25CHL1    H6 1786   2.580   3.337  10.230 -0.1035  1.7043  0.7500
   25CHL1    C7 1787   2.511   3.379  10.016 -0.2147  0.1462  0.0105
   25CHL1   H7A 1788   2.611   3.422   9.993 -0.3878  0.2564 -0.5646
   25CHL1   H7B 1789   2.518   3.278   9.971 -1.2888 -0.9289  2.1214
   25CHL1    C8 1790   2.395   3.455   9.941 -0.4476 -0.0109 -0.4687
   25CHL1    H8 1791   2.417   3.564   9.946  2.2275 -0.5101 -0.0393
   25CHL1   C14 1792   2.393   3.409   9.788  0.5058  0.0411 -0.6613
   25CHL1   H14 1793   2.352   3.305   9.787 -1.5659  0.8149 -1.6145
   25CHL1   C15 1794   2.529   3.388   9.716 -0.3886  0.1871 -0.0645
   25CHL1  H15A 1795   2.607   3.452   9.763  0.3864  0.1494 -1.2703
   25CHL1  H15B 1796   2.571   3.285   9.717  2.8244  1.3559 -0.9326
   25CHL1   C16 1797   2.495   3.406   9.570  0.0280  0.4616 -0.0372
   25CHL1  H16A 1798   2.560   3.489   9.534  1.1666  0.2787  1.5140
   25CHL1  H16B 1799   2.521   3.315   9.512  3.0648  0.6780  0.7887
   25CHL1   C17 1800   2.340   3.430   9.564  0.1342 -0.2295 -0.3491
   25CHL1   H17 1801   2.298   3.327   9.559 -1.7098  0.5469 -3.1474
   25CHL1   C13 1802   2.301   3.484   9.704 -0.0324  0.1311  1.0896
   25CHL1   C18 1803   2.335   3.636   9.705  0.4728  0.3807  1.0985
   25CHL1  H18A 1804   2.277   3.695   9.630  2.9760  3.4386  1.3780
   25CHL1  H18B 1805   2.298   3.673   9.803  2.9865 -3.7181  3.9207
   25CHL1  H18C 1806   2.444   3.646   9.689  0.2463  1.0109 -0.1749
   25CHL1   C12 1807   2.157   3.452   9.766  0.5913 -0.3084  0.7938
   25CHL1  H12A 1808   2.084   3.512   9.707  1.1286 -1.1851 -0.8149
   25CHL1  H12B 1809   2.147   3.344   9.745  1.8397  0.1093 -2.6409
   25CHL1   C11 1810   2.156   3.488   9.912  0.2704 -0.5630 -0.4085
   25CHL1  H11A 1811   2.163   3.598   9.927  0.9695 -0.2947 -2.4494
   25CHL1  H11B 1812   2.056   3.453   9.946  0.7314 -1.8253 -0.2919
   25CHL1    C9 1813   2.262   3.427  10.001 -0.8439  0.0985  0.1435
   25CHL1    H9 1814   2.249   3.317   9.999 -1.1911  0.0974  1.3505
   25CHL1   C10 1815   2.259   3.464  10.154  0.6264  0.4292 -0.1695
   25CHL1   C19 1816   2.245   3.615  10.175 -0.0451  0.6240  0.1432
   25CHL1  H19A 1817   2.315   3.671  10.110 -3.2103  1.1432 -3.0883
   25CHL1  H19B 1818   2.150   3.653  10.134  1.7830  2.4328 -2.8030
   25CHL1  H19C 1819   2.257   3.646  10.281  0.3901  1.1533 -0.0573
   25CHL1    C1 1820   2.138   3.390  10.213 -0.3645 -0.7093  0.6166
   25CHL1   H1A 1821   2.043   3.435  10.178 -1.0921 -1.1649  1.9614
   25CHL1   H1B 1822   2.125   3.287  10.172  1.0531  0.6145 -3.6580
   25CHL1    C2 1823   2.118   3.399  10.366  0.0173  0.1099  0.5684
   25CHL1   H2A 1824   2.024   3.346  10.392 -0.0886 -0.9481 -1.7592
   25CHL1   H2B 1825   2.119   3.508  10.389  1.2479  0.6903 -1.9035
   25CHL1   C20 1826   2.295   3.510   9.442 -0.1658 -0.3170  0.1286
   25CHL1   H20 1827   2.334   3.613   9.458 -1.4480 -0.1267  2.4433
   25CHL1   C21 1828   2.137   3.522   9.447  0.7465  0.1334 -0.2549
   25CHL1  H21A 1829   2.083   3.425   9.456 -0.5394  1.0102  2.1599
   25CHL1  H21B 1830   2.097   3.569   9.354  0.1853 -1.6339 -0.9506
   25CHL1  H21C 1831   2.097   3.582   9.531  0.8873 -1.3686  0.9248
   25CHL1   C22 1832   2.333   3.450   9.303 -0.0333 -0.9502  0.1102
   25CHL1  H22A 1833   2.439   3.417   9.295  0.8736  1.6869  0.3023
   25CHL1  H22B 1834   2.256   3.376   9.274  0.9101 -1.1231 -2.1164
   25CHL1   C23 1835   2.338   3.562   9.195  0.5069 -0.6923  0.2545
   25CHL1  H23A 1836   2.242   3.618   9.184 -0.0489 -1.5257  0.7001
   25CHL1  H23B 1837   2.406   3.636   9.241  2.3314 -2.2536  0.2022
   25CHL1   C24 1838   2.384   3.516   9.056 -0.6097  0.1695 -0.0412
   25CHL1  H24A 1839   2.416   3.606   8.999  1.0635  0.3778  1.1590
   25CHL1  H24B 1840   2.469   3.446   9.066 -0.5343  0.4080  1.0777
   25CHL1   C25 1841   2.273   3.443   8.982 -0.0183 -0.0055  0.4147
   25CHL1   H25 1842   2.245   3.351   9.037  0.6356 -1.9352 -2.2853
   25CHL1   C26 1843   2.149   3.522   8.951 -0.5362  0.3219  0.4236
   25CHL1  H26A 1844   2.104   3.552   9.048  1.0944  2.3699  0.6151
   25CHL1  H26B 1845   2.168   3.613   8.890  0.6383  1.1092  1.8957
   25CHL1  H26C 1846   2.082   3.454   8.895 -0.7574  0.4177  0.5692
   25CHL1   C27 1847   2.341   3.401   8.850 -0.1395 -0.7882  0.0526
   25CHL1  H27A 1848   2.276   3.355   8.772  0.3826 -0.1437 -0.7748
   25CHL1  H27B 1849   2.379   3.494   8.803 -2.2220  0.3259  0.4326
   25CHL1  H27C 1850   2.421   3.326   8.869  1.0672  0.7511  1.3490
   26CHL1    C3 1851   4.427   5.842   9.944  0.6656  0.5220 -0.9140
   26CHL1    H3 1852   4.520   5.902   9.946  0.4085  0.9040  0.0665
   26CHL1    O3 1853   4.374   5.845  10.074 -0.6647  0.3171  0.2267
   26CHL1   H3' 1854   4.444   5.835  10.138 -1.6649  4.7689  2.4142
   26CHL1    C4 1855   4.331   5.900   9.844 -0.1640  0.6114  0.4602
   26CHL1   H4A 1856   4.233   5.850   9.860  1.0787 -1.5484  1.9717
   26CHL1   H4B 1857   4.321   6.006   9.873  0.6900  1.1082 -0.9622
   26CHL1    C5 1858   4.368   5.890   9.701  0.3794  0.3905  0.1613
   26CHL1    C6 1859   4.365   5.994   9.622 -0.4298  0.6410 -0.3046
   26CHL1    H6 1860   4.334   6.091   9.665  0.5429  1.4657 -1.4031
   26CHL1    C7 1861   4.405   5.980   9.475  0.4881  0.0255 -0.0171
   26CHL1   H7A 1862   4.328   6.027   9.409  0.4293  0.0056  0.0362
   26CHL1   H7B 1863   4.501   6.029   9.447  1.9487 -1.0831  2.6105
   26CHL1    C8 1864   4.411   5.826   9.428  0.6150  0.3559  1.2109
   26CHL1    H8 1865   4.303   5.797   9.430  0.6341  0.3196  1.9675
   26CHL1   C14 1866   4.470   5.813   9.285  0.1750 -0.4205  0.9004
   26CHL1   H14 1867   4.570   5.860   9.298  0.0103  0.1604  0.1373
   26CHL1   C15 1868   4.403   5.895   9.169  0.1977 -0.1674  0.0860
   26CHL1  H15A 1869   4.293   5.879   9.170 -0.1669  2.0000 -0.2382
   26CHL1  H15B 1870   4.418   6.005   9.168 -0.4311 -0.0776  0.0452
   26CHL1   C16 1871   4.476   5.829   9.051 -0.0885  0.4726  0.2422
   26CHL1  H16A 1872   4.402   5.809   8.970  0.4083  1.9734 -0.6240
   26CHL1  H16B 1873   4.557   5.888   9.003 -0.6928  0.4253 -0.8804
   26CHL1   C17 1874   4.541   5.693   9.102 -0.0250 -0.2063  0.3322
   26CHL1   H17 1875   4.646   5.724   9.121 -0.1591  0.7566 -0.4267
   26CHL1   C13 1876   4.484   5.669   9.240  0.7193  0.5377  0.1256
   26CHL1   C18 1877   4.338   5.608   9.239 -1.0602 -1.2282 -0.5281
   26CHL1  H18A 1878   4.281   5.662   9.160  1.6406  2.1159 -0.4044
   26CHL1  H18B 1879   4.344   5.500   9.211 -1.8386 -1.6391  0.8060
   26CHL1  H18C 1880   4.286   5.612   9.337  0.7220  2.4943  0.4410
   26CHL1   C12 1881   4.581   5.595   9.339  0.1349 -0.4897  0.1142
   26CHL1  H12A 1882   4.604   5.489   9.314  2.3828  0.0845 -0.4319
   26CHL1  H12B 1883   4.679   5.647   9.339  0.0730 -0.3545  1.4190
   26CHL1   C11 1884   4.525   5.600   9.481  0.2031 -0.7617 -0.1226
   26CHL1  H11A 1885   4.444   5.525   9.470 -1.5107  1.1909 -1.4867
   26CHL1  H11B 1886   4.605   5.552   9.542  0.0615  0.2842  0.9227
   26CHL1    C9 1887   4.488   5.739   9.529  0.0024 -0.3601 -0.7850
   26CHL1    H9 1888   4.588   5.788   9.535  0.4631 -1.4269  2.3951
   26CHL1   C10 1889   4.414   5.748   9.664  0.3634  0.2286  0.1840
   26CHL1   C19 1890   4.279   5.665   9.647 -0.3096  0.7785  0.4667
   26CHL1  H19A 1891   4.218   5.665   9.740 -0.7312  0.8304  0.1939
   26CHL1  H19B 1892   4.218   5.686   9.557  1.6440 -1.3974 -1.5092
   26CHL1  H19C 1893   4.314   5.561   9.628 -0.1906  0.8673  0.1945
   26CHL1    C1 1894   4.509   5.682   9.766  0.1349  0.5488  0.2539
   26CHL1   H1A 1895   4.511   5.572   9.749 -0.2966 -0.2082  4.1557
   26CHL1   H1B 1896   4.611   5.723   9.751  0.4429 -1.2439 -3.9256
   26CHL1    C2 1897   4.454   5.696   9.907 -0.4173  0.9475  0.5103
   26CHL1   H2A 1898   4.535   5.647   9.965 -1.9791 -0.8447  1.2914
   26CHL1   H2B 1899   4.365   5.629   9.914  2.0571 -2.5109  1.8192
   26CHL1   C20 1900   4.551   5.577   8.993 -0.1667 -0.0385 -0.0410
   26CHL1   H20 1901   4.572   5.483   9.049 -0.3383  0.9099  1.6895
   26CHL1   C21 1902   4.666   5.618   8.899  0.8002 -0.2212  0.6050
   26CHL1  H21A 1903   4.753   5.661   8.953  2.9505 -3.7196  0.2020
   26CHL1  H21B 1904   4.629   5.702   8.836  1.9147 -0.4739 -0.4107
   26CHL1  H21C 1905   4.694   5.527   8.841 -2.1384 -1.8086  1.4652
   26CHL1   C22 1906   4.427   5.551   8.911 -0.0675 -0.2796  0.0621
   26CHL1  H22A 1907   4.339   5.559   8.978  0.4231 -3.1165  1.1881
   26CHL1  H22B 1908   4.408   5.623   8.828 -3.3130 -0.0132  0.9174
   26CHL1   C23 1909   4.419   5.411   8.865 -0.4516 -0.0313 -0.5674
   26CHL1  H23A 1910   4.506   5.385   8.801  1.0148  2.1031  0.4428
   26CHL1  H23B 1911   4.409   5.343   8.953 -0.0024 -1.1176 -1.3369
   26CHL1   C24 1912   4.299   5.377   8.789 -0.2077  0.2578  0.0967
   26CHL1  H24A 1913   4.207   5.412   8.839  0.4639  0.7262  1.0259
   26CHL1  H24B 1914   4.305   5.422   8.688  0.9368  0.5335  0.2687
   26CHL1   C25 1915   4.285   5.222   8.763  0.2033 -0.5259  0.3134
   26CHL1   H25 1916   4.285   5.165   8.858  1.0505 -1.3949 -0.1863
   26CHL1   C26 1917   4.153   5.185   8.695  0.1994 -0.2318  0.6119
   26CHL1  H26A 1918   4.152   5.211   8.587  0.6993  1.0285  0.8971
   26CHL1  H26B 1919   4.140   5.075   8.698  1.1196 -0.3665  0.0336
   26CHL1  H26C 1920   4.068   5.235   8.746  1.0531  0.5455  1.3084
   26CHL1   C27 1921   4.403   5.160   8.679  1.0866  0.3253  0.0838
   26CHL1  H27A 1922   4.393   5.050   8.682  0.8329  0.3534  0.2750
   26CHL1  H27B 1923   4.387   5.188   8.572 -3.2050 -1.9107 -0.0816
   26CHL1  H27C 1924   4.505   5.179   8.717  1.4138 -0.8327 -0.1894
   27CHL1    C3 1925   2.204   4.412  10.305 -0.5792 -0.8072 -1.2665
   27CHL1    H3 1926   2.249   4.311  10.305  1.2442 -0.1460  1.8140
   27CHL1    O3 1927   2.155   4.446  10.434 -0.1750 -0.3594 -0.2613
   27CHL1   H3' 1928   2.082   4.508  10.424 -1.6516 -1.6700  1.6222
   27CHL1    C4 1929   2.305   4.522  10.261  0.3684 -0.1705 -0.3116
   27CHL1   H4A 1930   2.256   4.621  10.261 -0.7157 -0.6791 -1.8919
   27CHL1   H4B 1931   2.395   4.522  10.327 -0.1588  1.4300  0.4525
   27CHL1    C5 1932   2.351   4.501  10.113  0.9153  0.7566  0.2340
   27CHL1    C6 1933   2.477   4.485  10.083  0.7455  0.3028  0.3268
   27CHL1    H6 1934   2.549   4.484  10.167 -0.7189 -1.1119  1.6435
   27CHL1    C7 1935   2.524   4.457   9.945  0.4141  0.6175 -0.7069
   27CHL1   H7A 1936   2.621   4.500   9.914  1.4945 -0.2418  1.3108
   27CHL1   H7B 1937   2.539   4.347   9.942  0.1160  0.5016  0.9909
   27CHL1    C8 1938   2.417   4.492   9.845  0.7637  0.5068 -0.4103
   27CHL1    H8 1939   2.418   4.603   9.844  0.9263  0.5054 -0.4932
   27CHL1   C14 1940   2.449   4.443   9.702  0.1619 -0.6523 -0.4613
   27CHL1   H14 1941   2.442   4.333   9.709  1.4320 -0.9009 -2.1708
   27CHL1   C15 1942   2.593   4.452   9.638 -0.8644 -0.0524 -0.1635
   27CHL1  H15A 1943   2.636   4.553   9.658 -0.8340  0.4928 -2.7011
   27CHL1  H15B 1944   2.667   4.377   9.673 -0.2707  0.4374 -0.3535
   27CHL1   C16 1945   2.572   4.430   9.491 -0.1305 -0.0602  0.7099
   27CHL1  H16A 1946   2.621   4.518   9.444 -1.5465  1.1484  1.4533
   27CHL1  H16B 1947   2.627   4.341   9.452 -0.6103  0.2419 -0.7168
   27CHL1   C17 1948   2.416   4.425   9.465  0.0072 -0.0472  0.2412
   27CHL1   H17 1949   2.393   4.317   9.472  1.2861 -0.2326  2.5507
   27CHL1   C13 1950   2.354   4.485   9.590 -0.3534  0.2570  0.2064
   27CHL1   C18 1951   2.347   4.643   9.579 -0.4985  0.0231  0.4140
   27CHL1  H18A 1952   2.326   4.687   9.678 -0.1826  0.8780  0.1074
   27CHL1  H18B 1953   2.445   4.681   9.543 -1.0620 -0.4411 -1.8107
   27CHL1  H18C 1954   2.265   4.680   9.514 -0.2158  0.8397  0.5203
   27CHL1   C12 1955   2.215   4.418   9.618 -0.4429 -0.5884  0.0308
   27CHL1  H12A 1956   2.142   4.462   9.548  0.1349  2.0271  0.9430
   27CHL1  H12B 1957   2.228   4.308   9.616  0.0619 -0.5174 -1.9784
   27CHL1   C11 1958   2.167   4.448   9.763  0.4256  0.0853 -0.2685
   27CHL1  H11A 1959   2.138   4.555   9.762 -0.4491 -0.1398 -1.0700
   27CHL1  H11B 1960   2.074   4.389   9.779  0.8446  0.0489  2.5509
   27CHL1    C9 1961   2.279   4.432   9.873 -0.8302  0.1885  0.3019
   27CHL1    H9 1962   2.298   4.323   9.880  3.2387  0.6293 -1.1675
   27CHL1   C10 1963   2.239   4.487  10.011  0.4341 -0.6313 -0.3775
   27CHL1   C19 1964   2.186   4.629   9.995 -0.0099 -0.1518  0.5681
   27CHL1  H19A 1965   2.264   4.704   9.970 -1.1373  0.3123 -1.8493
   27CHL1  H19B 1966   2.109   4.647   9.917  2.0414  3.8961 -0.8227
   27CHL1  H19C 1967   2.133   4.664  10.087  0.9640 -0.3156  1.2088
   27CHL1    C1 1968   2.130   4.402  10.070  0.2498  0.0821 -0.5739
   27CHL1   H1A 1969   2.037   4.420  10.011 -0.3312 -0.2737  0.2170
   27CHL1   H1B 1970   2.166   4.297  10.059  2.4016  0.2936  3.0293
   27CHL1    C2 1971   2.081   4.420  10.213 -1.1520 -0.0043 -0.5247
   27CHL1   H2A 1972   2.020   4.331  10.237 -1.3861 -0.1346 -1.5403
   27CHL1   H2B 1973   2.026   4.513  10.239  2.0677  2.1418 -0.6989
   27CHL1   C20 1974   2.380   4.465   9.321  0.1267  0.2068  0.9491
   27CHL1   H20 1975   2.411   4.570   9.301  2.0489 -0.4156  0.5101
   27CHL1   C21 1976   2.226   4.447   9.300 -0.4341 -0.7176  0.1507
   27CHL1  H21A 1977   2.209   4.464   9.191 -0.0998  1.4953  0.4044
   27CHL1  H21B 1978   2.178   4.528   9.359 -1.7477 -1.5264  0.2564
   27CHL1  H21C 1979   2.203   4.342   9.329 -0.2259 -1.2625 -1.5537
   27CHL1   C22 1980   2.460   4.386   9.214 -0.2559  0.4395 -0.2106
   27CHL1  H22A 1981   2.568   4.385   9.238 -0.7512 -2.1709  2.6907
   27CHL1  H22B 1982   2.421   4.282   9.221 -1.4611  0.9318  0.9208
   27CHL1   C23 1983   2.433   4.433   9.073  0.4581 -0.3662 -0.7991
   27CHL1  H23A 1984   2.338   4.406   9.022  0.0928  1.6756 -1.3181
   27CHL1  H23B 1985   2.433   4.544   9.068 -1.5875 -0.3231 -0.8386
   27CHL1   C24 1986   2.540   4.382   8.971  0.2013 -0.3227  0.2103
   27CHL1  H24A 1987   2.639   4.413   9.011 -0.8070  2.9151  0.4720
   27CHL1  H24B 1988   2.534   4.271   8.967 -0.9585 -0.2747  0.2234
   27CHL1   C25 1989   2.529   4.434   8.825  0.0858 -0.2742 -0.0875
   27CHL1   H25 1990   2.513   4.544   8.827 -0.0885 -0.3084  0.6143
   27CHL1   C26 1991   2.655   4.395   8.746 -0.4167  0.8229 -0.4833
   27CHL1  H26A 1992   2.651   4.428   8.640 -1.2362  0.4059 -0.5859
   27CHL1  H26B 1993   2.752   4.428   8.788  0.6088 -1.4309 -0.9243
   27CHL1  H26C 1994   2.656   4.286   8.728  0.8449  0.9170 -1.0604
   27CHL1   C27 1995   2.410   4.370   8.752  0.5752 -0.0654 -0.2853
   27CHL1  H27A 1996   2.420   4.259   8.746  2.4111  0.1224 -1.3746
   27CHL1  H27B 1997   2.310   4.401   8.791  0.5293 -1.5632  0.8905
   27CHL1  H27C 1998   2.409   4.409   8.648 -0.5114  0.4913 -0.0805
   28CHL1    C3 1999   2.917   2.665  10.178 -0.0475 -0.3247 -0.4053
   28CHL1    H3 2000   2.858   2.758  10.159 -0.5585 -0.6662 -0.5137
   28CHL1    O3 2001   2.945   2.644  10.312  0.0889 -0.0553 -0.6090
   28CHL1   H3' 2002   3.013   2.576  10.314 -0.5815 -0.7338 -0.6190
   28CHL1    C4 2003   2.827   2.550  10.116 -0.1173  0.0020 -0.4585
   28CHL1   H4A 2004   2.870   2.448  10.129  2.1206  0.8791 -0.6631
   28CHL1   H4B 2005   2.736   2.548  10.181  1.0173  2.6090  1.3601
   28CHL1    C5 2006   2.806   2.573   9.974  0.6341  0.1499  0.5309
   28CHL1    C6 2007   2.682   2.577   9.923 -0.2062  0.1164 -0.0768
   28CHL1    H6 2008   2.592   2.561   9.984 -0.7971  3.5890  0.1322
   28CHL1    C7 2009   2.659   2.602   9.777  0.3020 -0.0688  0.7520
   28CHL1   H7A 2010   2.578   2.540   9.732  3.3985 -2.4075 -2.0394
   28CHL1   H7B 2011   2.615   2.702   9.756 -0.4894 -0.2806  1.3467
   28CHL1    C8 2012   2.780   2.575   9.683 -0.3085 -0.3399  0.3897
   28CHL1    H8 2013   2.791   2.466   9.670  0.1298 -0.3974  1.2086
   28CHL1   C14 2014   2.751   2.645   9.546  0.0134 -0.3694 -0.4257
   28CHL1   H14 2015   2.741   2.752   9.573  0.8051 -0.3584 -0.1603
   28CHL1   C15 2016   2.620   2.611   9.466  0.0096 -0.1116 -0.1502
   28CHL1  H15A 2017   2.608   2.502   9.481  3.2473 -0.3609  1.6266
   28CHL1  H15B 2018   2.546   2.681   9.510  0.3083 -0.7908  1.5089
   28CHL1   C16 2019   2.661   2.635   9.320 -0.0436 -1.0505 -0.2157
   28CHL1  H16A 2020   2.669   2.541   9.261  0.3546 -0.6375 -0.8346
   28CHL1  H16B 2021   2.593   2.702   9.262  1.6438  0.4611 -0.5288
   28CHL1   C17 2022   2.805   2.684   9.325  0.3103  0.1287 -0.0088
   28CHL1   H17 2023   2.806   2.795   9.335 -0.6208  0.1499 -0.0790
   28CHL1   C13 2024   2.869   2.626   9.457 -0.3775  0.4104 -0.1854
   28CHL1   C18 2025   2.918   2.482   9.437  0.0174 -1.0297 -0.0369
   28CHL1  H18A 2026   3.007   2.492   9.372 -0.2672  0.2015 -0.2698
   28CHL1  H18B 2027   2.946   2.443   9.537  2.0067 -0.5537 -0.3817
   28CHL1  H18C 2028   2.839   2.419   9.392 -0.9287 -0.1425  0.3234
   28CHL1   C12 2029   2.977   2.711   9.517 -0.3899 -0.1597  0.0303
   28CHL1  H12A 2030   3.072   2.705   9.460 -0.1115  0.0622  0.4688
   28CHL1  H12B 2031   2.949   2.818   9.530  0.3940  0.1175 -0.4895
   28CHL1   C11 2032   3.026   2.662   9.650 -0.1173 -0.6577 -0.4245
   28CHL1  H11A 2033   3.088   2.573   9.625  0.7677 -0.3288  0.5330
   28CHL1  H11B 2034   3.091   2.741   9.694 -0.7071 -0.4157  0.0223
   28CHL1    C9 2035   2.902   2.646   9.744  0.3142 -0.0615  0.0616
   28CHL1    H9 2036   2.870   2.751   9.762  0.5858  0.1074 -0.4335
   28CHL1   C10 2037   2.937   2.589   9.883 -0.4864 -0.1765  0.0852
   28CHL1   C19 2038   3.003   2.452   9.871  0.3836 -0.2198  0.2738
   28CHL1  H19A 2039   3.010   2.394   9.965  2.1298  1.7973  1.4912
   28CHL1  H19B 2040   2.946   2.390   9.798 -1.7829  0.3880  1.3542
   28CHL1  H19C 2041   3.106   2.465   9.832  0.2229 -0.5366 -0.2827
   28CHL1    C1 2042   3.033   2.691   9.959  0.3614 -0.4487 -1.6081
   28CHL1   H1A 2043   3.129   2.685   9.903  0.5737 -1.7237 -1.1401
   28CHL1   H1B 2044   2.991   2.793   9.949  2.7663  0.7311 -0.5347
   28CHL1    C2 2045   3.053   2.657  10.107  0.7355 -0.4089 -0.4814
   28CHL1   H2A 2046   3.107   2.743  10.154  0.4652 -1.4644  1.9462
   28CHL1   H2B 2047   3.110   2.562  10.119 -1.5745 -1.8677 -0.5715
   28CHL1   C20 2048   2.888   2.662   9.192  0.6082  0.0628 -0.5565
   28CHL1   H20 2049   2.924   2.557   9.187  2.1875  0.5892 -0.8125
   28CHL1   C21 2050   3.024   2.743   9.191  0.6237  0.3725  0.5938
   28CHL1  H21A 2051   2.994   2.850   9.201  1.1284  0.5022  0.7213
   28CHL1  H21B 2052   3.073   2.731   9.092  0.2768 -0.2533  0.4921
   28CHL1  H21C 2053   3.091   2.698   9.267  1.6498 -1.0360 -1.0685
   28CHL1   C22 2054   2.812   2.701   9.062  0.6666 -0.2023 -0.0617
   28CHL1  H22A 2055   2.709   2.663   9.077  0.9071 -0.4111  1.1608
   28CHL1  H22B 2056   2.812   2.811   9.048  2.0322 -0.4210 -2.3301
   28CHL1   C23 2057   2.885   2.639   8.939  0.7683  0.4986 -0.1264
   28CHL1  H23A 2058   2.994   2.660   8.942  0.5196  2.5137 -2.4980
   28CHL1  H23B 2059   2.864   2.530   8.953  0.8110  0.7759  2.6791
   28CHL1   C24 2060   2.833   2.704   8.811 -0.3398  0.1092 -0.2538
   28CHL1  H24A 2061   2.722   2.702   8.808 -0.3476 -0.4602  0.2845
   28CHL1  H24B 2062   2.863   2.810   8.820  2.2192 -0.5644  0.0938
   28CHL1   C25 2063   2.906   2.653   8.683  0.7928 -0.6524 -0.1078
   28CHL1   H25 2064   3.016   2.652   8.698  0.6442 -1.2682  0.9640
   28CHL1   C26 2065   2.857   2.514   8.643 -0.8516  0.3240 -0.6502
   28CHL1  H26A 2066   2.750   2.528   8.616 -0.4138  2.6178 -1.4241
   28CHL1  H26B 2067   2.914   2.471   8.557  1.9081  0.1988  1.1289
   28CHL1  H26C 2068   2.857   2.439   8.724  0.8816 -0.1728 -1.0756
   28CHL1   C27 2069   2.888   2.749   8.558 -0.2004 -0.0898  0.0489
   28CHL1  H27A 2070   2.907   2.856   8.581 -1.0125 -0.3435  2.0332
   28CHL1  H27B 2071   2.955   2.704   8.481  0.7432  0.2969  0.6223
   28CHL1  H27C 2072   2.784   2.745   8.519  0.8516 -2.1080 -2.9165
   29CHL1    C3 2073   4.952   0.026   6.557 -0.1895 -0.0454 -0.1242
   29CHL1    H3 2074   4.992   0.124   6.589  0.3450 -1.0233  2.5074
   29CHL1    O3 2075   4.936   0.017   6.418  0.4313  0.5541  0.7479
   29CHL1   H3' 2076   4.954  -0.075   6.399 -1.2670  0.2491  0.4756
   29CHL1    C4 2077   5.026  -0.099   6.605 -0.1107  0.5135 -0.1821
   29CHL1   H4A 2078   4.975  -0.195   6.580  2.3312 -1.0441  0.4922
   29CHL1   H4B 2079   5.127  -0.110   6.560 -0.0950  1.5632 -0.4286
   29CHL1    C5 2080   5.039  -0.101   6.758  0.3941  0.2629  0.0525
   29CHL1    C6 2081   5.157  -0.127   6.816 -0.0205  0.4023 -0.3352
   29CHL1    H6 2082   5.240  -0.138   6.745 -1.4931 -0.7577 -1.9510
   29CHL1    C7 2083   5.185  -0.119   6.965 -0.0789  0.7472  0.5960
   29CHL1   H7A 2084   5.251  -0.199   7.004  2.2157  2.4687  0.4944
   29CHL1   H7B 2085   5.225  -0.019   6.991  1.3853  0.1616  0.6684
   29CHL1    C8 2086   5.053  -0.126   7.044 -0.6988  0.5120 -0.6774
   29CHL1    H8 2087   5.020  -0.232   7.051  0.9185  0.0786  1.3921
   29CHL1   C14 2088   5.084  -0.072   7.181 -0.0530 -0.5653 -0.2832
   29CHL1   H14 2089   5.107   0.035   7.165 -1.1470  0.2376  2.9464
   29CHL1   C15 2090   5.202  -0.140   7.253  0.1525  0.7059 -0.6824
   29CHL1  H15A 2091   5.185  -0.247   7.230 -0.3381  0.7148 -0.3754
   29CHL1  H15B 2092   5.301  -0.111   7.211  1.2952  0.0476  1.3825
   29CHL1   C16 2093   5.181  -0.098   7.401 -0.2550 -0.3324 -0.4812
   29CHL1  H16A 2094   5.178  -0.199   7.447 -3.5395 -0.6364 -1.1499
   29CHL1  H16B 2095   5.259  -0.032   7.446  0.1668  0.1316 -1.8414
   29CHL1   C17 2096   5.047  -0.022   7.405  0.5855  0.1160  0.1599
   29CHL1   H17 2097   5.066   0.087   7.391  0.5533 -0.0547 -1.3015
   29CHL1   C13 2098   4.967  -0.062   7.281  0.4962 -0.0810 -0.1928
   29CHL1   C18 2099   4.903  -0.201   7.315  0.1555 -0.4521 -0.0417
   29CHL1  H18A 2100   4.979  -0.265   7.365 -0.9114 -1.2949  0.5550
   29CHL1  H18B 2101   4.817  -0.190   7.385 -0.9286  1.2654 -1.5628
   29CHL1  H18C 2102   4.863  -0.252   7.224 -0.0998 -0.1053 -0.1248
   29CHL1   C12 2103   4.859   0.030   7.222 -0.5545 -0.5054  0.1243
   29CHL1  H12A 2104   4.769   0.027   7.288 -1.9376 -0.4315 -1.6771
   29CHL1  H12B 2105   4.893   0.136   7.220 -2.9637  0.3510  1.0719
   29CHL1   C11 2106   4.822  -0.013   7.076  0.9351 -0.1636 -0.1363
   29CHL1  H11A 2107   4.758  -0.104   7.077 -1.7623  1.6180 -0.2069
   29CHL1  H11B 2108   4.766   0.069   7.026  0.1963 -0.1840  0.6343
   29CHL1    C9 2109   4.943  -0.044   6.982  0.1451 -0.0158 -0.5503
   29CHL1    H9 2110   4.993   0.053   6.960  1.5910 -0.7051 -0.4506
   29CHL1   C10 2111   4.907  -0.078   6.833  0.6058  0.6422  0.0855
   29CHL1   C19 2112   4.836  -0.214   6.840 -0.5444 -0.4415 -0.7877
   29CHL1  H19A 2113   4.743  -0.203   6.899  0.7670  0.2536  1.2308
   29CHL1  H19B 2114   4.816  -0.252   6.737  0.3356  1.3979 -1.6832
   29CHL1  H19C 2115   4.892  -0.294   6.893 -0.2711  0.3721  0.1790
   29CHL1    C1 2116   4.821   0.034   6.768  0.1634  0.3095 -0.0145
   29CHL1   H1A 2117   4.714   0.027   6.800  0.3573  0.3481  0.6616
   29CHL1   H1B 2118   4.855   0.137   6.792 -0.8383  0.4306  0.9854
   29CHL1    C2 2119   4.811   0.024   6.613  0.2150  0.3760 -0.8162
   29CHL1   H2A 2120   4.744   0.105   6.577 -0.5221 -0.3595 -1.1119
   29CHL1   H2B 2121   4.759  -0.069   6.584 -0.0908  0.0006  0.8276
   29CHL1   C20 2122   4.970  -0.031   7.542  0.1185  0.8024 -0.1650
   29CHL1   H20 2123   4.909  -0.123   7.556  1.0799  0.0888 -0.5328
   29CHL1   C21 2124   4.892   0.100   7.548 -0.5534 -0.8579  0.2593
   29CHL1  H21A 2125   4.836   0.107   7.643 -0.9873 -1.6132  0.0750
   29CHL1  H21B 2126   4.827   0.113   7.459  2.2534 -1.3058 -2.0095
   29CHL1  H21C 2127   4.966   0.181   7.537 -1.6450 -0.1006 -2.4332
   29CHL1   C22 2128   5.061  -0.043   7.667  0.3365 -0.9003  0.9020
   29CHL1  H22A 2129   5.125  -0.132   7.650  3.3074  0.9663  1.6499
   29CHL1  H22B 2130   5.128   0.045   7.672  0.0299 -0.5450 -0.6795
   29CHL1   C23 2131   4.984  -0.053   7.799  0.3646 -0.6450 -0.0091
   29CHL1  H23A 2132   4.914   0.032   7.809  1.4604  0.2741  0.0323
   29CHL1  H23B 2133   4.937  -0.152   7.815  1.8092 -1.4229 -0.3719
   29CHL1   C24 2134   5.090  -0.044   7.906  0.7456  0.4535 -0.5531
   29CHL1  H24A 2135   5.149  -0.138   7.902  2.8473  1.6022  1.1249
   29CHL1  H24B 2136   5.156   0.046   7.904  0.7798  0.4553  0.5414
   29CHL1   C25 2137   5.031  -0.038   8.046 -1.2907  0.1145 -0.1920
   29CHL1   H25 2138   4.952  -0.114   8.065 -2.1400  1.1699  0.6310
   29CHL1   C26 2139   5.145  -0.069   8.144 -0.6794  0.0541 -0.1863
   29CHL1  H26A 2140   5.222   0.010   8.157 -1.5928  0.9240  0.0175
   29CHL1  H26B 2141   5.106  -0.095   8.245  1.1871 -0.5910  0.4139
   29CHL1  H26C 2142   5.209  -0.156   8.118 -0.3736 -0.2061  1.2997
   29CHL1   C27 2143   4.968   0.096   8.074 -0.6104 -0.0149 -0.5607
   29CHL1  H27A 2144   5.038   0.179   8.050  0.5008 -0.6292  0.4627
   29CHL1  H27B 2145   4.875   0.100   8.013 -1.1558 -2.4808  0.0101
   29CHL1  H27C 2146   4.945   0.100   8.182 -0.0115  1.9554 -0.4633
   30CHL1    C3 2147   3.443   4.905   7.129  0.0738 -0.4333  0.2524
   30CHL1    H3 2148   3.449   5.016   7.140  0.2860 -0.1980 -1.8875
   30CHL1    O3 2149   3.481   4.880   6.991 -0.5150  0.2425 -0.3689
   30CHL1   H3' 2150   3.526   4.960   6.963 -0.2042  1.2288  2.5928
   30CHL1    C4 2151   3.553   4.842   7.217  0.2365  0.0410  0.8119
   30CHL1   H4A 2152   3.581   4.741   7.179 -2.8875 -0.8767  0.6072
   30CHL1   H4B 2153   3.643   4.905   7.203  0.8489 -0.5956  1.7311
   30CHL1    C5 2154   3.504   4.837   7.365 -0.5005  0.4488  0.4986
   30CHL1    C6 2155   3.586   4.882   7.466 -0.1262  0.1304 -0.4034
   30CHL1    H6 2156   3.683   4.924   7.436 -0.4716  0.9383 -0.4171
   30CHL1    C7 2157   3.558   4.859   7.615  0.0467  0.0312  0.0359
   30CHL1   H7A 2158   3.646   4.825   7.674 -0.2018 -1.0075 -0.1683
   30CHL1   H7B 2159   3.533   4.955   7.663 -0.7511 -1.7340  3.4671
   30CHL1    C8 2160   3.448   4.760   7.637 -0.0744 -0.4113  0.0562
   30CHL1    H8 2161   3.500   4.661   7.629  1.9653  0.3040  2.8008
   30CHL1   C14 2162   3.396   4.784   7.781 -0.0568 -0.3411  0.0555
   30CHL1   H14 2163   3.348   4.884   7.782  1.1413  0.3131 -2.2263
   30CHL1   C15 2164   3.493   4.784   7.904  0.5139  0.3810 -0.4466
   30CHL1  H15A 2165   3.554   4.692   7.900 -1.5500 -1.0092 -2.0322
   30CHL1  H15B 2166   3.562   4.870   7.921  2.5106 -1.3520  0.6329
   30CHL1   C16 2167   3.393   4.787   8.025  0.1022  0.1723 -0.5189
   30CHL1  H16A 2168   3.427   4.713   8.100 -1.6814  0.2719  0.4576
   30CHL1  H16B 2169   3.391   4.887   8.075 -0.2065  0.2336 -0.6505
   30CHL1   C17 2170   3.252   4.757   7.972  0.3482  0.2394  0.2013
   30CHL1   H17 2171   3.204   4.855   7.956  3.7628  1.9697 -0.2891
   30CHL1   C13 2172   3.275   4.702   7.828 -0.1362 -0.2575 -0.0859
   30CHL1   C18 2173   3.316   4.551   7.847 -0.1789 -0.5710  0.3972
   30CHL1  H18A 2174   3.234   4.484   7.880 -0.3568 -0.6276 -0.1567
   30CHL1  H18B 2175   3.354   4.514   7.750  1.7080 -0.4210  1.0319
   30CHL1  H18C 2176   3.401   4.541   7.919  1.0908  0.7118 -0.8514
   30CHL1   C12 2177   3.165   4.719   7.720  0.2950  0.1126  0.5064
   30CHL1  H12A 2178   3.078   4.656   7.748  1.8715 -2.5922 -0.3464
   30CHL1  H12B 2179   3.133   4.825   7.730  0.5921  0.0386  2.4961
   30CHL1   C11 2180   3.216   4.685   7.577  0.5323  0.2375 -0.4526
   30CHL1  H11A 2181   3.243   4.577   7.584 -0.0653  0.1054 -0.1461
   30CHL1  H11B 2182   3.140   4.693   7.497  0.8741  0.7085 -0.7364
   30CHL1    C9 2183   3.336   4.778   7.537 -0.0329 -0.5826  0.4596
   30CHL1    H9 2184   3.293   4.880   7.550 -0.0267 -0.3046 -1.3350
   30CHL1   C10 2185   3.370   4.767   7.390  0.4613  0.7867 -0.2474
   30CHL1   C19 2186   3.379   4.619   7.348 -0.4972  0.4442  0.6503
   30CHL1  H19A 2187   3.281   4.567   7.353 -0.2385 -0.0258  0.8500
   30CHL1  H19B 2188   3.428   4.598   7.251  0.4953 -0.1660  1.2744
   30CHL1  H19C 2189   3.447   4.564   7.416 -2.9672 -2.5550  0.8946
   30CHL1    C1 2190   3.266   4.835   7.299 -0.9567  0.7094  0.3209
   30CHL1   H1A 2191   3.171   4.778   7.292 -0.4509  0.0671 -2.8381
   30CHL1   H1B 2192   3.251   4.936   7.344 -0.0823  0.8703  0.2675
   30CHL1    C2 2193   3.305   4.846   7.153  0.0528  0.0642  0.2285
   30CHL1   H2A 2194   3.236   4.907   7.092  0.8931  2.1481  1.2725
   30CHL1   H2B 2195   3.314   4.738   7.125 -2.5322 -1.4724  4.4667
   30CHL1   C20 2196   3.176   4.677   8.084  0.0651  0.3052  1.1369
   30CHL1   H20 2197   3.239   4.587   8.098  1.1748  0.4902 -1.9798
   30CHL1   C21 2198   3.039   4.634   8.039 -0.2261 -0.0450 -0.0680
   30CHL1  H21A 2199   2.996   4.729   8.001  0.3445  1.9224  3.7328
   30CHL1  H21B 2200   2.975   4.599   8.123 -0.3827  1.8391  0.6583
   30CHL1  H21C 2201   3.036   4.559   7.957 -2.7757 -0.0212 -0.0768
   30CHL1   C22 2202   3.161   4.751   8.217 -0.5481 -0.1809  0.4878
   30CHL1  H22A 2203   3.260   4.791   8.248 -0.3273 -1.5923  1.7189
   30CHL1  H22B 2204   3.088   4.834   8.205 -0.5319 -0.5524 -3.4120
   30CHL1   C23 2205   3.119   4.660   8.333  0.0100  0.3251  0.7049
   30CHL1  H23A 2206   3.012   4.634   8.321  0.1372 -0.4304  1.1708
   30CHL1  H23B 2207   3.191   4.576   8.329  1.7251  1.7320  0.3715
   30CHL1   C24 2208   3.142   4.724   8.463  0.4582  0.5339 -0.1877
   30CHL1  H24A 2209   3.249   4.739   8.489  1.0465 -2.9184 -0.1269
   30CHL1  H24B 2210   3.096   4.824   8.451  0.8771  0.7998  0.3746
   30CHL1   C25 2211   3.071   4.657   8.591  0.3386  0.6465  0.7666
   30CHL1   H25 2212   2.966   4.662   8.556  0.8989 -1.6925 -1.6633
   30CHL1   C26 2213   3.114   4.508   8.628 -0.5850 -0.4324 -0.0205
   30CHL1  H26A 2214   3.067   4.486   8.726  0.0501 -1.8534 -0.0198
   30CHL1  H26B 2215   3.076   4.434   8.554 -1.5065  0.6866 -0.7025
   30CHL1  H26C 2216   3.221   4.487   8.649 -1.0878 -2.7854  0.5336
   30CHL1   C27 2217   3.085   4.741   8.715 -0.0926  0.0121  0.6253
   30CHL1  H27A 2218   3.037   4.840   8.697 -1.7362 -0.8628  0.0897
   30CHL1  H27B 2219   3.031   4.686   8.795  0.0757  1.2287  1.6120
   30CHL1  H27C 2220   3.191   4.750   8.748  0.6218  0.0457 -1.5342
   31CHL1    C3 2221   2.212   5.492   6.700  0.6969  0.0584 -0.3033
   31CHL1    H3 2222   2.317   5.453   6.700 -0.6520 -4.0223 -0.5023
   31CHL1    O3 2223   2.173   5.514   6.564  0.1703 -0.1446 -0.4991
   31CHL1   H3' 2224   2.103   5.578   6.577 -0.1627 -0.3857 -1.0500
   31CHL1    C4 2225   2.126   5.382   6.759 -0.2366 -0.7401  0.3054
   31CHL1   H4A 2226   2.022   5.419   6.755  0.7719  2.4500  0.2265
   31CHL1   H4B 2227   2.142   5.287   6.704 -0.5349 -1.3720  1.2767
   31CHL1    C5 2228   2.166   5.363   6.904 -0.1885 -0.2075 -0.4264
   31CHL1    C6 2229   2.225   5.244   6.947 -0.0619 -0.4999 -0.1703
   31CHL1    H6 2230   2.240   5.169   6.869  4.1115  0.7461 -0.7949
   31CHL1    C7 2231   2.266   5.221   7.087 -0.5655 -0.8249 -0.5443
   31CHL1   H7A 2232   2.254   5.115   7.119  1.0867 -0.6362  0.8447
   31CHL1   H7B 2233   2.373   5.250   7.088 -1.0846  1.5560 -2.6305
   31CHL1    C8 2234   2.205   5.316   7.189  0.5248  0.2079  0.2174
   31CHL1    H8 2235   2.104   5.273   7.204  0.3216  0.5124 -0.2648
   31CHL1   C14 2236   2.277   5.307   7.320 -1.0290  0.6300 -0.4648
   31CHL1   H14 2237   2.384   5.334   7.305 -1.1144 -0.0719 -2.6453
   31CHL1   C15 2238   2.281   5.170   7.396 -0.0174  0.0952 -0.3615
   31CHL1  H15A 2239   2.177   5.133   7.390 -0.2645  0.7354 -0.1092
   31CHL1  H15B 2240   2.355   5.096   7.358  0.4893  0.7260 -0.6279
   31CHL1   C16 2241   2.314   5.205   7.543 -0.5020  0.5185 -0.2524
   31CHL1  H16A 2242   2.237   5.148   7.600 -0.7390  0.3973 -0.6871
   31CHL1  H16B 2243   2.417   5.182   7.575 -0.9943  0.3871  1.3563
   31CHL1   C17 2244   2.306   5.358   7.555  0.0845  0.3176 -0.3639
   31CHL1   H17 2245   2.413   5.387   7.545  0.8680 -1.4877  1.8841
   31CHL1   C13 2246   2.229   5.404   7.432  0.5282  0.9131  0.0380
   31CHL1   C18 2247   2.077   5.384   7.468 -0.2034 -1.1002  0.4087
   31CHL1  H18A 2248   2.051   5.465   7.539  1.7094 -1.3763  1.4847
   31CHL1  H18B 2249   2.019   5.398   7.374 -0.9027 -2.0104  0.6910
   31CHL1  H18C 2250   2.049   5.287   7.514 -0.1279 -0.0344  2.8078
   31CHL1   C12 2251   2.244   5.544   7.381  0.2046 -0.3610 -0.5303
   31CHL1  H12A 2252   2.195   5.606   7.459 -1.5986 -0.9137 -1.1711
   31CHL1  H12B 2253   2.353   5.565   7.385  0.2084 -0.2312 -1.2371
   31CHL1   C11 2254   2.182   5.566   7.247  0.7931 -0.3792 -1.0926
   31CHL1  H11A 2255   2.072   5.553   7.259  1.2316 -2.3117  1.3985
   31CHL1  H11B 2256   2.210   5.670   7.219  1.9901 -0.7755 -1.4162
   31CHL1    C9 2257   2.218   5.464   7.137  0.0791  0.5964 -0.9292
   31CHL1    H9 2258   2.326   5.486   7.125  0.4372 -0.1800  0.5893
   31CHL1   C10 2259   2.154   5.487   6.998  0.6179  0.1369 -0.5417
   31CHL1   C19 2260   2.007   5.526   7.011 -0.0747  0.5505  0.1316
   31CHL1  H19A 2261   1.956   5.463   7.087 -0.2682  1.5853  0.8895
   31CHL1  H19B 2262   1.983   5.629   7.045  0.5746  0.6294  0.3616
   31CHL1  H19C 2263   1.951   5.527   6.915  0.1542  2.3834 -0.0261
   31CHL1    C1 2264   2.229   5.608   6.928  0.7929  0.0948  0.1739
   31CHL1   H1A 2265   2.199   5.704   6.975  1.4735  0.7310 -0.6504
   31CHL1   H1B 2266   2.340   5.607   6.940  0.7336 -0.3825  0.6901
   31CHL1    C2 2267   2.189   5.620   6.778 -0.1761 -0.1808 -0.1458
   31CHL1   H2A 2268   2.241   5.707   6.733  0.1074 -0.0455  0.4265
   31CHL1   H2B 2269   2.079   5.635   6.777 -0.4460 -1.8165  0.9307
   31CHL1   C20 2270   2.266   5.397   7.699  0.3220  0.0678  0.3704
   31CHL1   H20 2271   2.160   5.366   7.714 -0.2137  1.8813  0.5627
   31CHL1   C21 2272   2.265   5.552   7.712  0.2153 -0.2342 -0.5270
   31CHL1  H21A 2273   2.294   5.584   7.815  1.3309  2.6519 -1.6314
   31CHL1  H21B 2274   2.167   5.597   7.682  0.3021 -0.2711 -0.8661
   31CHL1  H21C 2275   2.350   5.592   7.653  1.1224 -0.5579  0.5363
   31CHL1   C22 2276   2.359   5.336   7.805  0.0540 -0.1391 -0.1325
   31CHL1  H22A 2277   2.379   5.228   7.785  1.6522 -0.2827  1.8509
   31CHL1  H22B 2278   2.460   5.382   7.799  1.2064 -2.4528  0.2025
   31CHL1   C23 2279   2.297   5.347   7.947 -1.0922  0.4788  0.9312
   31CHL1  H23A 2280   2.288   5.454   7.975 -2.1599  0.9489 -1.0749
   31CHL1  H23B 2281   2.197   5.299   7.947 -0.7021 -0.3603 -0.1464
   31CHL1   C24 2282   2.379   5.265   8.045 -0.0452  0.3945  0.1847
   31CHL1  H24A 2283   2.392   5.157   8.022  1.3193  0.9036 -1.7234
   31CHL1  H24B 2284   2.482   5.307   8.052  1.7459 -3.5175 -0.0196
   31CHL1   C25 2285   2.317   5.266   8.185 -0.5763 -0.2394  0.5919
   31CHL1   H25 2286   2.211   5.234   8.178 -0.0676 -2.0589  0.5889
   31CHL1   C26 2287   2.401   5.177   8.274 -0.7082  0.0112 -0.3460
   31CHL1  H26A 2288   2.491   5.227   8.317 -1.3070  1.9624 -1.2634
   31CHL1  H26B 2289   2.348   5.152   8.368 -0.2037 -0.7182 -0.2481
   31CHL1  H26C 2290   2.430   5.079   8.232  1.0531  1.0650 -1.7545
   31CHL1   C27 2291   2.328   5.408   8.236 -0.7832 -0.4400 -0.1190
   31CHL1  H27A 2292   2.311   5.407   8.346  1.1121 -0.9025  0.2120
   31CHL1  H27B 2293   2.263   5.479   8.181  0.4602  0.8954  0.0913
   31CHL1  H27C 2294   2.435   5.435   8.228 -0.9304 -0.3965 -2.4544
   32CHL1    C3 2295   2.696   1.659   6.798  0.0763 -0.0860  0.1696
   32CHL1    H3 2296   2.796   1.615   6.776 -0.4246 -1.6269  0.7993
   32CHL1    O3 2297   2.657   1.746   6.692  0.3959 -0.1983  0.1057
   32CHL1   H3' 2298   2.562   1.751   6.681  0.5607 -0.1980 -1.7637
   32CHL1    C4 2299   2.592   1.549   6.808 -0.0785 -0.5094 -0.5606
   32CHL1   H4A 2300   2.486   1.581   6.826  0.0607 -0.7776  0.8623
   32CHL1   H4B 2301   2.604   1.480   6.722  0.8114 -0.8688 -0.1575
   32CHL1    C5 2302   2.629   1.467   6.935 -0.1412  0.1282  0.3063
   32CHL1    C6 2303   2.651   1.332   6.931 -0.3706 -0.8190 -0.3144
   32CHL1    H6 2304   2.658   1.282   6.833 -2.4756 -0.8728 -0.4727
   32CHL1    C7 2305   2.693   1.249   7.053  0.4004 -0.5535 -0.2898
   32CHL1   H7A 2306   2.636   1.155   7.043 -0.4797 -0.1344  0.6037
   32CHL1   H7B 2307   2.804   1.242   7.046  0.3559 -1.6068 -0.0984
   32CHL1    C8 2308   2.656   1.319   7.188 -0.6062  0.3128 -0.2479
   32CHL1    H8 2309   2.548   1.304   7.207 -0.1961 -0.8261  1.4036
   32CHL1   C14 2310   2.722   1.243   7.301  1.0254 -0.1769  0.3430
   32CHL1   H14 2311   2.833   1.245   7.290  1.2880 -0.8894  2.4027
   32CHL1   C15 2312   2.699   1.097   7.304  0.2814  0.1263 -0.8812
   32CHL1  H15A 2313   2.591   1.074   7.301  0.1943  0.4430 -0.2930
   32CHL1  H15B 2314   2.747   1.051   7.215  0.7636  3.1731 -2.2965
   32CHL1   C16 2315   2.756   1.052   7.433  0.6441  0.7050  0.3473
   32CHL1  H16A 2316   2.679   0.984   7.475 -1.0118  0.9503 -2.0843
   32CHL1  H16B 2317   2.853   1.001   7.420  1.1448  1.3131  1.5776
   32CHL1   C17 2318   2.768   1.176   7.524 -0.5469  0.7142 -0.3740
   32CHL1   H17 2319   2.875   1.204   7.517 -0.2146 -0.3556  0.3146
   32CHL1   C13 2320   2.687   1.285   7.445  0.7058  0.7180 -0.4379
   32CHL1   C18 2321   2.534   1.272   7.471  0.2433 -0.1706 -1.0280
   32CHL1  H18A 2322   2.474   1.330   7.398  0.3938  0.2592 -0.8115
   32CHL1  H18B 2323   2.495   1.168   7.482  0.7509 -0.1771  1.1673
   32CHL1  H18C 2324   2.524   1.319   7.571  1.5063  1.4111 -1.6051
   32CHL1   C12 2325   2.737   1.434   7.450  1.0759  0.5373  0.5548
   32CHL1  H12A 2326   2.696   1.484   7.541 -1.3096 -2.6429  1.4300
   32CHL1  H12B 2327   2.847   1.438   7.460  1.0885 -0.5181  0.9844
   32CHL1   C11 2328   2.685   1.524   7.332  0.6356  0.1243  0.4437
   32CHL1  H11A 2329   2.579   1.537   7.361  0.3966 -0.9082  0.0746
   32CHL1  H11B 2330   2.743   1.618   7.343  1.1076 -0.2733  1.4796
   32CHL1    C9 2331   2.700   1.460   7.194 -0.5232  0.0095 -0.3599
   32CHL1    H9 2332   2.810   1.466   7.176 -0.7159 -0.3005 -1.7793
   32CHL1   C10 2333   2.638   1.547   7.070  0.0021 -0.4135 -0.4106
   32CHL1   C19 2334   2.501   1.603   7.118 -0.1330 -0.3263  0.0114
   32CHL1  H19A 2335   2.426   1.524   7.139  1.7435 -2.2493 -0.2167
   32CHL1  H19B 2336   2.516   1.660   7.212  1.4707 -0.1696 -0.3038
   32CHL1  H19C 2337   2.451   1.673   7.047  0.8905  1.2940  0.8357
   32CHL1    C1 2338   2.739   1.663   7.045  0.0956 -0.2036  0.4260
   32CHL1   H1A 2339   2.749   1.725   7.137 -0.9742  0.6726 -0.0196
   32CHL1   H1B 2340   2.842   1.623   7.035  0.4960  0.5029  1.5370
   32CHL1    C2 2341   2.699   1.741   6.922 -0.3843  0.4249 -0.3093
   32CHL1   H2A 2342   2.777   1.817   6.898 -0.0801 -0.1123 -1.0340
   32CHL1   H2B 2343   2.596   1.784   6.932 -1.0409 -1.0736 -0.4185
   32CHL1   C20 2344   2.729   1.147   7.668 -0.6777  0.3881  0.0274
   32CHL1   H20 2345   2.623   1.118   7.686 -0.4805 -0.3564  0.0341
   32CHL1   C21 2346   2.762   1.270   7.751 -0.4514  0.3290 -0.2933
   32CHL1  H21A 2347   2.873   1.280   7.748 -0.1448 -2.3189 -2.3071
   32CHL1  H21B 2348   2.724   1.262   7.855 -2.0927 -2.3360 -1.0004
   32CHL1  H21C 2349   2.713   1.365   7.721 -0.6032  1.1319  2.3021
   32CHL1   C22 2350   2.809   1.022   7.727  0.5803  0.3235  0.2113
   32CHL1  H22A 2351   2.766   0.931   7.681  1.1603  1.0460 -1.9032
   32CHL1  H22B 2352   2.919   1.030   7.711  0.6036  0.3510  0.3846
   32CHL1   C23 2353   2.786   1.009   7.879  0.5139  0.2473 -0.0398
   32CHL1  H23A 2354   2.834   1.092   7.935 -0.9894  0.0984  1.5472
   32CHL1  H23B 2355   2.677   1.019   7.897  0.1484 -1.1980 -1.2161
   32CHL1   C24 2356   2.848   0.877   7.938  0.5699 -0.1247  0.0785
   32CHL1  H24A 2357   2.824   0.797   7.865 -0.4088 -0.2614  0.5433
   32CHL1  H24B 2358   2.959   0.879   7.940  0.6026  2.6048 -0.4003
   32CHL1   C25 2359   2.795   0.837   8.078 -0.5023 -0.1781 -0.3926
   32CHL1   H25 2360   2.688   0.806   8.079 -0.1610 -1.4585 -1.2094
   32CHL1   C26 2361   2.878   0.726   8.139  0.0184  0.1865  0.1798
   32CHL1  H26A 2362   2.985   0.754   8.125 -0.0582  1.7029  2.1426
   32CHL1  H26B 2363   2.861   0.715   8.248  1.6821  1.6457  0.6354
   32CHL1  H26C 2364   2.853   0.632   8.086 -0.9716  1.1373 -1.1090
   32CHL1   C27 2365   2.808   0.952   8.179 -0.4448  0.1919 -0.2110
   32CHL1  H27A 2366   2.910   0.995   8.179  0.0348 -0.9007  0.8865
   32CHL1  H27B 2367   2.733   1.028   8.148 -1.0392  0.2384  1.2219
   32CHL1  H27C 2368   2.769   0.920   8.278 -1.2626  0.4492 -0.4361
   33CHL1    C3 2369   2.690   5.018   6.901 -0.7920 -0.3089  0.4349
   33CHL1    H3 2370   2.707   5.116   6.951 -0.6099 -0.0555 -0.1255
   33CHL1    O3 2371   2.691   5.040   6.759  0.2182 -0.4498  0.0178
   33CHL1   H3' 2372   2.773   5.086   6.742  0.5911 -0.8126  0.7949
   33CHL1    C4 2373   2.793   4.912   6.946 -0.5501  0.1498 -0.1823
   33CHL1   H4A 2374   2.765   4.824   6.884  0.1642  1.3175 -2.2922
   33CHL1   H4B 2375   2.893   4.942   6.908  0.4910 -2.6416  0.1318
   33CHL1    C5 2376   2.787   4.887   7.093  0.0042  0.3510 -0.6118
   33CHL1    C6 2377   2.896   4.928   7.170  0.8458  0.3872 -0.5506
   33CHL1    H6 2378   2.990   4.957   7.123 -0.4532  1.9864 -2.3094
   33CHL1    C7 2379   2.896   4.931   7.325 -0.1469  0.5764  0.6464
   33CHL1   H7A 2380   2.988   4.879   7.359  0.9012  1.2946 -0.9365
   33CHL1   H7B 2381   2.901   5.034   7.367 -1.6018 -0.0589  2.4842
   33CHL1    C8 2382   2.779   4.852   7.383  0.0374 -1.0667  0.4823
   33CHL1    H8 2383   2.783   4.741   7.375 -1.3118 -1.1032 -0.0142
   33CHL1   C14 2384   2.767   4.895   7.529 -0.6357  0.5443 -0.3604
   33CHL1   H14 2385   2.751   5.005   7.541  1.2482  0.5135  4.6790
   33CHL1   C15 2386   2.893   4.867   7.619  0.3518  0.6675 -0.9507
   33CHL1  H15A 2387   2.930   4.763   7.601 -0.7567  0.0368  0.2996
   33CHL1  H15B 2388   2.980   4.934   7.600  2.1221 -1.2673 -0.1297
   33CHL1   C16 2389   2.836   4.875   7.762 -0.3267  0.2341  0.2185
   33CHL1  H16A 2390   2.880   4.786   7.812 -0.2623 -0.1773 -0.5709
   33CHL1  H16B 2391   2.877   4.957   7.826  0.3608 -0.7017  1.0154
   33CHL1   C17 2392   2.680   4.876   7.752 -0.9972 -1.0693 -0.9802
   33CHL1   H17 2393   2.656   4.984   7.750 -3.7205 -1.4733  2.0416
   33CHL1   C13 2394   2.648   4.827   7.603  0.0596 -0.0416 -0.8702
   33CHL1   C18 2395   2.645   4.675   7.601  0.5406  1.2235 -0.4249
   33CHL1  H18A 2396   2.645   4.647   7.493 -0.1962 -2.7553  0.4481
   33CHL1  H18B 2397   2.728   4.620   7.651 -1.0796  0.2877  1.3650
   33CHL1  H18C 2398   2.551   4.630   7.641  1.3674  1.1476  1.5317
   33CHL1   C12 2399   2.516   4.882   7.529  0.2510  0.5547  0.1029
   33CHL1  H12A 2400   2.434   4.815   7.562  0.0485  2.3877  3.9246
   33CHL1  H12B 2401   2.497   4.988   7.559 -3.7023 -0.6550  2.6862
   33CHL1   C11 2402   2.523   4.864   7.374  0.5732  0.1959 -0.2834
   33CHL1  H11A 2403   2.506   4.755   7.359 -1.7928  0.7371 -2.3171
   33CHL1  H11B 2404   2.427   4.904   7.336  0.5313  0.2507 -0.1202
   33CHL1    C9 2405   2.653   4.900   7.311  0.3111  0.2238  0.5200
   33CHL1    H9 2406   2.642   5.010   7.317 -2.0476  0.0540  0.1600
   33CHL1   C10 2407   2.650   4.872   7.156  0.1642 -0.0817  0.5120
   33CHL1   C19 2408   2.633   4.722   7.125 -0.4018 -0.7473  0.8701
   33CHL1  H19A 2409   2.534   4.682   7.157 -0.7697 -1.7412 -1.3627
   33CHL1  H19B 2410   2.634   4.693   7.018 -0.8479  1.0430  0.3507
   33CHL1  H19C 2411   2.705   4.664   7.187 -0.3924 -1.0606  0.5681
   33CHL1    C1 2412   2.541   4.950   7.088  0.6105  0.0624 -0.5364
   33CHL1   H1A 2413   2.446   4.895   7.105  1.1882 -0.7005  0.3773
   33CHL1   H1B 2414   2.544   5.055   7.125 -0.5077 -0.6153  1.6843
   33CHL1    C2 2415   2.556   4.961   6.935  0.5443 -0.0065  0.5803
   33CHL1   H2A 2416   2.482   5.037   6.903 -0.5644 -0.7816  1.2386
   33CHL1   H2B 2417   2.541   4.866   6.880 -0.5630  1.1646 -1.2147
   33CHL1   C20 2418   2.608   4.822   7.875 -0.1810  0.5681 -0.3312
   33CHL1   H20 2419   2.598   4.712   7.867  1.7437  0.4699 -2.0919
   33CHL1   C21 2420   2.459   4.869   7.862  1.1515 -0.2784  0.3096
   33CHL1  H21A 2421   2.451   4.978   7.878 -0.1497 -0.1832 -0.8689
   33CHL1  H21B 2422   2.400   4.811   7.936 -0.7686  1.8732  0.5480
   33CHL1  H21C 2423   2.403   4.847   7.769  1.1389 -3.7841  1.0137
   33CHL1   C22 2424   2.662   4.869   8.008 -0.7025 -0.3504 -0.4413
   33CHL1  H22A 2425   2.772   4.877   7.998 -0.8422  0.8908 -1.1112
   33CHL1  H22B 2426   2.632   4.975   8.015  0.2272 -0.1077  0.0196
   33CHL1   C23 2427   2.608   4.791   8.131  0.2070 -0.0155  0.5290
   33CHL1  H23A 2428   2.511   4.838   8.159  1.2600  2.0844  0.8449
   33CHL1  H23B 2429   2.588   4.682   8.120 -0.6828  0.3287 -2.0777
   33CHL1   C24 2430   2.696   4.809   8.253 -0.5853  0.0452 -0.0207
   33CHL1  H24A 2431   2.785   4.744   8.239  0.0121  0.9627 -0.5853
   33CHL1  H24B 2432   2.732   4.913   8.265 -2.2232  0.4792  1.7878
   33CHL1   C25 2433   2.633   4.759   8.384  0.0781  0.2761  0.3523
   33CHL1   H25 2434   2.705   4.776   8.467  1.8930 -0.7403 -0.9430
   33CHL1   C26 2435   2.505   4.835   8.419 -0.4131 -0.6456  0.3949
   33CHL1  H26A 2436   2.425   4.815   8.345 -0.2891  0.1462  0.0393
   33CHL1  H26B 2437   2.459   4.821   8.519 -3.5278  0.1344 -0.8070
   33CHL1  H26C 2438   2.519   4.945   8.413  3.0759 -0.9859  0.1984
   33CHL1   C27 2439   2.616   4.605   8.389  0.0030 -0.5666 -0.5610
   33CHL1  H27A 2440   2.568   4.556   8.302  1.7227  0.6071 -2.2559
   33CHL1  H27B 2441   2.717   4.560   8.400 -0.9487 -2.4471  1.1724
   33CHL1  H27C 2442   2.569   4.574   8.485 -0.4886  0.6076 -0.4061
   34CHL1    C3 2443   3.855   5.330   6.714  0.0974 -0.0077  0.1028
   34CHL1    H3 2444   3.912   5.426   6.714 -1.2254  0.8787  2.7223
   34CHL1    O3 2445   3.831   5.287   6.582  0.3666  0.5411  0.1548
   34CHL1   H3' 2446   3.767   5.346   6.542  0.7350  0.9230  0.1245
   34CHL1    C4 2447   3.951   5.231   6.782  1.0345  0.3306 -0.4083
   34CHL1   H4A 2448   3.924   5.127   6.754  1.4330  0.0642  0.1542
   34CHL1   H4B 2449   4.041   5.243   6.718  2.1336 -0.1497  0.9835
   34CHL1    C5 2450   3.978   5.259   6.930  0.8570  0.2198 -0.1092
   34CHL1    C6 2451   4.100   5.277   6.980  0.3619 -0.0644 -0.4123
   34CHL1    H6 2452   4.186   5.264   6.914 -0.9226 -1.6640 -1.8732
   34CHL1    C7 2453   4.139   5.316   7.119  0.3480 -0.4469  0.0492
   34CHL1   H7A 2454   4.234   5.274   7.159  0.1944  0.1528  1.1034
   34CHL1   H7B 2455   4.155   5.426   7.123 -1.9146 -0.0646  0.3691
   34CHL1    C8 2456   4.019   5.286   7.216  0.7406 -0.3837  0.4505
   34CHL1    H8 2457   4.008   5.177   7.236 -0.2356 -0.3963 -0.0786
   34CHL1   C14 2458   4.026   5.359   7.348  0.0398  0.4167 -0.6507
   34CHL1   H14 2459   4.001   5.464   7.322 -0.4953  0.7080  0.9083
   34CHL1   C15 2460   4.159   5.361   7.424 -0.3126 -0.5550 -0.8015
   34CHL1  H15A 2461   4.216   5.267   7.440  1.6740  0.9939  2.1333
   34CHL1  H15B 2462   4.236   5.423   7.374  0.5745 -1.4603 -0.5703
   34CHL1   C16 2463   4.122   5.429   7.558 -0.1117  0.1073  0.3504
   34CHL1  H16A 2464   4.167   5.374   7.643  0.5670  2.2500  1.4608
   34CHL1  H16B 2465   4.153   5.536   7.546  0.3107 -0.1425 -1.0155
   34CHL1   C17 2466   3.965   5.420   7.570  0.1443  0.9370  0.5826
   34CHL1   H17 2467   3.925   5.517   7.532  1.4451  0.9520 -0.8338
   34CHL1   C13 2468   3.919   5.323   7.454  0.2827 -0.2151 -0.5370
   34CHL1   C18 2469   3.946   5.178   7.500 -0.3314  0.1586  1.1966
   34CHL1  H18A 2470   4.048   5.176   7.543 -0.7649 -0.6519  2.2276
   34CHL1  H18B 2471   3.884   5.142   7.585  0.2639 -0.5960  1.3195
   34CHL1  H18C 2472   3.950   5.099   7.422  1.7136  0.3617  1.0402
   34CHL1   C12 2473   3.778   5.354   7.400  0.1076 -0.1967 -0.4531
   34CHL1  H12A 2474   3.698   5.318   7.467  0.0158 -0.6347 -0.7958
   34CHL1  H12B 2475   3.773   5.465   7.400  2.2116 -0.0337  0.9861
   34CHL1   C11 2476   3.763   5.300   7.255  0.7138 -0.4482  0.6956
   34CHL1  H11A 2477   3.737   5.193   7.269 -0.3661 -0.2971  0.0426
   34CHL1  H11B 2478   3.674   5.344   7.204  0.9330 -0.2834  0.4526
   34CHL1    C9 2479   3.882   5.327   7.159 -0.1778  0.1521  0.4767
   34CHL1    H9 2480   3.875   5.436   7.136 -2.8619 -0.0441  0.0134
   34CHL1   C10 2481   3.852   5.281   7.014 -0.0427  0.1438 -0.2733
   34CHL1   C19 2482   3.791   5.139   7.017  0.0275 -0.3166 -0.2558
   34CHL1  H19A 2483   3.683   5.140   7.044 -0.3435 -0.5467 -1.6427
   34CHL1  H19B 2484   3.799   5.080   6.923  0.6190  0.7017 -0.8679
   34CHL1  H19C 2485   3.847   5.064   7.076  0.6900  0.1528 -0.2729
   34CHL1    C1 2486   3.756   5.387   6.938 -0.5303  0.0306 -0.5761
   34CHL1   H1A 2487   3.649   5.386   6.969 -1.4832  1.2012 -3.4869
   34CHL1   H1B 2488   3.797   5.490   6.935  0.1595 -0.2189  0.1388
   34CHL1    C2 2489   3.724   5.341   6.789  0.3296 -0.1919 -0.5046
   34CHL1   H2A 2490   3.656   5.422   6.753  0.7005 -0.5517 -2.0941
   34CHL1   H2B 2491   3.659   5.251   6.787 -1.1716  0.8490 -2.0369
   34CHL1   C20 2492   3.925   5.394   7.719  0.3260  0.5563  0.7667
   34CHL1   H20 2493   3.953   5.290   7.745 -0.9665  0.1646  0.6163
   34CHL1   C21 2494   3.765   5.395   7.726  0.7123  0.2972  0.4633
   34CHL1  H21A 2495   3.714   5.321   7.660 -1.5386  2.3493 -0.2853
   34CHL1  H21B 2496   3.740   5.496   7.687  0.4948  0.2084  0.3688
   34CHL1  H21C 2497   3.724   5.389   7.829 -2.6792  2.2252 -0.5927
   34CHL1   C22 2498   3.989   5.498   7.816  0.6063 -0.2418 -0.3129
   34CHL1  H22A 2499   4.099   5.501   7.808  0.4982 -1.3251 -2.9309
   34CHL1  H22B 2500   3.954   5.598   7.783  1.0754 -0.0257 -0.1538
   34CHL1   C23 2501   3.965   5.456   7.958  0.3357  0.1174  0.3794
   34CHL1  H23A 2502   3.855   5.455   7.972  0.3524  1.3793  0.7848
   34CHL1  H23B 2503   3.998   5.352   7.976 -1.5247 -0.9267 -1.8048
   34CHL1   C24 2504   4.031   5.555   8.060 -0.3907  0.3124 -0.4404
   34CHL1  H24A 2505   4.133   5.568   8.017 -0.7152 -0.7714 -1.6103
   34CHL1  H24B 2506   3.986   5.657   8.057 -0.5830  0.3144  1.4176
   34CHL1   C25 2507   4.040   5.495   8.199 -0.2154  0.0488 -0.3974
   34CHL1   H25 2508   4.086   5.397   8.174  1.0457  0.8675 -1.3467
   34CHL1   C26 2509   4.116   5.593   8.280 -0.6171 -0.1474  0.3704
   34CHL1  H26A 2510   4.218   5.613   8.241  0.5766 -1.4198  2.6138
   34CHL1  H26B 2511   4.067   5.692   8.272 -0.2606 -0.1195 -2.2815
   34CHL1  H26C 2512   4.132   5.558   8.384 -0.8875 -1.7303 -0.0864
   34CHL1   C27 2513   3.907   5.443   8.256  0.5996  0.8158 -0.7775
   34CHL1  H27A 2514   3.827   5.519   8.267  0.6482  0.6964  0.5393
   34CHL1  H27B 2515   3.857   5.358   8.204  2.1657  0.5207 -1.8799
   34CHL1  H27C 2516   3.923   5.403   8.358 -2.3015 -0.4714 -0.7162
   35CHL1    C3 2517   5.323   4.899   7.068  0.6286 -0.3088  0.1189
   35CHL1    H3 2518   5.217   4.867   7.058  0.1277  1.6259 -1.1047
   35CHL1    O3 2519   5.377   4.936   6.944  0.9696 -0.6412  0.3573
   35CHL1   H3' 2520   5.309   4.942   6.877  1.5530 -2.1993 -0.4199
   35CHL1    C4 2521   5.307   5.025   7.148 -0.6648 -0.3685  0.5979
   35CHL1   H4A 2522   5.407   5.065   7.172 -1.0019 -0.3059  1.9876
   35CHL1   H4B 2523   5.243   5.101   7.099 -1.2259 -0.8263  0.6074
   35CHL1    C5 2524   5.248   4.995   7.283  0.5708 -0.6144 -0.5547
   35CHL1    C6 2525   5.131   5.044   7.313 -0.2272 -0.5398 -0.4002
   35CHL1    H6 2526   5.085   5.117   7.246  0.9667  0.9349  0.3249
   35CHL1    C7 2527   5.056   5.029   7.447 -1.0341  0.7178 -0.7738
   35CHL1   H7A 2528   5.029   5.127   7.491  0.0124  0.3044  0.8978
   35CHL1   H7B 2529   4.962   4.971   7.439  0.2499 -1.4920 -0.7928
   35CHL1    C8 2530   5.148   4.965   7.557  0.2261  0.1299 -0.4254
   35CHL1    H8 2531   5.213   5.044   7.601  0.9245 -0.6923  0.0718
   35CHL1   C14 2532   5.063   4.903   7.662  0.0195  0.2699 -0.1164
   35CHL1   H14 2533   4.993   4.830   7.617 -0.4030 -1.4977  3.1368
   35CHL1   C15 2534   4.966   5.004   7.737 -0.4058  0.5544 -0.1888
   35CHL1  H15A 2535   5.022   5.096   7.764  1.6060 -0.7111  0.1834
   35CHL1  H15B 2536   4.875   5.035   7.682  0.0675  0.1339 -1.2429
   35CHL1   C16 2537   4.919   4.918   7.858  0.2819  0.1312 -0.3377
   35CHL1  H16A 2538   4.913   4.976   7.953 -0.9399  2.3880 -1.7382
   35CHL1  H16B 2539   4.825   4.874   7.819  1.2827  0.2910 -3.1053
   35CHL1   C17 2540   5.008   4.792   7.870 -0.7822  0.5907  0.7360
   35CHL1   H17 2541   4.952   4.705   7.829  1.8022 -0.7342 -0.1736
   35CHL1   C13 2542   5.133   4.816   7.773  0.5158 -0.1181 -0.0718
   35CHL1   C18 2543   5.239   4.908   7.851  0.2957  0.0487  0.5971
   35CHL1  H18A 2544   5.331   4.927   7.790 -0.9422  0.0371 -1.3600
   35CHL1  H18B 2545   5.204   5.011   7.873 -2.1436 -0.9516  1.7604
   35CHL1  H18C 2546   5.284   4.862   7.942  2.4973  0.1737 -0.3554
   35CHL1   C12 2547   5.199   4.701   7.700 -0.0119  0.5685 -0.8073
   35CHL1  H12A 2548   5.259   4.640   7.770 -1.4585 -2.1954 -1.8030
   35CHL1  H12B 2549   5.122   4.631   7.661  0.3652 -0.1761 -0.2391
   35CHL1   C11 2550   5.293   4.750   7.585 -0.1272  0.7773 -0.6747
   35CHL1  H11A 2551   5.388   4.780   7.635 -0.2971 -1.5720  1.2144
   35CHL1  H11B 2552   5.328   4.667   7.519  0.1665  1.5718 -1.5534
   35CHL1    C9 2553   5.230   4.852   7.487  0.1486  0.6251 -0.5759
   35CHL1    H9 2554   5.155   4.785   7.439  0.0243 -0.9390  1.6829
   35CHL1   C10 2555   5.319   4.896   7.368  0.7942 -0.5483  0.2010
   35CHL1   C19 2556   5.447   4.959   7.433 -0.5365  0.5146 -0.0141
   35CHL1  H19A 2557   5.431   5.034   7.513  1.4016  1.3734 -0.3932
   35CHL1  H19B 2558   5.489   4.868   7.481 -2.6249 -0.1254  0.7141
   35CHL1  H19C 2559   5.515   4.995   7.354  1.0486  0.2542  1.1902
   35CHL1    C1 2560   5.356   4.779   7.277 -0.0309  0.4663 -0.3014
   35CHL1   H1A 2561   5.428   4.719   7.337  2.2694  4.2902  1.1044
   35CHL1   H1B 2562   5.263   4.721   7.258 -1.3112  1.7739  1.5743
   35CHL1    C2 2563   5.418   4.805   7.139 -0.5234 -0.4106 -0.2379
   35CHL1   H2A 2564   5.445   4.714   7.082 -1.3215 -0.0642 -1.1853
   35CHL1   H2B 2565   5.517   4.842   7.174 -1.0332 -1.9303  3.1924
   35CHL1   C20 2566   5.027   4.756   8.019 -0.0452 -0.0583  0.2288
   35CHL1   H20 2567   5.087   4.840   8.060 -1.1244 -0.2162  2.2719
   35CHL1   C21 2568   5.119   4.627   8.018  0.1619 -0.7267  0.3426
   35CHL1  H21A 2569   5.113   4.573   8.114  0.7274 -0.5383  0.4873
   35CHL1  H21B 2570   5.222   4.660   7.996 -0.7731  2.3599  0.1426
   35CHL1  H21C 2571   5.083   4.554   7.942  2.7751  0.0994 -1.8366
   35CHL1   C22 2572   4.895   4.744   8.093  0.5115 -0.5100  0.1419
   35CHL1  H22A 2573   4.834   4.837   8.095 -1.2442 -1.5728 -1.5176
   35CHL1  H22B 2574   4.831   4.670   8.040  1.1027 -2.0613  1.5222
   35CHL1   C23 2575   4.907   4.719   8.248 -0.4034 -0.3504  0.0654
   35CHL1  H23A 2576   4.962   4.625   8.274  0.6404  0.7591  2.1488
   35CHL1  H23B 2577   4.966   4.797   8.302  1.7619 -2.5528  1.0932
   35CHL1   C24 2578   4.768   4.712   8.310 -0.2201  0.3027  0.2495
   35CHL1  H24A 2579   4.722   4.812   8.297  0.5390  0.4958 -1.1465
   35CHL1  H24B 2580   4.699   4.642   8.259 -2.0544 -0.7489  3.8128
   35CHL1   C25 2581   4.768   4.673   8.460  0.0193  0.2135 -0.3245
   35CHL1   H25 2582   4.810   4.571   8.468 -1.8400 -0.5971 -0.4993
   35CHL1   C26 2583   4.841   4.772   8.557 -0.8088  0.2088 -0.0659
   35CHL1  H26A 2584   4.939   4.789   8.507 -1.7884 -1.4567 -2.7359
   35CHL1  H26B 2585   4.785   4.865   8.579  1.1911  0.7628  3.4822
   35CHL1  H26C 2586   4.856   4.730   8.659  0.8697 -0.4055 -0.5348
   35CHL1   C27 2587   4.629   4.668   8.492 -0.0228  0.2375 -0.2151
   35CHL1  H27A 2588   4.578   4.767   8.485 -4.1634 -1.7177 -0.9749
   35CHL1  H27B 2589   4.604   4.647   8.598 -2.5714 -0.1304 -0.8154
   35CHL1  H27C 2590   4.570   4.599   8.429 -1.0396  1.6351 -0.8468
   36CHL1    C3 2591   0.652   3.249   6.998  0.0755  0.4563 -0.5183
   36CHL1    H3 2592   0.547   3.229   7.026  0.2346  0.6140  0.1966
   36CHL1    O3 2593   0.649   3.258   6.858  0.4575  0.2993 -0.0759
   36CHL1   H3' 2594   0.727   3.213   6.823  0.5191  1.1072 -1.0178
   36CHL1    C4 2595   0.691   3.384   7.069 -1.4063  0.1602 -0.0977
   36CHL1   H4A 2596   0.795   3.414   7.046 -1.3181 -1.4650 -2.1151
   36CHL1   H4B 2597   0.633   3.469   7.029  0.8403  2.1443  0.6600
   36CHL1    C5 2598   0.682   3.372   7.220  0.5910 -0.4477  0.7926
   36CHL1    C6 2599   0.607   3.465   7.286 -0.3846  0.5387 -1.0066
   36CHL1    H6 2600   0.549   3.539   7.230 -1.7524  0.8767  0.7642
   36CHL1    C7 2601   0.580   3.458   7.435 -0.0081  0.0322 -0.3894
   36CHL1   H7A 2602   0.616   3.557   7.470 -0.3779  0.4765 -1.2451
   36CHL1   H7B 2603   0.477   3.445   7.473  0.0446  0.4302 -0.1068
   36CHL1    C8 2604   0.674   3.356   7.507  0.8589  0.2347  1.1050
   36CHL1    H8 2605   0.771   3.410   7.512 -0.5499  2.8658  1.3794
   36CHL1   C14 2606   0.614   3.318   7.645 -0.0749 -0.2069  0.2985
   36CHL1   H14 2607   0.523   3.261   7.619 -0.3057 -0.3982  1.4543
   36CHL1   C15 2608   0.557   3.429   7.728  0.2932 -0.0455  0.0627
   36CHL1  H15A 2609   0.645   3.496   7.745  0.1173  0.8196 -2.0796
   36CHL1  H15B 2610   0.474   3.490   7.686  1.1977  0.8214 -0.5157
   36CHL1   C16 2611   0.517   3.354   7.851 -0.3913  0.2554 -0.3156
   36CHL1  H16A 2612   0.547   3.410   7.943 -1.0876 -0.4355  0.3469
   36CHL1  H16B 2613   0.410   3.328   7.860 -1.0891  2.9817  0.2653
   36CHL1   C17 2614   0.608   3.221   7.858 -0.3828 -0.2736 -0.2206
   36CHL1   H17 2615   0.548   3.128   7.846 -1.7908  0.2408  2.2813
   36CHL1   C13 2616   0.694   3.230   7.733 -0.5869  0.1564  0.0270
   36CHL1   C18 2617   0.830   3.298   7.762  0.1010 -0.4296  0.7269
   36CHL1  H18A 2618   0.824   3.405   7.791  1.9566 -0.1984  0.3275
   36CHL1  H18B 2619   0.904   3.248   7.827  1.4156  0.3567 -0.1169
   36CHL1  H18C 2620   0.884   3.298   7.666  1.5509  1.2336  1.4958
   36CHL1   C12 2621   0.711   3.102   7.648  0.3519 -0.4704 -0.6132
   36CHL1  H12A 2622   0.782   3.042   7.709 -0.0007  1.1880  1.5669
   36CHL1  H12B 2623   0.618   3.040   7.647 -0.6156  0.9037  0.3239
   36CHL1   C11 2624   0.770   3.119   7.507  0.0373 -0.3682  0.3275
   36CHL1  H11A 2625   0.874   3.156   7.513 -0.9538  3.0070 -0.9047
   36CHL1  H11B 2626   0.771   3.024   7.450  0.5847 -0.4274  0.4340
   36CHL1    C9 2627   0.699   3.229   7.423  0.1895  0.4011  0.4986
   36CHL1    H9 2628   0.600   3.183   7.400  0.7344 -0.7850  0.4852
   36CHL1   C10 2629   0.752   3.249   7.279 -0.8522  0.3135  0.0138
   36CHL1   C19 2630   0.907   3.279   7.274  0.9075 -0.1473 -0.4796
   36CHL1  H19A 2631   0.940   3.288   7.168  0.5538  1.4794 -0.4658
   36CHL1  H19B 2632   0.932   3.376   7.322  0.3253  1.2264 -2.8160
   36CHL1  H19C 2633   0.958   3.195   7.326  2.2589  0.3068 -1.0232
   36CHL1    C1 2634   0.718   3.125   7.203  0.0086  0.6158 -0.0642
   36CHL1   H1A 2635   0.776   3.038   7.239  0.5339  0.9752 -0.0292
   36CHL1   H1B 2636   0.614   3.095   7.225  0.4824 -0.1216  1.2569
   36CHL1    C2 2637   0.736   3.133   7.055 -0.1473 -0.0742  0.9723
   36CHL1   H2A 2638   0.706   3.041   7.000  0.2853  0.4420 -0.1549
   36CHL1   H2B 2639   0.843   3.137   7.028 -0.2648 -2.2858 -0.0932
   36CHL1   C20 2640   0.669   3.193   7.999  0.3310  0.1939 -0.3246
   36CHL1   H20 2641   0.716   3.286   8.037  0.9675 -0.1545 -0.2347
   36CHL1   C21 2642   0.771   3.076   8.001 -0.1461 -0.9375  0.1653
   36CHL1  H21A 2643   0.860   3.109   7.944 -0.9157  0.0971 -0.4830
   36CHL1  H21B 2644   0.725   2.995   7.941  1.8016 -0.6828 -1.7844
   36CHL1  H21C 2645   0.796   3.051   8.107  0.7092 -0.3970  0.0969
   36CHL1   C22 2646   0.561   3.162   8.112  0.3028 -0.1795 -0.3567
   36CHL1  H22A 2647   0.529   3.058   8.088  0.4316 -0.6755  1.4331
   36CHL1  H22B 2648   0.615   3.159   8.209 -0.6607 -1.9342  0.1811
   36CHL1   C23 2649   0.432   3.248   8.136 -0.4980  0.4941 -0.8633
   36CHL1  H23A 2650   0.370   3.263   8.046 -1.6528  2.3542  0.1802
   36CHL1  H23B 2651   0.378   3.195   8.218  1.9452 -0.5231  0.1807
   36CHL1   C24 2652   0.451   3.384   8.195 -0.1970  0.1799 -0.3223
   36CHL1  H24A 2653   0.496   3.366   8.295 -0.2748 -3.6862 -0.8007
   36CHL1  H24B 2654   0.511   3.458   8.139 -0.7796  0.8764 -0.0391
   36CHL1   C25 2655   0.319   3.460   8.212 -0.3421 -0.2006 -0.6462
   36CHL1   H25 2656   0.253   3.387   8.265  0.7892  0.5045  1.8873
   36CHL1   C26 2657   0.342   3.574   8.303  0.1327 -0.4795  0.6252
   36CHL1  H26A 2658   0.247   3.632   8.313  0.8831  0.7963  0.6084
   36CHL1  H26B 2659   0.392   3.549   8.399 -0.9112 -0.0161  1.3025
   36CHL1  H26C 2660   0.396   3.647   8.238 -1.1059 -1.0035 -1.0792
   36CHL1   C27 2661   0.262   3.500   8.079  0.6037  0.3655  0.8157
   36CHL1  H27A 2662   0.170   3.561   8.094  0.3803  0.0193  0.8435
   36CHL1  H27B 2663   0.337   3.566   8.030  2.4741 -1.8213  0.5428
   36CHL1  H27C 2664   0.250   3.413   8.012  1.7102 -0.1247  1.2277
   37CHL1    C3 2665   5.667   0.145   6.941 -0.7876  0.4668  0.0957
   37CHL1    H3 2666   5.667   0.256   6.944  1.7066  0.5410 -0.3410
   37CHL1    O3 2667   5.690   0.113   6.807 -0.3764  0.1744 -0.6875
   37CHL1   H3' 2668   5.655   0.026   6.787  1.6642 -0.8969  0.0714
   37CHL1    C4 2669   5.790   0.105   7.029  0.2725  1.2421  0.3272
   37CHL1   H4A 2670   5.806  -0.004   7.013 -0.2272  1.2540 -0.2468
   37CHL1   H4B 2671   5.874   0.153   6.973 -0.2497  0.1836 -1.4183
   37CHL1    C5 2672   5.773   0.139   7.177 -0.3480  0.5091  0.0167
   37CHL1    C6 2673   5.852   0.222   7.237 -0.3810 -0.0741 -0.0068
   37CHL1    H6 2674   5.939   0.261   7.181  0.7634 -0.9146  1.1331
   37CHL1    C7 2675   5.848   0.261   7.379  0.2000  0.3446  0.6562
   37CHL1   H7A 2676   5.951   0.257   7.421  0.6576 -0.1284 -0.4653
   37CHL1   H7B 2677   5.817   0.368   7.384  2.0166  1.0123 -0.9725
   37CHL1    C8 2678   5.744   0.183   7.460  0.7115  0.0484 -0.4439
   37CHL1    H8 2679   5.792   0.085   7.483  0.6007  0.5139  2.0297
   37CHL1   C14 2680   5.723   0.245   7.592  0.4902  0.2312 -0.6240
   37CHL1   H14 2681   5.670   0.342   7.578 -0.5929 -0.1031  0.8619
   37CHL1   C15 2682   5.848   0.278   7.684  0.8761 -0.0908 -0.4368
   37CHL1  H15A 2683   5.915   0.190   7.691  2.9121  1.5321  2.9733
   37CHL1  H15B 2684   5.900   0.366   7.641  0.3924  0.7646  0.6718
   37CHL1   C16 2685   5.772   0.309   7.817 -0.7032  0.6999  0.0358
   37CHL1  H16A 2686   5.822   0.274   7.909 -2.5729 -1.9705  0.1490
   37CHL1  H16B 2687   5.763   0.420   7.812  2.1989  0.9625 -2.5133
   37CHL1   C17 2688   5.626   0.259   7.803  0.2353  0.6526  0.0810
   37CHL1   H17 2689   5.560   0.345   7.777 -0.3606  0.5032  1.0346
   37CHL1   C13 2690   5.619   0.164   7.677  0.3333 -0.3255 -0.2500
   37CHL1   C18 2691   5.663   0.028   7.720  0.0488  0.1533  0.0161
   37CHL1  H18A 2692   5.575  -0.015   7.774  0.4605 -1.2048 -0.3497
   37CHL1  H18B 2693   5.693  -0.038   7.636  0.6546  0.6307 -0.1491
   37CHL1  H18C 2694   5.743   0.039   7.795  0.9358  1.4702 -1.0639
   37CHL1   C12 2695   5.486   0.159   7.605  0.4016 -0.0807  0.1947
   37CHL1  H12A 2696   5.408   0.108   7.666 -0.3784  1.1397  0.2518
   37CHL1  H12B 2697   5.457   0.264   7.581 -3.5944 -1.3371 -1.3461
   37CHL1   C11 2698   5.494   0.096   7.459 -0.4265 -0.9623  0.0690
   37CHL1  H11A 2699   5.509  -0.013   7.471 -0.7685 -1.0192 -0.0105
   37CHL1  H11B 2700   5.400   0.124   7.407 -0.5048  0.4011  0.8906
   37CHL1    C9 2701   5.610   0.162   7.378 -0.4530  0.3640 -0.0350
   37CHL1    H9 2702   5.569   0.265   7.368 -2.5392 -0.2215  1.6167
   37CHL1   C10 2703   5.638   0.098   7.235  0.3296  0.0412 -0.4863
   37CHL1   C19 2704   5.644  -0.052   7.256  0.2239  0.1189  0.3098
   37CHL1  H19A 2705   5.549  -0.101   7.287  0.6538 -0.6726  0.4108
   37CHL1  H19B 2706   5.682  -0.101   7.164  1.0556 -0.3370  0.8835
   37CHL1  H19C 2707   5.719  -0.070   7.336 -1.0630  0.6169  1.6707
   37CHL1    C1 2708   5.516   0.127   7.141 -0.2909  1.1364  0.1477
   37CHL1   H1A 2709   5.421   0.076   7.168  0.6438 -1.0282 -0.4868
   37CHL1   H1B 2710   5.504   0.238   7.148 -1.1070  1.0844 -0.2157
   37CHL1    C2 2711   5.541   0.083   6.998  0.3512 -0.5980 -0.0098
   37CHL1   H2A 2712   5.447   0.095   6.938  0.4238  1.0155  0.1523
   37CHL1   H2B 2713   5.545  -0.028   6.994 -0.1353 -0.6732  1.2607
   37CHL1   C20 2714   5.568   0.211   7.942 -0.2934 -0.2443 -0.2884
   37CHL1   H20 2715   5.619   0.114   7.958  0.6480  0.0586 -1.3410
   37CHL1   C21 2716   5.415   0.185   7.930  0.0141  0.1424  0.1847
   37CHL1  H21A 2717   5.379   0.181   8.035  1.4581  1.1626  0.7478
   37CHL1  H21B 2718   5.389   0.089   7.880  2.4858  0.6051 -2.1868
   37CHL1  H21C 2719   5.356   0.263   7.878 -1.9508 -0.8431  0.8118
   37CHL1   C22 2720   5.595   0.311   8.054 -0.5072 -0.5338 -0.9470
   37CHL1  H22A 2721   5.691   0.366   8.043  0.3726 -1.9370 -0.5406
   37CHL1  H22B 2722   5.512   0.383   8.036 -0.6369 -0.7317 -1.1367
   37CHL1   C23 2723   5.578   0.261   8.199 -0.1841  0.1246  0.1350
   37CHL1  H23A 2724   5.483   0.204   8.212 -0.4498  0.1692 -1.4225
   37CHL1  H23B 2725   5.653   0.187   8.233 -0.3156  1.3071  3.2872
   37CHL1   C24 2726   5.590   0.377   8.300  0.2376  1.1387 -0.6210
   37CHL1  H24A 2727   5.689   0.424   8.316 -0.1687  1.4302  1.3915
   37CHL1  H24B 2728   5.524   0.456   8.259 -0.9329  2.0548  2.6798
   37CHL1   C25 2729   5.530   0.349   8.441  0.2838  0.4845  0.2769
   37CHL1   H25 2730   5.526   0.442   8.502  0.5226  0.6676  0.0141
   37CHL1   C26 2731   5.376   0.311   8.436 -0.3098  0.5827 -0.2142
   37CHL1  H26A 2732   5.318   0.392   8.386 -0.4779  1.4492  1.3005
   37CHL1  H26B 2733   5.362   0.218   8.377 -0.9013  0.2830  0.3828
   37CHL1  H26C 2734   5.326   0.288   8.532  1.9228  0.8929  1.0994
   37CHL1   C27 2735   5.603   0.232   8.509 -0.0457  0.7488  0.4237
   37CHL1  H27A 2736   5.710   0.251   8.533  0.0492  1.5516 -0.5761
   37CHL1  H27B 2737   5.548   0.212   8.603 -1.1034  4.3817  0.7133
   37CHL1  H27C 2738   5.607   0.141   8.445  2.1478  1.0209  0.0932
   38CHL1    C3 2739   6.592   1.042   6.678  0.3277 -0.4587 -0.1864
   38CHL1    H3 2740   6.583   0.950   6.617  0.5371 -0.2543 -0.5307
   38CHL1    O3 2741   6.640   1.149   6.595 -0.2640 -0.2936 -0.0188
   38CHL1   H3' 2742   6.714   1.119   6.541 -0.4873  2.2262 -1.9659
   38CHL1    C4 2743   6.458   1.093   6.744 -0.5159  0.4778  0.0838
   38CHL1   H4A 2744   6.474   1.197   6.779  2.1668  0.6127 -1.2980
   38CHL1   H4B 2745   6.373   1.113   6.674  0.2193  0.5939 -0.7906
   38CHL1    C5 2746   6.404   1.012   6.857 -0.7665 -0.0777  0.6456
   38CHL1    C6 2747   6.280   0.963   6.859  0.4623 -0.4149 -0.9572
   38CHL1    H6 2748   6.209   0.983   6.779  0.4041  2.5030 -0.2600
   38CHL1    C7 2749   6.218   0.899   6.990  0.1819 -0.1668  0.2742
   38CHL1   H7A 2750   6.119   0.943   7.015  0.5760  2.5834 -2.3098
   38CHL1   H7B 2751   6.181   0.796   6.971 -0.8389 -0.1647  2.0105
   38CHL1    C8 2752   6.314   0.903   7.112  0.6001 -0.8445  1.1847
   38CHL1    H8 2753   6.301   1.008   7.146  0.3262 -0.7450  0.7875
   38CHL1   C14 2754   6.280   0.809   7.221  0.6615  0.3518  0.6026
   38CHL1   H14 2755   6.293   0.711   7.169 -0.4458 -0.0359  1.0233
   38CHL1   C15 2756   6.136   0.816   7.271  0.5929  0.5676 -0.4550
   38CHL1  H15A 2757   6.123   0.923   7.301  2.5737  0.5810  0.5636
   38CHL1  H15B 2758   6.057   0.801   7.195 -0.4315 -0.0605  0.7003
   38CHL1   C16 2759   6.141   0.731   7.399  0.3599 -0.0624 -0.0128
   38CHL1  H16A 2760   6.089   0.800   7.468 -0.0018 -1.0299  0.6994
   38CHL1  H16B 2761   6.086   0.634   7.394  0.7837 -0.3492  0.8037
   38CHL1   C17 2762   6.292   0.710   7.435 -0.7580 -0.1637  0.2981
   38CHL1   H17 2763   6.311   0.605   7.405  2.4110  0.0019  1.3813
   38CHL1   C13 2764   6.368   0.804   7.338  0.4373  0.1772 -0.2034
   38CHL1   C18 2765   6.364   0.942   7.408  0.1385 -0.0394  0.0690
   38CHL1  H18A 2766   6.396   1.018   7.334  2.3153 -1.1454 -0.1899
   38CHL1  H18B 2767   6.263   0.972   7.443 -0.0490  1.1834 -1.4066
   38CHL1  H18C 2768   6.432   0.955   7.495  0.3429 -0.0034 -0.0952
   38CHL1   C12 2769   6.511   0.760   7.291 -0.2686  0.6113 -0.8827
   38CHL1  H12A 2770   6.585   0.740   7.371 -3.0493  0.9153  1.9483
   38CHL1  H12B 2771   6.492   0.666   7.234  0.7679 -0.4795  0.4876
   38CHL1   C11 2772   6.562   0.856   7.188  0.0977 -0.5061  0.9672
   38CHL1  H11A 2773   6.587   0.950   7.241 -0.3585 -0.0420  0.3710
   38CHL1  H11B 2774   6.661   0.816   7.157 -0.8230 -1.3030 -1.1726
   38CHL1    C9 2775   6.462   0.879   7.069 -0.7534 -0.1761 -0.0114
   38CHL1    H9 2776   6.465   0.787   7.007  3.4444  0.1402 -0.6241
   38CHL1   C10 2777   6.506   0.983   6.968  0.1378 -0.2665  0.1225
   38CHL1   C19 2778   6.531   1.122   7.049 -0.0181 -0.4357  0.2845
   38CHL1  H19A 2779   6.582   1.118   7.148  0.6340  3.1865  0.2174
   38CHL1  H19B 2780   6.593   1.193   6.990  1.0465 -0.6948  1.0645
   38CHL1  H19C 2781   6.434   1.170   7.076 -0.0297 -0.9486  1.1982
   38CHL1    C1 2782   6.639   0.928   6.902 -0.5629  0.6604  0.2365
   38CHL1   H1A 2783   6.718   0.898   6.973 -0.4563  3.1120  1.2482
   38CHL1   H1B 2784   6.629   0.831   6.849  0.9079 -0.0217  1.1383
   38CHL1    C2 2785   6.699   1.014   6.786  0.3849 -0.9107  0.1198
   38CHL1   H2A 2786   6.796   0.973   6.750 -0.3647 -3.6242  0.9895
   38CHL1   H2B 2787   6.715   1.119   6.819 -0.5217 -0.9506  0.6988
   38CHL1   C20 2788   6.315   0.719   7.592  0.8413 -0.3633  0.1359
   38CHL1   H20 2789   6.276   0.817   7.625  1.3040  0.7529 -2.3710
   38CHL1   C21 2790   6.459   0.704   7.629 -0.0076  0.2975 -0.6041
   38CHL1  H21A 2791   6.477   0.699   7.739  2.3662 -2.2974 -0.9848
   38CHL1  H21B 2792   6.524   0.780   7.581 -1.2929 -0.0560 -3.0430
   38CHL1  H21C 2793   6.511   0.608   7.609  1.1843  0.7747  0.1198
   38CHL1   C22 2794   6.226   0.618   7.660 -0.1429  0.7318  0.2600
   38CHL1  H22A 2795   6.118   0.620   7.634 -0.8271 -2.3840  2.3092
   38CHL1  H22B 2796   6.250   0.512   7.639 -2.0824  0.3977 -0.4635
   38CHL1   C23 2797   6.213   0.627   7.815  0.2600  0.4913  0.9356
   38CHL1  H23A 2798   6.303   0.576   7.855  0.6350 -0.2997 -0.8628
   38CHL1  H23B 2799   6.204   0.732   7.850  0.7840  1.3052 -1.2107
   38CHL1   C24 2800   6.089   0.552   7.864 -0.4231  0.4291 -0.2109
   38CHL1  H24A 2801   5.994   0.561   7.806 -0.7810  1.1470  0.4699
   38CHL1  H24B 2802   6.107   0.443   7.851 -0.2462  0.2262  1.5128
   38CHL1   C25 2803   6.064   0.569   8.016  0.4820  0.2600  0.3393
   38CHL1   H25 2804   6.059   0.680   8.028  2.4643  0.4369 -0.0882
   38CHL1   C26 2805   5.925   0.508   8.060 -0.2678 -0.3013 -0.0151
   38CHL1  H26A 2806   5.937   0.404   8.097  1.2862 -0.2216 -0.2476
   38CHL1  H26B 2807   5.874   0.573   8.135 -1.3448  1.4282 -2.1149
   38CHL1  H26C 2808   5.865   0.511   7.967 -0.4847 -0.5811  0.1140
   38CHL1   C27 2809   6.175   0.512   8.104  0.4426 -0.1911  0.0148
   38CHL1  H27A 2810   6.126   0.499   8.203  0.3476  4.7734  0.8438
   38CHL1  H27B 2811   6.209   0.413   8.067  0.4838 -0.7925  1.6000
   38CHL1  H27C 2812   6.262   0.580   8.111  1.8904 -1.8240 -1.1071
   39CHL1    C3 2813   0.422   6.070   6.850  0.3336  0.1020  0.9067
   39CHL1    H3 2814   0.328   6.106   6.896  0.0225  2.1773 -1.1802
   39CHL1    O3 2815   0.414   6.111   6.716  0.4349  0.1558  0.3151
   39CHL1   H3' 2816   0.492   6.072   6.676 -1.0894  0.3896 -3.3132
   39CHL1    C4 2817   0.550   6.118   6.914  0.3538 -0.1683 -0.4841
   39CHL1   H4A 2818   0.642   6.071   6.873 -0.6199 -2.5742 -0.0764
   39CHL1   H4B 2819   0.553   6.226   6.892  0.9029 -0.2190 -0.6695
   39CHL1    C5 2820   0.542   6.095   7.064  0.6574 -0.6633 -0.2146
   39CHL1    C6 2821   0.527   6.191   7.156 -0.0593 -0.3832  0.4435
   39CHL1    H6 2822   0.521   6.295   7.119 -2.0902 -1.0463 -1.2876
   39CHL1    C7 2823   0.526   6.156   7.307  0.0198 -0.2629 -0.0639
   39CHL1   H7A 2824   0.595   6.226   7.358 -1.7444  1.8425 -0.3763
   39CHL1   H7B 2825   0.429   6.180   7.356  0.4256  0.9537  0.1715
   39CHL1    C8 2826   0.567   6.012   7.346  0.5739  0.1127 -0.4350
   39CHL1    H8 2827   0.676   5.994   7.342  0.6049  0.2247 -0.1200
   39CHL1   C14 2828   0.520   5.973   7.488 -0.2207  0.5948  0.1692
   39CHL1   H14 2829   0.409   5.979   7.478 -0.1049 -1.2173 -4.3310
   39CHL1   C15 2830   0.558   6.056   7.609  0.6011  0.1961 -0.5908
   39CHL1  H15A 2831   0.669   6.066   7.608  0.5984  1.7403  2.5362
   39CHL1  H15B 2832   0.521   6.161   7.620 -1.2214  0.3348 -5.3716
   39CHL1   C16 2833   0.529   5.969   7.739 -0.5227 -0.5227 -0.4648
   39CHL1  H16A 2834   0.624   5.964   7.796 -1.0799 -0.4826  0.4746
   39CHL1  H16B 2835   0.445   5.990   7.809  1.1491  0.9678  1.2059
   39CHL1   C17 2836   0.493   5.829   7.686 -0.1388 -0.2060  0.3201
   39CHL1   H17 2837   0.383   5.817   7.676 -0.2489  1.5467 -0.9443
   39CHL1   C13 2838   0.536   5.825   7.533 -0.0268  0.5845  0.0798
   39CHL1   C18 2839   0.686   5.792   7.520 -0.2067  0.3813  0.3531
   39CHL1  H18A 2840   0.705   5.685   7.543  1.7004  1.0113  2.0133
   39CHL1  H18B 2841   0.719   5.799   7.414  0.9621 -0.7527  0.6205
   39CHL1  H18C 2842   0.758   5.850   7.581  1.6889 -0.4803 -0.9544
   39CHL1   C12 2843   0.439   5.745   7.439 -0.0236  0.5605  0.3148
   39CHL1  H12A 2844   0.450   5.635   7.450  0.7528  0.6031  0.0169
   39CHL1  H12B 2845   0.331   5.770   7.451 -0.9090 -3.0014  1.0027
   39CHL1   C11 2846   0.472   5.770   7.290 -0.3050  0.0821 -0.9194
   39CHL1  H11A 2847   0.564   5.711   7.275  2.2360  1.9948  4.3292
   39CHL1  H11B 2848   0.398   5.722   7.224  1.2894  0.2812 -2.9541
   39CHL1    C9 2849   0.484   5.921   7.248 -0.2933  0.2154 -0.0397
   39CHL1    H9 2850   0.378   5.950   7.262 -0.2752  0.1983  0.1401
   39CHL1   C10 2851   0.529   5.944   7.104  0.3301  0.1309 -0.2280
   39CHL1   C19 2852   0.671   5.887   7.083 -0.8249 -0.2357 -0.2200
   39CHL1  H19A 2853   0.665   5.776   7.091  0.2582 -0.4017 -1.3254
   39CHL1  H19B 2854   0.717   5.910   6.984  0.3870 -1.9556 -0.1032
   39CHL1  H19C 2855   0.737   5.936   7.158 -1.4069  2.2829 -1.2420
   39CHL1    C1 2856   0.432   5.873   7.004  0.2501  0.1532 -0.1684
   39CHL1   H1A 2857   0.464   5.767   6.998 -1.7621 -0.4474 -1.2144
   39CHL1   H1B 2858   0.331   5.881   7.050  0.5489 -0.7572  0.6720
   39CHL1    C2 2859   0.425   5.918   6.861  0.6303 -0.0306  0.3920
   39CHL1   H2A 2860   0.339   5.872   6.808  3.0109 -1.9018 -2.0944
   39CHL1   H2B 2861   0.516   5.881   6.809 -1.1633 -2.0648 -1.5146
   39CHL1   C20 2862   0.544   5.718   7.782 -0.1265 -0.7393 -0.4883
   39CHL1   H20 2863   0.655   5.716   7.792 -0.2513 -2.3118  0.9747
   39CHL1   C21 2864   0.511   5.574   7.727  0.0645  0.2068  0.5674
   39CHL1  H21A 2865   0.547   5.560   7.623  0.1209  1.1205  0.4560
   39CHL1  H21B 2866   0.401   5.559   7.722  0.1285 -0.2355 -4.3864
   39CHL1  H21C 2867   0.558   5.501   7.797  0.3218 -1.2855 -1.0738
   39CHL1   C22 2868   0.486   5.734   7.931 -1.0171  0.3467 -0.2102
   39CHL1  H22A 2869   0.504   5.837   7.969 -2.6172  0.8888 -0.8450
   39CHL1  H22B 2870   0.376   5.721   7.919 -1.1091  0.8278  0.0668
   39CHL1   C23 2871   0.551   5.649   8.037  0.3222 -0.0453  0.1519
   39CHL1  H23A 2872   0.550   5.541   8.008  1.7072 -0.5812  1.9657
   39CHL1  H23B 2873   0.659   5.671   8.050  0.2156 -0.5675  2.2399
   39CHL1   C24 2874   0.495   5.671   8.181 -0.1280 -0.5353  0.8113
   39CHL1  H24A 2875   0.535   5.768   8.219 -0.5370 -0.4625  1.0683
   39CHL1  H24B 2876   0.384   5.674   8.174 -0.0908 -2.6604 -2.4454
   39CHL1   C25 2877   0.537   5.575   8.298 -0.3307  0.2953  0.6089
   39CHL1   H25 2878   0.481   5.486   8.263 -1.0674  1.1511 -0.4298
   39CHL1   C26 2879   0.694   5.571   8.290 -0.1982  0.7502  0.1639
   39CHL1  H26A 2880   0.731   5.519   8.381  1.4465  0.3773 -0.6806
   39CHL1  H26B 2881   0.737   5.515   8.205 -0.1431  0.9406  0.0657
   39CHL1  H26C 2882   0.742   5.671   8.281  0.7701  0.1493 -2.0488
   39CHL1   C27 2883   0.486   5.629   8.427  0.4234 -0.1762 -0.6671
   39CHL1  H27A 2884   0.509   5.557   8.508  0.0856 -0.4070 -0.7721
   39CHL1  H27B 2885   0.524   5.727   8.462 -2.1135  0.5700  0.1962
   39CHL1  H27C 2886   0.375   5.637   8.433  0.6355  3.1147  2.5635
   40CHL1    C3 2887   3.916   4.057   6.678  0.0244 -0.7813 -0.4352
   40CHL1    H3 2888   3.806   4.048   6.674  0.0819 -1.6169 -0.2865
   40CHL1    O3 2889   3.954   4.091   6.550  0.4922  0.6278 -0.0190
   40CHL1   H3' 2890   4.028   4.033   6.530  0.7256  1.1387 -0.7125
   40CHL1    C4 2891   3.953   4.167   6.769  0.1809 -0.3113  0.4746
   40CHL1   H4A 2892   4.062   4.183   6.758  0.1577 -1.1383 -1.4369
   40CHL1   H4B 2893   3.902   4.261   6.736 -1.3352 -1.2441  0.0671
   40CHL1    C5 2894   3.925   4.129   6.911  0.5701 -0.0687 -0.1205
   40CHL1    C6 2895   3.845   4.203   6.993  0.1695 -0.0496 -0.1701
   40CHL1    H6 2896   3.783   4.279   6.943  0.2726 -1.1503 -2.0908
   40CHL1    C7 2897   3.818   4.178   7.140  0.2357 -0.4608 -0.0438
   40CHL1   H7A 2898   3.838   4.274   7.190  0.4694 -1.0539  1.0274
   40CHL1   H7B 2899   3.712   4.146   7.153  0.2479  0.1883  1.9925
   40CHL1    C8 2900   3.906   4.069   7.200 -0.6976  0.0114  0.0365
   40CHL1    H8 2901   4.003   4.113   7.230 -1.5518  2.5359 -0.6461
   40CHL1   C14 2902   3.846   4.010   7.329  0.5921  0.2893  0.6457
   40CHL1   H14 2903   3.751   3.957   7.305  1.8544 -2.2392  0.9318
   40CHL1   C15 2904   3.804   4.106   7.447 -0.0091 -0.2586  0.9006
   40CHL1  H15A 2905   3.881   4.186   7.455 -0.8028  0.6293 -0.1096
   40CHL1  H15B 2906   3.711   4.164   7.427  0.0159 -0.8403 -1.0769
   40CHL1   C16 2907   3.799   4.017   7.575  0.2061 -0.2925 -0.5010
   40CHL1  H16A 2908   3.856   4.060   7.660  0.2081  0.6285 -0.9531
   40CHL1  H16B 2909   3.693   4.003   7.607 -0.0817 -1.1933 -1.7711
   40CHL1   C17 2910   3.852   3.878   7.528 -0.0467 -0.3282  0.0152
   40CHL1   H17 2911   3.763   3.821   7.493  0.1305 -0.2021 -0.6710
   40CHL1   C13 2912   3.931   3.895   7.392  0.4160 -1.0630 -0.5576
   40CHL1   C18 2913   4.074   3.950   7.425 -0.4535  0.4906  0.8026
   40CHL1  H18A 2914   4.141   3.867   7.458 -0.2673 -0.1772 -1.1119
   40CHL1  H18B 2915   4.129   3.998   7.341 -0.1152  0.3769  0.9594
   40CHL1  H18C 2916   4.077   4.026   7.505  1.1728  2.0452 -0.6364
   40CHL1   C12 2917   3.942   3.785   7.294  0.5654 -0.0054  0.2207
   40CHL1  H12A 2918   4.003   3.703   7.338 -0.0152  0.0380  1.1359
   40CHL1  H12B 2919   3.839   3.743   7.284  1.3551 -1.8902 -0.4150
   40CHL1   C11 2920   4.006   3.829   7.166  0.0483 -0.0253  0.1107
   40CHL1  H11A 2921   4.111   3.863   7.179  0.0992  0.5641 -1.5353
   40CHL1  H11B 2922   4.005   3.743   7.096  0.0964 -1.5052  1.8658
   40CHL1    C9 2923   3.932   3.952   7.100 -0.6496 -0.2486  0.3885
   40CHL1    H9 2924   3.830   3.912   7.087 -1.7006  1.6198  2.2403
   40CHL1   C10 2925   3.995   3.999   6.959 -0.9336 -0.3005 -0.1228
   40CHL1   C19 2926   4.145   4.031   6.967 -0.1626  0.5582 -0.2851
   40CHL1  H19A 2927   4.162   4.131   7.013 -0.3482 -0.2418  1.6225
   40CHL1  H19B 2928   4.206   3.952   7.015 -1.1536 -1.3768 -2.0290
   40CHL1  H19C 2929   4.191   4.032   6.866  1.8615 -2.3227  0.4924
   40CHL1    C1 2930   3.962   3.883   6.852 -1.3148  0.3979  0.5957
   40CHL1   H1A 2931   4.029   3.802   6.886 -0.4869  0.0295 -1.7523
   40CHL1   H1B 2932   3.856   3.849   6.854 -0.7972 -1.3473  0.0412
   40CHL1    C2 2933   3.986   3.921   6.713  0.4075 -0.1099  0.2886
   40CHL1   H2A 2934   3.942   3.846   6.643 -1.5620  1.1313  0.1257
   40CHL1   H2B 2935   4.095   3.936   6.699  0.4605 -1.2982 -0.8456
   40CHL1   C20 2936   3.919   3.798   7.646 -0.1570 -0.2938  0.1821
   40CHL1   H20 2937   4.004   3.863   7.674 -0.3732 -0.1446  0.4938
   40CHL1   C21 2938   3.958   3.650   7.610 -0.0342 -0.4363 -0.7974
   40CHL1  H21A 2939   3.885   3.584   7.559 -0.4782  0.0382 -0.7726
   40CHL1  H21B 2940   3.979   3.578   7.693 -0.1326 -0.2902 -0.6460
   40CHL1  H21C 2941   4.053   3.656   7.552 -0.6983  0.8502 -1.7803
   40CHL1   C22 2942   3.832   3.803   7.779 -1.0216 -0.6976  0.6691
   40CHL1  H22A 2943   3.900   3.747   7.847  1.2056  1.3598  0.2844
   40CHL1  H22B 2944   3.826   3.906   7.820 -0.9420 -0.5240  0.2460
   40CHL1   C23 2945   3.699   3.729   7.778 -0.0144  0.2055 -0.3639
   40CHL1  H23A 2946   3.636   3.788   7.707  0.4794  1.8043  0.4658
   40CHL1  H23B 2947   3.716   3.627   7.737  0.4409  0.4884 -0.9043
   40CHL1   C24 2948   3.642   3.714   7.924  0.1438 -0.2169 -0.8019
   40CHL1  H24A 2949   3.689   3.633   7.983 -1.1652 -1.0088 -0.8152
   40CHL1  H24B 2950   3.653   3.818   7.961  0.7568  0.8112 -3.6219
   40CHL1   C25 2951   3.493   3.690   7.924  0.4038 -0.6456  0.2671
   40CHL1   H25 2952   3.455   3.776   7.865  0.9251 -0.2538  0.4898
   40CHL1   C26 2953   3.468   3.555   7.852 -0.1395  0.3743  0.0338
   40CHL1  H26A 2954   3.367   3.529   7.889 -0.1499 -1.1930 -1.0053
   40CHL1  H26B 2955   3.476   3.580   7.744  2.1649  0.0472  0.0838
   40CHL1  H26C 2956   3.545   3.483   7.887 -1.3319  0.0583  2.1589
   40CHL1   C27 2957   3.436   3.686   8.067  0.1987 -0.1870 -0.2665
   40CHL1  H27A 2958   3.426   3.788   8.110  0.0241 -0.8767  1.4063
   40CHL1  H27B 2959   3.338   3.633   8.065  0.5042 -0.7288 -1.5329
   40CHL1  H27C 2960   3.503   3.633   8.137  1.7029  0.7084 -0.9834
   41CHL1    C3 2961   2.503   3.502   6.990 -0.3295 -0.2928 -0.1715
   41CHL1    H3 2962   2.549   3.598   7.022 -1.0610  0.5012 -1.3769
   41CHL1    O3 2963   2.478   3.475   6.845  0.3942  0.1966 -0.1432
   41CHL1   H3' 2964   2.501   3.383   6.831  0.1694  0.1258 -0.0460
   41CHL1    C4 2965   2.588   3.391   7.052 -0.1364  0.5655 -0.2648
   41CHL1   H4A 2966   2.549   3.296   7.010 -1.2980  0.9747 -0.1396
   41CHL1   H4B 2967   2.686   3.414   7.006  1.1470 -2.7385  0.4928
   41CHL1    C5 2968   2.597   3.374   7.198 -0.3804  0.2839 -0.0660
   41CHL1    C6 2969   2.716   3.373   7.254  0.2710 -0.6514 -0.2392
   41CHL1    H6 2970   2.794   3.369   7.176  0.3602 -0.4375 -0.1623
   41CHL1    C7 2971   2.740   3.344   7.401  0.0904 -0.0556  0.5683
   41CHL1   H7A 2972   2.801   3.252   7.414 -2.5367 -2.4033 -2.2584
   41CHL1   H7B 2973   2.792   3.435   7.438  0.2901 -0.5319  1.4722
   41CHL1    C8 2974   2.608   3.329   7.486  0.2641  0.7000 -0.4293
   41CHL1    H8 2975   2.571   3.224   7.489 -0.0560  0.8285  0.7798
   41CHL1   C14 2976   2.629   3.372   7.631  0.5850 -0.3797  0.1725
   41CHL1   H14 2977   2.664   3.477   7.624 -0.8085  0.1886  1.2458
   41CHL1   C15 2978   2.744   3.297   7.709  0.0296  0.6716 -0.3869
   41CHL1  H15A 2979   2.733   3.187   7.699 -1.4302  0.9122 -1.8349
   41CHL1  H15B 2980   2.847   3.326   7.683  1.4239 -1.7668  1.9159
   41CHL1   C16 2981   2.720   3.336   7.854  0.1349  0.7712 -0.2909
   41CHL1  H16A 2982   2.716   3.237   7.904 -1.9542 -0.0747 -2.0072
   41CHL1  H16B 2983   2.799   3.401   7.898  0.5737 -1.5144  2.6312
   41CHL1   C17 2984   2.586   3.416   7.849  0.2403  0.3692  0.4611
   41CHL1   H17 2985   2.623   3.518   7.827  3.4683 -0.6418  0.6367
   41CHL1   C13 2986   2.508   3.367   7.723  0.6536 -0.1182 -0.1697
   41CHL1   C18 2987   2.437   3.227   7.744  0.0611 -0.2977 -0.2221
   41CHL1  H18A 2988   2.370   3.199   7.660  2.6526 -0.4032 -2.3939
   41CHL1  H18B 2989   2.512   3.148   7.764  0.9865  0.4452 -0.6242
   41CHL1  H18C 2990   2.372   3.227   7.833 -0.3460  1.0141 -0.4915
   41CHL1   C12 2991   2.408   3.465   7.658  0.2122 -0.0531  0.5980
   41CHL1  H12A 2992   2.314   3.458   7.717 -0.8171  0.1702 -0.9605
   41CHL1  H12B 2993   2.441   3.571   7.658 -0.8917  0.3352 -1.3796
   41CHL1   C11 2994   2.370   3.423   7.515  0.4170  0.7636  0.1689
   41CHL1  H11A 2995   2.333   3.318   7.522  2.3552  0.1321  2.5220
   41CHL1  H11B 2996   2.298   3.491   7.465  1.0124 -1.1975 -3.7604
   41CHL1    C9 2997   2.498   3.416   7.422  0.4262 -0.0656  0.5398
   41CHL1    H9 2998   2.539   3.519   7.426 -2.0104  0.9555  1.5900
   41CHL1   C10 2999   2.469   3.381   7.273  0.6042 -0.7729 -0.4736
   41CHL1   C19 3000   2.389   3.250   7.268  0.6262  0.1919 -0.6038
   41CHL1  H19A 3001   2.443   3.165   7.314 -1.6323 -0.2304  1.4338
   41CHL1  H19B 3002   2.293   3.270   7.319  1.0208  1.4688 -0.3209
   41CHL1  H19C 3003   2.376   3.227   7.160  1.0548  0.1131 -0.6397
   41CHL1    C1 3004   2.379   3.499   7.211  0.3112  0.7321  0.0316
   41CHL1   H1A 3005   2.271   3.493   7.234  0.0713  1.8205 -0.7368
   41CHL1   H1B 3006   2.427   3.596   7.236  1.1004  0.5271 -0.6055
   41CHL1    C2 3007   2.368   3.507   7.059 -0.0919 -0.0813 -0.4835
   41CHL1   H2A 3008   2.317   3.599   7.023  1.6872  0.6761 -1.2006
   41CHL1   H2B 3009   2.306   3.420   7.029 -0.1298  0.0347 -0.7401
   41CHL1   C20 3010   2.514   3.416   7.988  0.3302 -0.2903 -0.9122
   41CHL1   H20 3011   2.485   3.313   8.017 -4.4596  1.9083  3.7449
   41CHL1   C21 3012   2.375   3.479   7.989  0.4006 -0.0837 -0.6856
   41CHL1  H21A 3013   2.345   3.513   8.091 -0.6676 -1.2133 -0.6051
   41CHL1  H21B 3014   2.282   3.433   7.951  0.3554 -0.8323  0.2941
   41CHL1  H21C 3015   2.376   3.566   7.920  1.3630 -0.1039 -0.7114
   41CHL1   C22 3016   2.598   3.476   8.108 -0.1336 -0.0931  0.1973
   41CHL1  H22A 3017   2.543   3.455   8.202  0.2330  0.7198  0.6058
   41CHL1  H22B 3018   2.698   3.426   8.102 -0.1293  0.0298 -1.4466
   41CHL1   C23 3019   2.632   3.627   8.115  0.3514  0.3180 -0.2041
   41CHL1  H23A 3020   2.692   3.657   8.027 -1.1996  0.4360 -1.2536
   41CHL1  H23B 3021   2.537   3.682   8.102  0.1753  0.3822  1.1971
   41CHL1   C24 3022   2.718   3.660   8.240  0.3096 -0.5682 -0.1471
   41CHL1  H24A 3023   2.807   3.594   8.241 -0.6703 -1.9493 -0.0089
   41CHL1  H24B 3024   2.748   3.767   8.234 -0.5744 -0.3681 -1.5539
   41CHL1   C25 3025   2.654   3.645   8.371 -0.3417 -0.3288 -1.2261
   41CHL1   H25 3026   2.641   3.536   8.384 -0.5919 -0.1876 -0.2532
   41CHL1   C26 3027   2.739   3.699   8.491  0.1609  0.6195 -0.0731
   41CHL1  H26A 3028   2.828   3.635   8.505  0.7945  1.4186 -0.3389
   41CHL1  H26B 3029   2.769   3.806   8.487  3.1395 -0.0889  0.6281
   41CHL1  H26C 3030   2.675   3.695   8.582  0.4432  1.6755  0.1927
   41CHL1   C27 3031   2.520   3.708   8.388  0.0725  0.1722 -0.0026
   41CHL1  H27A 3032   2.538   3.817   8.388  0.5497  0.1338  1.8935
   41CHL1  H27B 3033   2.453   3.675   8.305  0.7358  1.0288 -0.8985
   41CHL1  H27C 3034   2.469   3.674   8.481 -0.8652  4.1142  1.1144
   42CHL1    C3 3035   0.107   3.138   6.813 -0.5147 -0.0030 -0.1761
   42CHL1    H3 3036   0.024   3.065   6.827 -0.1474 -0.8367 -2.0836
   42CHL1    O3 3037   0.144   3.133   6.675 -0.0188  0.0025 -0.1584
   42CHL1   H3' 3038   0.233   3.171   6.669  0.1426 -0.5530 -1.6828
   42CHL1    C4 3039   0.075   3.284   6.858  0.6142  0.2740  0.5087
   42CHL1   H4A 3040   0.161   3.345   6.822  1.5028 -1.4867 -0.5061
   42CHL1   H4B 3041  -0.013   3.323   6.802  0.3781 -2.0673 -0.8943
   42CHL1    C5 3042   0.039   3.280   7.006  0.5121  0.9298 -0.3475
   42CHL1    C6 3043  -0.080   3.322   7.060  0.0763  0.0382 -0.4073
   42CHL1    H6 3044  -0.153   3.370   6.994 -2.8337 -2.8977  0.3725
   42CHL1    C7 3045  -0.113   3.304   7.204 -0.4296 -0.2433 -0.8479
   42CHL1   H7A 3046  -0.182   3.382   7.245  1.4749  1.0276  0.0691
   42CHL1   H7B 3047  -0.166   3.210   7.231 -1.6758  0.7267  0.2496
   42CHL1    C8 3048   0.019   3.296   7.290 -0.3960 -0.6256 -0.4421
   42CHL1    H8 3049   0.075   3.392   7.279 -0.6463 -0.5914 -1.5608
   42CHL1   C14 3050  -0.018   3.272   7.434  0.8086 -0.2891  0.2933
   42CHL1   H14 3051  -0.071   3.174   7.430  0.9119 -0.3140 -0.6974
   42CHL1   C15 3052  -0.120   3.369   7.501 -0.3149  0.4691 -0.1609
   42CHL1  H15A 3053  -0.102   3.474   7.468 -2.0808  0.4880 -1.2052
   42CHL1  H15B 3054  -0.217   3.330   7.464 -1.3478 -0.4941  3.1912
   42CHL1   C16 3055  -0.097   3.341   7.650  0.3101 -0.2122  0.2448
   42CHL1  H16A 3056  -0.076   3.440   7.697 -0.5567  1.0900 -1.9507
   42CHL1  H16B 3057  -0.190   3.302   7.698 -0.0312 -1.0382 -1.0283
   42CHL1   C17 3058   0.013   3.238   7.666  0.0418 -0.3221 -0.0378
   42CHL1   H17 3059  -0.036   3.138   7.660 -0.1519 -0.3176  1.1417
   42CHL1   C13 3060   0.092   3.251   7.532  0.4250 -0.1688 -0.1226
   42CHL1   C18 3061   0.180   3.378   7.547  0.3848  0.6787 -0.7099
   42CHL1  H18A 3062   0.222   3.414   7.451  2.0514  0.9159  0.0674
   42CHL1  H18B 3063   0.127   3.467   7.588 -1.7909  0.4355 -2.8225
   42CHL1  H18C 3064   0.265   3.344   7.609  0.3002 -0.4799 -1.2063
   42CHL1   C12 3065   0.177   3.132   7.492 -0.2477  0.5332  0.6752
   42CHL1  H12A 3066   0.270   3.137   7.552  0.0080 -0.4230  0.3736
   42CHL1  H12B 3067   0.135   3.031   7.514 -0.2257  0.0965 -1.1718
   42CHL1   C11 3068   0.220   3.147   7.344  0.6897  0.5123 -1.3479
   42CHL1  H11A 3069   0.299   3.224   7.338 -0.8241  2.0950 -1.6062
   42CHL1  H11B 3070   0.271   3.053   7.313  3.5235  1.2299  0.7200
   42CHL1    C9 3071   0.101   3.176   7.245 -0.1738 -0.8130  0.0155
   42CHL1    H9 3072   0.035   3.088   7.239  0.0113 -1.0570  1.2275
   42CHL1   C10 3073   0.149   3.204   7.100 -0.4006 -0.8621  0.1556
   42CHL1   C19 3074   0.268   3.308   7.102  0.2617 -0.3396 -0.2171
   42CHL1  H19A 3075   0.365   3.271   7.142 -0.3018 -0.0619  1.4805
   42CHL1  H19B 3076   0.297   3.334   6.998  2.9065 -0.8696  0.3124
   42CHL1  H19C 3077   0.239   3.402   7.154  1.5210  0.1273 -0.3185
   42CHL1    C1 3078   0.193   3.065   7.041  0.0043  0.4581  0.7400
   42CHL1   H1A 3079   0.279   3.018   7.094 -1.4844 -0.5051  2.4311
   42CHL1   H1B 3080   0.103   3.000   7.052  0.6501 -0.6156 -0.0807
   42CHL1    C2 3081   0.220   3.079   6.896 -0.5304 -0.3953 -0.3952
   42CHL1   H2A 3082   0.245   2.981   6.851  0.5334 -0.8776  1.1775
   42CHL1   H2B 3083   0.313   3.136   6.877 -0.7887 -0.3144 -1.4537
   42CHL1   C20 3084   0.080   3.229   7.801  0.8617  0.2177  0.6583
   42CHL1   H20 3085   0.135   3.324   7.815 -0.8527  1.4487 -0.6226
   42CHL1   C21 3086   0.171   3.109   7.810 -0.4024  0.3463 -0.4163
   42CHL1  H21A 3087   0.205   3.096   7.915 -0.1496  2.1814 -0.2409
   42CHL1  H21B 3088   0.267   3.130   7.759  0.3839  1.6389  1.4670
   42CHL1  H21C 3089   0.126   3.014   7.774 -1.6798  0.2163  1.3688
   42CHL1   C22 3090  -0.024   3.222   7.918  0.8532  0.3607  0.0304
   42CHL1  H22A 3091   0.027   3.219   8.016  0.3533  1.4227  0.3406
   42CHL1  H22B 3092  -0.074   3.321   7.921  0.7758  0.3174  0.1782
   42CHL1   C23 3093  -0.135   3.115   7.915  0.0924 -0.7375 -0.0294
   42CHL1  H23A 3094  -0.198   3.135   7.826 -0.4931  3.4106  1.1288
   42CHL1  H23B 3095  -0.071   3.024   7.905  0.9224 -0.1472 -0.2276
   42CHL1   C24 3096  -0.224   3.106   8.040  0.1468  0.0715  0.2308
   42CHL1  H24A 3097  -0.177   3.106   8.140 -1.9771 -4.3156  1.5005
   42CHL1  H24B 3098  -0.296   3.190   8.030 -0.1461 -0.3061 -1.0905
   42CHL1   C25 3099  -0.306   2.971   8.034  0.0349 -0.0335 -0.7028
   42CHL1   H25 3100  -0.353   2.953   7.935  1.1267 -2.4524 -0.8679
   42CHL1   C26 3101  -0.219   2.841   8.067 -0.0429  0.6022  0.4630
   42CHL1  H26A 3102  -0.135   2.833   7.995 -0.1390  1.5885  0.2256
   42CHL1  H26B 3103  -0.188   2.843   8.174 -0.5539 -0.5277  0.6499
   42CHL1  H26C 3104  -0.284   2.751   8.055  0.6461  0.0377  0.8843
   42CHL1   C27 3105  -0.426   2.988   8.125 -0.1731  0.2861 -0.1473
   42CHL1  H27A 3106  -0.496   2.902   8.120 -1.5791  1.1650  2.3636
   42CHL1  H27B 3107  -0.472   3.083   8.089  1.9634  1.0702 -0.9552
   42CHL1  H27C 3108  -0.388   3.008   8.228 -0.6640  1.7169 -0.2138
   43CHL1    C3 3109   5.572   0.732   6.830  0.1672  0.0082  0.0393
   43CHL1    H3 3110   5.528   0.828   6.864  1.1347  0.1144  1.0500
   43CHL1    O3 3111   5.563   0.716   6.689  0.0454 -0.2028  0.1264
   43CHL1   H3' 3112   5.626   0.647   6.665  0.2203 -0.7478  1.9822
   43CHL1    C4 3113   5.723   0.734   6.878  0.7140 -0.8076 -0.2576
   43CHL1   H4A 3114   5.760   0.630   6.870  2.0821 -0.3845  0.2882
   43CHL1   H4B 3115   5.775   0.820   6.829  0.7447  1.7622  3.8171
   43CHL1    C5 3116   5.718   0.770   7.027  0.1803 -0.7922 -0.4134
   43CHL1    C6 3117   5.769   0.892   7.070  0.1157  0.8539 -0.4581
   43CHL1    H6 3118   5.832   0.958   7.009 -0.0801  1.3942 -0.0851
   43CHL1    C7 3119   5.753   0.934   7.212 -0.4068  0.8100  0.4951
   43CHL1   H7A 3120   5.851   0.974   7.244 -0.2155  2.1827 -1.6076
   43CHL1   H7B 3121   5.665   1.002   7.216 -1.0336  0.0167  0.6529
   43CHL1    C8 3122   5.724   0.811   7.310 -0.3328  0.4243  0.2668
   43CHL1    H8 3123   5.813   0.745   7.303 -0.6883  0.1412 -2.1897
   43CHL1   C14 3124   5.691   0.854   7.455  0.2034  0.1981  0.3937
   43CHL1   H14 3125   5.595   0.910   7.449 -0.1208 -0.4508 -0.9235
   43CHL1   C15 3126   5.790   0.950   7.530 -0.1132 -0.0240  0.2959
   43CHL1  H15A 3127   5.886   0.894   7.528  1.3784  2.3009  2.3508
   43CHL1  H15B 3128   5.811   1.046   7.480  1.4367 -0.1593  0.6437
   43CHL1   C16 3129   5.735   0.945   7.675  0.4472  0.3603  0.4862
   43CHL1  H16A 3130   5.818   0.943   7.749  1.4627  1.5460 -0.5821
   43CHL1  H16B 3131   5.678   1.039   7.690 -2.0040 -0.8788 -0.5038
   43CHL1   C17 3132   5.629   0.834   7.685  0.3692  0.2495 -0.5053
   43CHL1   H17 3133   5.530   0.880   7.665 -0.3955  0.5133  3.2327
   43CHL1   C13 3134   5.651   0.743   7.558 -0.0056  0.0652  0.2457
   43CHL1   C18 3135   5.778   0.656   7.579  0.4236 -0.0462  0.2914
   43CHL1  H18A 3136   5.821   0.618   7.485 -1.2088  0.1031 -0.5534
   43CHL1  H18B 3137   5.852   0.714   7.638  0.8855 -0.0538 -0.2750
   43CHL1  H18C 3138   5.751   0.572   7.647 -3.7320  0.3494 -0.5887
   43CHL1   C12 3139   5.540   0.655   7.498  0.2672 -0.1325 -0.2409
   43CHL1  H12A 3140   5.512   0.569   7.562 -0.9227 -0.1134 -0.6967
   43CHL1  H12B 3141   5.448   0.718   7.497  0.8466  0.7397 -0.8572
   43CHL1   C11 3142   5.570   0.603   7.359 -0.4555 -0.1439 -0.6413
   43CHL1  H11A 3143   5.651   0.527   7.359 -0.9204 -0.7026 -3.0194
   43CHL1  H11B 3144   5.474   0.557   7.327  0.1879 -2.0975  0.0988
   43CHL1    C9 3145   5.611   0.720   7.261  0.2170 -0.6006  0.0136
   43CHL1    H9 3146   5.532   0.798   7.262  1.6791  0.9512 -0.8053
   43CHL1   C10 3147   5.635   0.666   7.115  0.5750 -0.1177  0.5980
   43CHL1   C19 3148   5.706   0.533   7.114 -0.3679 -0.0414  0.3990
   43CHL1  H19A 3149   5.719   0.484   7.015  0.2376 -0.9960  0.9285
   43CHL1  H19B 3150   5.805   0.535   7.164 -0.6051 -0.3955  0.8980
   43CHL1  H19C 3151   5.635   0.465   7.165 -0.8391  0.3295  0.2402
   43CHL1    C1 3152   5.495   0.648   7.049 -0.0172  0.3957 -0.1350
   43CHL1   H1A 3153   5.451   0.559   7.100  1.2517 -0.5481 -0.6534
   43CHL1   H1B 3154   5.437   0.739   7.075 -0.5023 -0.1077  0.5902
   43CHL1    C2 3155   5.497   0.621   6.897 -0.4700 -0.2843 -0.3508
   43CHL1   H2A 3156   5.399   0.614   6.846  0.3173 -1.9386 -1.7455
   43CHL1   H2B 3157   5.542   0.523   6.872 -1.4434 -0.2592 -2.4023
   43CHL1   C20 3158   5.625   0.765   7.826  0.6628  0.8622 -0.2929
   43CHL1   H20 3159   5.721   0.717   7.853 -0.0830 -0.5954 -0.0966
   43CHL1   C21 3160   5.524   0.644   7.831 -0.0457  0.1486  0.0921
   43CHL1  H21A 3161   5.417   0.676   7.826 -0.8533 -1.8313  2.4567
   43CHL1  H21B 3162   5.539   0.587   7.926  0.1564 -1.5407 -0.9218
   43CHL1  H21C 3163   5.552   0.576   7.749 -0.3920  1.3500 -1.0516
   43CHL1   C22 3164   5.594   0.872   7.937 -0.0844  0.4563  0.5510
   43CHL1  H22A 3165   5.670   0.952   7.932  1.2049 -0.6101  2.1465
   43CHL1  H22B 3166   5.498   0.918   7.905 -2.4086 -2.7494  2.3298
   43CHL1   C23 3167   5.597   0.822   8.077  0.8237 -0.5550 -0.1642
   43CHL1  H23A 3168   5.514   0.753   8.099  0.7323 -0.2723  0.3820
   43CHL1  H23B 3169   5.691   0.764   8.091  0.7201 -0.6630  0.0751
   43CHL1   C24 3170   5.599   0.943   8.179 -0.0905  0.1338  0.2804
   43CHL1  H24A 3171   5.650   1.031   8.134 -2.4621  1.7049  0.5136
   43CHL1  H24B 3172   5.494   0.976   8.189 -0.0907 -0.0017  0.7605
   43CHL1   C25 3173   5.670   0.919   8.311  0.4237 -0.2185 -0.2202
   43CHL1   H25 3174   5.776   0.897   8.288  0.2580 -1.7018  0.3014
   43CHL1   C26 3175   5.652   1.042   8.397 -0.2039 -0.2367  0.5475
   43CHL1  H26A 3176   5.724   1.038   8.482 -0.5768 -0.7232  0.8464
   43CHL1  H26B 3177   5.679   1.135   8.343  0.3055  0.1405  1.4226
   43CHL1  H26C 3178   5.553   1.063   8.442  0.0002 -0.2834  1.0255
   43CHL1   C27 3179   5.610   0.795   8.383 -0.2384  0.1685 -0.7349
   43CHL1  H27A 3180   5.500   0.805   8.392 -0.4220 -1.6946 -0.5738
   43CHL1  H27B 3181   5.624   0.699   8.330  0.3238  0.2107 -0.6673
   43CHL1  H27C 3182   5.646   0.791   8.488 -1.7424 -1.4026 -0.2334
   44CHL1    C3 3183   3.483   4.003   6.526 -0.3555 -0.5958 -0.1398
   44CHL1    H3 3184   3.591   3.983   6.544 -0.7943 -3.8840 -0.6207
   44CHL1    O3 3185   3.471   3.997   6.382 -0.1694 -0.2020 -0.2303
   44CHL1   H3' 3186   3.383   4.028   6.359 -1.1013 -1.6679  1.1824
   44CHL1    C4 3187   3.385   3.907   6.591 -0.0183  0.2637  0.1422
   44CHL1   H4A 3188   3.281   3.935   6.565  0.3773  0.2883 -1.5545
   44CHL1   H4B 3189   3.413   3.803   6.564  2.4287  1.0566 -0.6767
   44CHL1    C5 3190   3.394   3.909   6.745 -0.4456  0.1431  0.0389
   44CHL1    C6 3191   3.433   3.807   6.817  0.0260  0.1454  0.3413
   44CHL1    H6 3192   3.446   3.713   6.762  0.0591  1.4363 -1.9762
   44CHL1    C7 3193   3.432   3.804   6.966  0.5047  0.4201  0.8366
   44CHL1   H7A 3194   3.379   3.717   7.011 -1.4237  0.9906 -0.1810
   44CHL1   H7B 3195   3.539   3.805   6.993  0.4847 -0.6684  0.9989
   44CHL1    C8 3196   3.374   3.931   7.035  0.1326 -0.4434  0.1361
   44CHL1    H8 3197   3.263   3.931   7.031 -0.2481  3.6381  3.1973
   44CHL1   C14 3198   3.417   3.946   7.183  0.5654  0.4040  0.5577
   44CHL1   H14 3199   3.528   3.959   7.183  0.4228  1.7930  0.0259
   44CHL1   C15 3200   3.402   3.820   7.268  0.6437  0.9742  0.9100
   44CHL1  H15A 3201   3.295   3.792   7.258  0.6682  0.7788  1.2169
   44CHL1  H15B 3202   3.467   3.734   7.244  0.3163 -0.1704  3.8093
   44CHL1   C16 3203   3.427   3.881   7.409  0.4618 -0.2227 -0.4872
   44CHL1  H16A 3204   3.339   3.858   7.472  0.9536  0.7607  0.5929
   44CHL1  H16B 3205   3.521   3.848   7.459 -0.6967 -1.3554  1.0216
   44CHL1   C17 3206   3.428   4.038   7.392  0.4037  1.0104  0.5818
   44CHL1   H17 3207   3.534   4.068   7.379  0.5454  1.0165  1.7012
   44CHL1   C13 3208   3.363   4.061   7.252  0.3167  0.6575  0.3170
   44CHL1   C18 3209   3.209   4.041   7.263  0.1911  0.4739 -0.9757
   44CHL1  H18A 3210   3.168   3.953   7.317 -0.2996 -0.3597 -2.6107
   44CHL1  H18B 3211   3.177   4.136   7.310  2.1829  0.0789  1.4012
   44CHL1  H18C 3212   3.157   4.032   7.165 -0.3376  1.7293 -0.8269
   44CHL1   C12 3213   3.401   4.191   7.174  0.3452  0.1919 -0.6318
   44CHL1  H12A 3214   3.340   4.272   7.218  0.8047  0.7751 -1.0523
   44CHL1  H12B 3215   3.502   4.237   7.181 -0.5467  2.1766  0.0238
   44CHL1   C11 3216   3.357   4.178   7.030  0.2642 -0.6875  0.1367
   44CHL1  H11A 3217   3.247   4.168   7.023 -0.1651  0.7285  3.3013
   44CHL1  H11B 3218   3.388   4.276   6.988 -0.0635 -0.5330  0.2544
   44CHL1    C9 3219   3.420   4.058   6.959  0.5386 -1.1498 -0.7644
   44CHL1    H9 3220   3.531   4.057   6.958  0.6083 -1.2443  1.6873
   44CHL1   C10 3221   3.374   4.045   6.809 -0.0844  0.4862  0.0274
   44CHL1   C19 3222   3.226   4.081   6.789 -0.2546  0.0659  0.8572
   44CHL1  H19A 3223   3.219   4.192   6.792  0.1016  0.4342 -4.1494
   44CHL1  H19B 3224   3.197   4.076   6.682  0.8704 -0.0306  0.5433
   44CHL1  H19C 3225   3.154   4.037   6.861 -0.8803  0.2654  0.3620
   44CHL1    C1 3226   3.460   4.156   6.731  0.8032 -0.4656  0.0964
   44CHL1   H1A 3227   3.436   4.257   6.772  2.3426  0.3761 -0.9782
   44CHL1   H1B 3228   3.566   4.136   6.756  0.7409 -0.5066  0.3404
   44CHL1    C2 3229   3.459   4.148   6.575  0.7230  0.8942 -0.0435
   44CHL1   H2A 3230   3.529   4.213   6.520  1.0361  0.4490 -0.1687
   44CHL1   H2B 3231   3.357   4.187   6.550  0.6983 -0.0278 -1.4781
   44CHL1   C20 3232   3.371   4.117   7.517 -0.2537  1.1720 -1.0312
   44CHL1   H20 3233   3.265   4.088   7.531 -0.3140  1.5628 -0.6678
   44CHL1   C21 3234   3.376   4.273   7.495 -0.4305  1.0340 -0.4709
   44CHL1  H21A 3235   3.303   4.305   7.418 -0.5648  1.0223 -0.3484
   44CHL1  H21B 3236   3.473   4.307   7.453 -0.5493 -0.1011 -1.6947
   44CHL1  H21C 3237   3.363   4.327   7.592  0.4210 -1.1149  0.9128
   44CHL1   C22 3238   3.438   4.090   7.654 -0.6109 -0.0475 -0.2735
   44CHL1  H22A 3239   3.476   3.986   7.663  0.9898  0.6121  0.9009
   44CHL1  H22B 3240   3.526   4.154   7.675 -2.1457  2.2218 -0.3447
   44CHL1   C23 3241   3.340   4.122   7.767 -0.4869  0.1724 -0.4001
   44CHL1  H23A 3242   3.301   4.226   7.761 -1.6536 -0.2233  0.2166
   44CHL1  H23B 3243   3.253   4.054   7.770 -2.3363  2.4208  0.5155
   44CHL1   C24 3244   3.419   4.114   7.903  0.2955  0.1830  0.6325
   44CHL1  H24A 3245   3.478   4.021   7.890  1.9806  1.5941 -4.0026
   44CHL1  H24B 3246   3.493   4.197   7.892 -2.6767  2.9904  0.2540
   44CHL1   C25 3247   3.346   4.123   8.039  0.1626  0.1792 -0.0155
   44CHL1   H25 3248   3.286   4.031   8.055  0.9366 -0.3762 -0.2791
   44CHL1   C26 3249   3.440   4.143   8.158 -0.4897  0.1271  0.4067
   44CHL1  H26A 3250   3.505   4.059   8.190 -1.1728  0.4488  2.8588
   44CHL1  H26B 3251   3.513   4.225   8.141  0.3477 -0.6418  0.2165
   44CHL1  H26C 3252   3.382   4.157   8.251 -1.5680  0.3987 -0.2866
   44CHL1   C27 3253   3.246   4.234   8.034 -0.4788  0.1583  0.1337
   44CHL1  H27A 3254   3.165   4.224   8.110  0.4654  1.1888  1.3206
   44CHL1  H27B 3255   3.296   4.331   8.057 -1.1021  0.4690  0.2264
   44CHL1  H27C 3256   3.182   4.235   7.944  0.7468 -2.8258 -0.8944
   45CHL1    C3 3257   6.803   2.470   6.736  0.2935 -0.1548  0.0008
   45CHL1    H3 3258   6.747   2.565   6.719  1.5545  0.4205 -1.0795
   45CHL1    O3 3259   6.829   2.426   6.607 -0.1996  1.0434  0.1518
   45CHL1   H3' 3260   6.863   2.511   6.577  1.5021  0.5387  0.5785
   45CHL1    C4 3261   6.932   2.509   6.808  0.3497 -0.0579 -0.5786
   45CHL1   H4A 3262   7.000   2.422   6.800 -0.1041 -0.3269 -1.5862
   45CHL1   H4B 3263   6.978   2.599   6.762 -0.7510  0.2248 -1.1520
   45CHL1    C5 3264   6.898   2.554   6.954 -0.6596 -0.1613 -0.0345
   45CHL1    C6 3265   6.939   2.673   7.010  0.6597 -0.5529 -0.3038
   45CHL1    H6 3266   6.997   2.747   6.952  0.3485  0.8538  1.0939
   45CHL1    C7 3267   6.922   2.707   7.157  0.7639  0.3622  0.2768
   45CHL1   H7A 3268   7.022   2.728   7.200  0.7245  0.2854  0.4056
   45CHL1   H7B 3269   6.854   2.794   7.153  0.8575  0.3847 -1.6393
   45CHL1    C8 3270   6.866   2.591   7.240  0.6646 -1.0065  0.1416
   45CHL1    H8 3271   6.951   2.524   7.266  0.0479 -2.3799 -1.1527
   45CHL1   C14 3272   6.806   2.636   7.377 -0.7724  0.4548 -0.1813
   45CHL1   H14 3273   6.723   2.700   7.342  0.5156  1.0870 -2.3022
   45CHL1   C15 3274   6.888   2.734   7.472 -0.1399  0.1112 -0.5336
   45CHL1  H15A 3275   6.998   2.717   7.465  0.0433  1.0191 -0.0105
   45CHL1  H15B 3276   6.880   2.836   7.430  1.0552 -0.3317 -1.9277
   45CHL1   C16 3277   6.822   2.718   7.613 -0.3395 -0.5230  0.6350
   45CHL1  H16A 3278   6.904   2.689   7.684  1.0653  1.3061 -0.1566
   45CHL1  H16B 3279   6.789   2.816   7.655 -0.1715 -0.5479  0.8289
   45CHL1   C17 3280   6.708   2.620   7.593  0.0961  0.4770  0.5740
   45CHL1   H17 3281   6.620   2.678   7.560 -1.3354 -0.5030  2.4871
   45CHL1   C13 3282   6.753   2.527   7.469 -0.6386 -0.7006 -0.4053
   45CHL1   C18 3283   6.867   2.431   7.511  0.1639 -0.1208  0.5563
   45CHL1  H18A 3284   6.919   2.388   7.422 -1.5733 -0.7132 -0.2207
   45CHL1  H18B 3285   6.950   2.484   7.561  0.8746  1.5296 -2.1488
   45CHL1  H18C 3286   6.828   2.349   7.574  1.5373 -0.2776  1.2336
   45CHL1   C12 3287   6.636   2.457   7.398 -0.6371 -0.0739  0.0926
   45CHL1  H12A 3288   6.608   2.366   7.454 -1.1364  0.2916  0.4409
   45CHL1  H12B 3289   6.557   2.532   7.377 -0.9963 -0.5582 -0.3019
   45CHL1   C11 3290   6.688   2.411   7.261 -0.3969 -0.2649  0.6719
   45CHL1  H11A 3291   6.760   2.330   7.288 -0.7071 -0.1597  1.9102
   45CHL1  H11B 3292   6.604   2.357   7.212 -1.2589  2.0688 -0.5310
   45CHL1    C9 3293   6.759   2.514   7.168 -0.4722  0.0143  0.0914
   45CHL1    H9 3294   6.684   2.594   7.147  0.0019  0.6987  0.9762
   45CHL1   C10 3295   6.807   2.455   7.030 -0.7993  0.0112  0.2860
   45CHL1   C19 3296   6.891   2.337   7.046  0.2592  0.3395  0.5136
   45CHL1  H19A 3297   6.937   2.302   6.951  0.0354 -1.0275  0.8898
   45CHL1  H19B 3298   6.969   2.356   7.122  0.3410  0.7667  0.3249
   45CHL1  H19C 3299   6.829   2.253   7.086 -2.0891  0.4115 -2.5742
   45CHL1    C1 3300   6.686   2.418   6.948  0.6300  0.1538  0.6027
   45CHL1   H1A 3301   6.636   2.335   7.004  2.9898 -1.7684  0.0160
   45CHL1   H1B 3302   6.611   2.497   6.928  0.3903 -0.5326 -1.4231
   45CHL1    C2 3303   6.723   2.362   6.812 -0.4190 -0.5215  0.1081
   45CHL1   H2A 3304   6.632   2.327   6.759 -1.4662  0.3814  1.2491
   45CHL1   H2B 3305   6.798   2.280   6.811 -1.2231 -1.3119 -2.3951
   45CHL1   C20 3306   6.659   2.549   7.720 -0.6366 -0.1381 -0.2399
   45CHL1   H20 3307   6.612   2.451   7.694 -0.3259 -0.3811  0.1015
   45CHL1   C21 3308   6.543   2.636   7.771  0.4195 -0.0421  0.2204
   45CHL1  H21A 3309   6.460   2.625   7.698  1.2997 -1.8933 -0.5443
   45CHL1  H21B 3310   6.575   2.743   7.774 -2.0970  0.9237 -2.2264
   45CHL1  H21C 3311   6.491   2.596   7.860 -3.1901  1.6240 -0.9518
   45CHL1   C22 3312   6.767   2.536   7.830  0.6715 -0.1855  0.8238
   45CHL1  H22A 3313   6.850   2.473   7.790  0.2869  0.3391 -0.8725
   45CHL1  H22B 3314   6.790   2.640   7.861  0.9234  0.2635 -0.7581
   45CHL1   C23 3315   6.723   2.463   7.962  0.2320  0.0207  0.2315
   45CHL1  H23A 3316   6.630   2.513   7.995  0.2289  0.7573 -0.8462
   45CHL1  H23B 3317   6.707   2.356   7.933 -0.6979  0.0630  0.5449
   45CHL1   C24 3318   6.831   2.465   8.069  0.0945 -0.3075 -0.5049
   45CHL1  H24A 3319   6.917   2.416   8.018  0.1086  1.4695 -2.3113
   45CHL1  H24B 3320   6.855   2.570   8.098 -1.7925  0.2136 -0.6585
   45CHL1   C25 3321   6.788   2.395   8.201 -0.6068 -0.7626 -0.6854
   45CHL1   H25 3322   6.746   2.296   8.171 -0.5143 -0.9466 -0.2069
   45CHL1   C26 3323   6.901   2.375   8.297  0.2178  0.0974 -0.5064
   45CHL1  H26A 3324   6.878   2.331   8.397 -1.3603 -1.5278 -1.5436
   45CHL1  H26B 3325   6.975   2.306   8.252 -1.0039 -0.9878 -0.8710
   45CHL1  H26C 3326   6.958   2.470   8.310 -0.9696  0.7015  0.5164
   45CHL1   C27 3327   6.672   2.469   8.278 -0.2794  0.5303 -0.2809
   45CHL1  H27A 3328   6.668   2.424   8.379  2.1718  0.1115 -0.3132
   45CHL1  H27B 3329   6.695   2.577   8.287 -0.8520  0.7928 -1.6859
   45CHL1  H27C 3330   6.573   2.460   8.227  0.5106 -1.6054 -1.5734
   46CHL1    C3 3331   4.727   5.256   7.039  0.4812  0.3308  0.1478
   46CHL1    H3 3332   4.704   5.365   7.041  0.5149  0.3418 -0.0587
   46CHL1    O3 3333   4.743   5.215   6.906 -0.0608 -0.4574 -0.4319
   46CHL1   H3' 3334   4.656   5.218   6.865  1.7385  2.9830 -4.8427
   46CHL1    C4 3335   4.842   5.224   7.133 -0.1055  0.2093  0.3515
   46CHL1   H4A 3336   4.869   5.118   7.113 -1.6552 -0.0590 -0.4794
   46CHL1   H4B 3337   4.931   5.281   7.096  0.6969 -0.9336  0.4597
   46CHL1    C5 3338   4.808   5.247   7.278 -0.6381 -0.6418 -0.2675
   46CHL1    C6 3339   4.891   5.333   7.353  0.6667  0.3086  0.4325
   46CHL1    H6 3340   4.976   5.381   7.303 -0.5886  4.0881  1.6234
   46CHL1    C7 3341   4.862   5.371   7.497 -0.3481  0.1917  0.1710
   46CHL1   H7A 3342   4.951   5.355   7.561 -1.0068  1.3972  1.4814
   46CHL1   H7B 3343   4.831   5.478   7.510  1.2347  0.3496  3.8380
   46CHL1    C8 3344   4.743   5.292   7.569 -0.5616 -0.1921 -0.3090
   46CHL1    H8 3345   4.789   5.193   7.589 -0.1799  0.1605  0.6455
   46CHL1   C14 3346   4.681   5.368   7.686 -1.0906  0.5789  0.6566
   46CHL1   H14 3347   4.634   5.457   7.637 -0.0317  0.6343 -0.2902
   46CHL1   C15 3348   4.778   5.425   7.780  0.0360  0.0663 -0.0684
   46CHL1  H15A 3349   4.851   5.347   7.809  1.6652  1.4719 -0.2254
   46CHL1  H15B 3350   4.837   5.503   7.727 -0.0226  0.8033  0.9148
   46CHL1   C16 3351   4.694   5.460   7.899 -0.4070 -0.1896 -0.0423
   46CHL1  H16A 3352   4.725   5.413   7.995 -0.4139  1.6630  0.9220
   46CHL1  H16B 3353   4.675   5.569   7.913  2.1771  0.3345 -0.1162
   46CHL1   C17 3354   4.556   5.397   7.872 -0.1515 -0.6697  0.5005
   46CHL1   H17 3355   4.493   5.477   7.828 -1.0329 -0.4152  2.1287
   46CHL1   C13 3356   4.581   5.295   7.764 -0.0156 -0.3852  0.2053
   46CHL1   C18 3357   4.643   5.165   7.822  0.2179 -0.1179  0.2941
   46CHL1  H18A 3358   4.674   5.094   7.742 -1.4779  0.4529 -0.9371
   46CHL1  H18B 3359   4.729   5.179   7.891  0.2311 -0.4591  0.3490
   46CHL1  H18C 3360   4.573   5.108   7.886  0.2162 -1.1370 -0.5880
   46CHL1   C12 3361   4.462   5.273   7.671 -0.1914 -0.5041 -0.2165
   46CHL1  H12A 3362   4.376   5.219   7.716  0.3166 -1.2556 -0.1351
   46CHL1  H12B 3363   4.420   5.375   7.652 -1.5068 -0.0498  3.9413
   46CHL1   C11 3364   4.509   5.199   7.545 -0.1263  0.1362 -0.0190
   46CHL1  H11A 3365   4.528   5.097   7.584 -1.0083  0.2108  0.6574
   46CHL1  H11B 3366   4.417   5.187   7.484 -0.4260 -2.1107  0.7999
   46CHL1    C9 3367   4.631   5.260   7.476  0.6915 -0.0510  0.0560
   46CHL1    H9 3368   4.595   5.359   7.441  0.5295 -0.3825 -0.7488
   46CHL1   C10 3369   4.672   5.190   7.344 -0.3868 -0.0963  0.0425
   46CHL1   C19 3370   4.690   5.040   7.368  1.0506  0.1291  0.5889
   46CHL1  H19A 3371   4.747   4.987   7.288 -1.1328 -0.6893 -0.5075
   46CHL1  H19B 3372   4.743   5.019   7.463 -1.1453 -1.6982  1.4900
   46CHL1  H19C 3373   4.595   4.985   7.384  1.7666 -1.0512  0.8928
   46CHL1    C1 3374   4.564   5.213   7.239 -0.4615  0.0052 -0.1428
   46CHL1   H1A 3375   4.474   5.158   7.274  0.4754 -1.9253 -0.6395
   46CHL1   H1B 3376   4.521   5.314   7.254 -0.5263 -0.1819  0.9884
   46CHL1    C2 3377   4.601   5.187   7.096  0.4967  0.2260  0.1575
   46CHL1   H2A 3378   4.515   5.192   7.026 -0.2368  0.3828  1.0428
   46CHL1   H2B 3379   4.616   5.077   7.097 -0.8651  0.0136  0.8272
   46CHL1   C20 3380   4.490   5.357   8.008  0.2889 -0.2665  0.1608
   46CHL1   H20 3381   4.561   5.281   8.048  0.7267 -0.0571 -0.1946
   46CHL1   C21 3382   4.355   5.296   7.992 -0.2389  0.1579  0.4327
   46CHL1  H21A 3383   4.351   5.214   7.917 -0.6909  0.1387  0.4781
   46CHL1  H21B 3384   4.278   5.368   7.957 -0.0750  0.2751  0.3138
   46CHL1  H21C 3385   4.314   5.258   8.088 -2.4638  0.7850 -0.2198
   46CHL1   C22 3386   4.469   5.464   8.115 -0.4619 -0.8618  0.2687
   46CHL1  H22A 3387   4.542   5.547   8.105 -1.5219 -0.0740 -1.2203
   46CHL1  H22B 3388   4.371   5.515   8.115 -0.8372 -1.5405  1.4515
   46CHL1   C23 3389   4.496   5.397   8.258  0.2088 -0.4379  0.2229
   46CHL1  H23A 3390   4.436   5.303   8.262  2.2892 -1.8337  0.1825
   46CHL1  H23B 3391   4.603   5.370   8.245  0.0866 -1.1326  0.5754
   46CHL1   C24 3392   4.468   5.478   8.388 -0.1044 -0.5807 -0.2256
   46CHL1  H24A 3393   4.367   5.524   8.394  0.8024  2.2593 -3.5026
   46CHL1  H24B 3394   4.492   5.412   8.474  0.6417  0.7265  0.5912
   46CHL1   C25 3395   4.552   5.598   8.416 -0.4808  0.1788 -0.1063
   46CHL1   H25 3396   4.543   5.679   8.339  0.7812 -1.7020 -2.3728
   46CHL1   C26 3397   4.506   5.653   8.552  0.1979 -0.6087 -0.7326
   46CHL1  H26A 3398   4.522   5.762   8.564  0.3513 -0.7903  0.9806
   46CHL1  H26B 3399   4.397   5.632   8.558  0.0306 -0.0567 -1.6638
   46CHL1  H26C 3400   4.558   5.596   8.632  2.0215  1.1349 -0.5889
   46CHL1   C27 3401   4.699   5.559   8.416 -0.2387  0.3289  0.1610
   46CHL1  H27A 3402   4.726   5.515   8.317 -0.4030  1.4016 -0.3666
   46CHL1  H27B 3403   4.763   5.647   8.438 -1.7716  1.2472  1.1644
   46CHL1  H27C 3404   4.706   5.480   8.494  0.7673 -0.2068 -0.4507
   47CHL1    C3 3405   4.377   0.187   6.604 -0.2096 -0.3632 -0.1341
   47CHL1    H3 3406   4.485   0.171   6.583 -0.2466 -0.8248  0.0005
   47CHL1    O3 3407   4.311   0.233   6.488  0.2352  0.3511 -0.0558
   47CHL1   H3' 3408   4.335   0.173   6.417 -1.8337  0.3281 -0.8062
   47CHL1    C4 3409   4.309   0.058   6.658  0.6156  0.2274  0.1189
   47CHL1   H4A 3410   4.198   0.068   6.649  0.5745  1.4230  1.6058
   47CHL1   H4B 3411   4.345  -0.021   6.589  1.8040 -0.6671  1.6927
   47CHL1    C5 3412   4.349   0.023   6.804  0.5138 -0.9593 -0.6846
   47CHL1    C6 3413   4.399  -0.097   6.837 -0.1702  0.6863  0.1279
   47CHL1    H6 3414   4.409  -0.174   6.759 -4.3541 -1.3072  1.2487
   47CHL1    C7 3415   4.440  -0.130   6.973 -0.2490  0.5152 -0.3958
   47CHL1   H7A 3416   4.414  -0.235   6.999  1.3795  0.8564  3.2934
   47CHL1   H7B 3417   4.550  -0.121   6.974 -0.2026  0.1058  1.4271
   47CHL1    C8 3418   4.387  -0.036   7.083 -1.3022  0.3081 -0.3148
   47CHL1    H8 3419   4.278  -0.054   7.095 -1.4282  1.2837  0.1448
   47CHL1   C14 3420   4.461  -0.059   7.211  0.4175 -0.5262 -0.3384
   47CHL1   H14 3421   4.567  -0.028   7.194  0.0034  1.8283  0.9858
   47CHL1   C15 3422   4.462  -0.198   7.273  0.9574  0.1482 -0.0913
   47CHL1  H15A 3423   4.359  -0.237   7.263  0.2777  1.4166  1.3375
   47CHL1  H15B 3424   4.520  -0.279   7.225 -0.7656 -0.2715 -1.5877
   47CHL1   C16 3425   4.496  -0.182   7.417 -0.2835 -0.1927 -0.6100
   47CHL1  H16A 3426   4.425  -0.229   7.488  0.2987 -0.3798 -0.1430
   47CHL1  H16B 3427   4.592  -0.230   7.446 -1.5275 -1.6787  1.3335
   47CHL1   C17 3428   4.503  -0.020   7.441 -0.5066  0.5656 -0.2750
   47CHL1   H17 3429   4.606   0.014   7.417  0.2401 -0.5414  1.2252
   47CHL1   C13 3430   4.414   0.039   7.331  0.1565 -0.1621  0.2151
   47CHL1   C18 3431   4.269   0.013   7.362 -0.3364  0.1824  0.2470
   47CHL1  H18A 3432   4.242   0.088   7.440 -0.5151 -0.0346  0.3978
   47CHL1  H18B 3433   4.196   0.029   7.280  0.7035  0.5553 -0.6209
   47CHL1  H18C 3434   4.263  -0.087   7.410  2.3922  0.1963  0.7665
   47CHL1   C12 3435   4.441   0.186   7.289  0.5114 -0.5543 -0.1767
   47CHL1  H12A 3436   4.397   0.263   7.356  1.6151  2.3181 -2.5467
   47CHL1  H12B 3437   4.550   0.206   7.291  0.2719  0.7462  0.9057
   47CHL1   C11 3438   4.376   0.211   7.155  0.0480 -0.0663  0.5621
   47CHL1  H11A 3439   4.266   0.217   7.169 -0.0297  0.7971 -0.3019
   47CHL1  H11B 3440   4.415   0.306   7.111  1.3909 -0.3104  1.1739
   47CHL1    C9 3441   4.408   0.112   7.043  0.0170 -0.7404  0.1823
   47CHL1    H9 3442   4.516   0.121   7.021 -0.3422 -1.8747 -2.3616
   47CHL1   C10 3443   4.337   0.141   6.903 -0.6061 -0.0671 -0.0400
   47CHL1   C19 3444   4.191   0.164   6.934  0.1612  0.1562  0.3986
   47CHL1  H19A 3445   4.172   0.260   6.986  0.8049  1.0934 -0.9978
   47CHL1  H19B 3446   4.148   0.186   6.834  1.4640 -0.1929 -0.2673
   47CHL1  H19C 3447   4.151   0.074   6.983 -3.0693 -0.0369 -2.2015
   47CHL1    C1 3448   4.409   0.269   6.842 -0.1467  0.0591  0.2552
   47CHL1   H1A 3449   4.397   0.361   6.903  0.7316  0.9228 -0.8256
   47CHL1   H1B 3450   4.515   0.237   6.835  0.2380  1.5675 -1.5506
   47CHL1    C2 3451   4.359   0.300   6.701 -0.1979  0.4788 -0.4685
   47CHL1   H2A 3452   4.408   0.385   6.649  1.9214  1.2917  2.5572
   47CHL1   H2B 3453   4.254   0.334   6.713 -0.6048 -0.8260 -0.1821
   47CHL1   C20 3454   4.466   0.007   7.589 -0.1797 -0.6334  0.0209
   47CHL1   H20 3455   4.360  -0.023   7.607  0.0633 -1.4901  0.0645
   47CHL1   C21 3456   4.481   0.156   7.619  0.7829 -0.3028 -0.2076
   47CHL1  H21A 3457   4.411   0.219   7.560  0.1197  0.4539  1.3413
   47CHL1  H21B 3458   4.575   0.208   7.592 -0.7562  1.6961 -2.0587
   47CHL1  H21C 3459   4.456   0.172   7.726  1.7719  1.7715 -0.2290
   47CHL1   C22 3460   4.555  -0.069   7.692  0.4993  0.4250 -0.4125
   47CHL1  H22A 3461   4.569  -0.176   7.665 -0.0405  0.4367 -0.7468
   47CHL1  H22B 3462   4.652  -0.015   7.688  0.4945  0.4286 -0.4991
   47CHL1   C23 3463   4.494  -0.067   7.831 -0.2525  0.1612 -0.3187
   47CHL1  H23A 3464   4.441   0.026   7.863 -1.1050 -1.0134  1.8790
   47CHL1  H23B 3465   4.400  -0.126   7.819 -1.0610  0.9934  1.4924
   47CHL1   C24 3466   4.594  -0.125   7.936 -0.0223 -0.7720 -0.3947
   47CHL1  H24A 3467   4.602  -0.235   7.928  2.9194 -0.7443  0.6541
   47CHL1  H24B 3468   4.701  -0.095   7.923 -0.2912  0.5309  0.2180
   47CHL1   C25 3469   4.549  -0.095   8.085 -0.0113 -0.2138 -0.1685
   47CHL1   H25 3470   4.442  -0.119   8.070  0.4972 -1.5903 -1.9119
   47CHL1   C26 3471   4.619  -0.192   8.179 -1.0259  0.0917 -0.0806
   47CHL1  H26A 3472   4.730  -0.195   8.177 -0.9946  0.3424  0.9071
   47CHL1  H26B 3473   4.587  -0.164   8.282  1.2940  0.2007  0.6682
   47CHL1  H26C 3474   4.581  -0.293   8.150 -3.2568  1.5154 -2.5389
   47CHL1   C27 3475   4.566   0.056   8.117  0.1552 -0.0359  0.0417
   47CHL1  H27A 3476   4.510   0.124   8.049 -0.4882 -1.4087 -0.8386
   47CHL1  H27B 3477   4.523   0.062   8.220 -1.1809 -0.8561 -0.4380
   47CHL1  H27C 3478   4.674   0.082   8.118  0.0396  0.7290  2.9078
   48CHL1    C3 3479   3.747   5.922   6.609  0.1009 -0.5662  0.8751
   48CHL1    H3 3480   3.826   5.857   6.652 -1.3060 -1.3510  2.4003
   48CHL1    O3 3481   3.756   5.939   6.466  0.1213  0.0782  0.3276
   48CHL1   H3' 3482   3.823   6.008   6.455 -1.1880  1.6988  1.9379
   48CHL1    C4 3483   3.616   5.860   6.647 -0.1342  0.3732  0.2995
   48CHL1   H4A 3484   3.535   5.920   6.600 -1.4791 -3.3975 -2.7725
   48CHL1   H4B 3485   3.604   5.762   6.595  0.2286  0.7091 -0.4274
   48CHL1    C5 3486   3.595   5.842   6.797 -0.6379  0.2754  1.0412
   48CHL1    C6 3487   3.566   5.728   6.862  0.6684  0.1285  0.6564
   48CHL1    H6 3488   3.541   5.636   6.808 -1.0540  2.0454 -2.0938
   48CHL1    C7 3489   3.545   5.721   7.015 -0.6721  0.2225 -0.2774
   48CHL1   H7A 3490   3.464   5.647   7.032 -0.8772  0.9008  2.0605
   48CHL1   H7B 3491   3.631   5.666   7.057  1.6230  2.3911 -1.8443
   48CHL1    C8 3492   3.525   5.862   7.083 -0.0317 -0.8335  0.4554
   48CHL1    H8 3493   3.421   5.892   7.061  0.6338  0.5184 -1.0722
   48CHL1   C14 3494   3.556   5.845   7.227 -0.4829 -0.4444  0.1675
   48CHL1   H14 3495   3.661   5.808   7.225 -0.4447 -0.3787 -2.3212
   48CHL1   C15 3496   3.479   5.738   7.302 -0.6395 -0.2766 -0.3626
   48CHL1  H15A 3497   3.377   5.753   7.260 -0.3596 -2.1992 -1.8951
   48CHL1  H15B 3498   3.517   5.635   7.282 -0.9952 -0.3375 -0.7405
   48CHL1   C16 3499   3.502   5.783   7.446  0.3257  0.2144  0.3206
   48CHL1  H16A 3500   3.400   5.783   7.490 -0.1043  2.4530 -0.5459
   48CHL1  H16B 3501   3.563   5.708   7.501  0.4800  0.6568  0.7576
   48CHL1   C17 3502   3.568   5.922   7.445  0.4070  0.1056  0.0455
   48CHL1   H17 3503   3.675   5.893   7.445  0.2277 -0.5817 -0.1802
   48CHL1   C13 3504   3.551   5.976   7.301  0.4213 -0.8962  0.0399
   48CHL1   C18 3505   3.404   6.032   7.291  1.3270 -0.0827 -0.2643
   48CHL1  H18A 3506   3.375   6.049   7.186 -0.5061  0.4971  0.2940
   48CHL1  H18B 3507   3.337   5.951   7.329 -0.7986  1.0888 -1.2979
   48CHL1  H18C 3508   3.395   6.129   7.345  0.3927  0.0324 -0.5965
   48CHL1   C12 3509   3.645   6.082   7.244 -0.0031 -0.3253  0.4240
   48CHL1  H12A 3510   3.639   6.179   7.298 -1.4476  0.2525 -0.7073
   48CHL1  H12B 3511   3.747   6.038   7.253  1.1968  2.5195  1.6359
   48CHL1   C11 3512   3.623   6.106   7.098 -0.0640  0.1039  0.7535
   48CHL1  H11A 3513   3.529   6.161   7.078 -0.1062 -0.2530 -0.0284
   48CHL1  H11B 3514   3.708   6.172   7.070 -0.3084 -0.1773 -0.7085
   48CHL1    C9 3515   3.627   5.966   7.026  0.7159 -0.0757  0.5785
   48CHL1    H9 3516   3.734   5.937   7.041  0.9018  0.3361  0.0746
   48CHL1   C10 3517   3.610   5.973   6.869 -0.3174 -0.2191 -0.8740
   48CHL1   C19 3518   3.493   6.073   6.832  0.1552  0.9115 -0.1356
   48CHL1  H19A 3519   3.519   6.181   6.843 -1.3981  1.5305 -1.9270
   48CHL1  H19B 3520   3.465   6.066   6.725  2.8572 -2.5283 -0.7811
   48CHL1  H19C 3521   3.402   6.056   6.894 -0.3450  2.3589 -0.4278
   48CHL1    C1 3522   3.746   6.041   6.820  0.8412  0.4792  0.1335
   48CHL1   H1A 3523   3.757   6.139   6.872 -1.1437  0.1400  1.2919
   48CHL1   H1B 3524   3.829   5.987   6.870 -0.3392  0.6377  2.3494
   48CHL1    C2 3525   3.756   6.059   6.670  0.1666 -0.0447 -0.0526
   48CHL1   H2A 3526   3.850   6.111   6.642 -1.4262  2.3132 -1.4809
   48CHL1   H2B 3527   3.667   6.110   6.625 -1.2284 -0.6153  1.9348
   48CHL1   C20 3528   3.555   6.025   7.557  0.6485  0.2459  0.2389
   48CHL1   H20 3529   3.574   6.122   7.505  1.6004 -0.2216 -0.3208
   48CHL1   C21 3530   3.678   6.005   7.659 -0.0107  0.0440 -0.0947
   48CHL1  H21A 3531   3.687   6.076   7.744  1.4875 -0.5173  0.2527
   48CHL1  H21B 3532   3.774   6.024   7.605  0.9901 -1.3108  1.1305
   48CHL1  H21C 3533   3.690   5.899   7.690 -1.5816 -1.0880 -2.9919
   48CHL1   C22 3534   3.423   6.020   7.635  0.0755  0.6126  0.4333
   48CHL1  H22A 3535   3.340   6.003   7.564 -0.9811 -1.6267  2.0894
   48CHL1  H22B 3536   3.425   5.932   7.703 -2.8403  2.5235  3.2454
   48CHL1   C23 3537   3.399   6.148   7.708  0.4817  0.2185  0.1738
   48CHL1  H23A 3538   3.477   6.163   7.785 -0.6827 -1.6240  1.8077
   48CHL1  H23B 3539   3.399   6.236   7.640  0.7315  1.7263  2.0318
   48CHL1   C24 3540   3.264   6.148   7.786  0.4287  0.3384  0.3539
   48CHL1  H24A 3541   3.179   6.125   7.719 -1.9613 -0.3614  3.3846
   48CHL1  H24B 3542   3.271   6.057   7.850  0.9910 -0.5153 -0.8839
   48CHL1   C25 3543   3.225   6.268   7.872 -0.1753  0.1651 -0.1398
   48CHL1   H25 3544   3.302   6.312   7.939 -0.2698  0.9982 -0.5556
   48CHL1   C26 3545   3.194   6.388   7.775  0.3342  0.0703 -0.1520
   48CHL1  H26A 3546   3.288   6.400   7.717  0.0630 -1.1442 -0.8885
   48CHL1  H26B 3547   3.103   6.361   7.717 -0.5651 -0.1496  1.3086
   48CHL1  H26C 3548   3.174   6.475   7.840 -2.2129 -2.1936  2.3855
   48CHL1   C27 3549   3.099   6.231   7.956  0.5898 -0.2175 -0.1695
   48CHL1  H27A 3550   3.123   6.171   8.046 -1.5390 -0.0021  0.5984
   48CHL1  H27B 3551   3.049   6.321   7.996 -0.2838 -1.3901  1.4623
   48CHL1  H27C 3552   3.028   6.168   7.898 -3.2565 -0.0481  3.8520
   49CHL1    C3 3553   6.481   2.909   6.823  0.7587  0.0889 -0.2953
   49CHL1    H3 3554   6.481   3.019   6.831  1.1236  0.1315 -0.7997
   49CHL1    O3 3555   6.540   2.886   6.695  0.1986 -0.1598 -0.2919
   49CHL1   H3' 3556   6.634   2.868   6.703 -0.1645 -2.6760 -0.8785
   49CHL1    C4 3557   6.567   2.844   6.935 -0.7113 -0.3477 -0.5138
   49CHL1   H4A 3558   6.573   2.734   6.924  2.0240 -0.2144 -1.0509
   49CHL1   H4B 3559   6.669   2.884   6.917 -0.7071  0.9493  1.9767
   49CHL1    C5 3560   6.504   2.875   7.068 -0.6914 -0.0623 -0.2866
   49CHL1    C6 3561   6.576   2.936   7.163 -0.8296  0.7443  0.5407
   49CHL1    H6 3562   6.683   2.952   7.141 -0.2950 -1.6724  1.1164
   49CHL1    C7 3563   6.531   2.965   7.299  0.2085  0.3086 -0.3762
   49CHL1   H7A 3564   6.603   2.926   7.374 -0.2928  0.2241  0.0675
   49CHL1   H7B 3565   6.518   3.075   7.307 -0.0845  0.1967  1.0403
   49CHL1    C8 3566   6.392   2.899   7.335 -0.1722  0.0569  0.2959
   49CHL1    H8 3567   6.416   2.794   7.364  1.3595  0.2060 -0.3437
   49CHL1   C14 3568   6.327   2.964   7.457  0.3878  0.0851  0.0845
   49CHL1   H14 3569   6.299   3.065   7.419 -0.6821  1.0315  3.0933
   49CHL1   C15 3570   6.409   2.971   7.590 -0.6204 -0.6336  0.5280
   49CHL1  H15A 3571   6.462   2.875   7.606 -2.4175 -2.3919 -2.9154
   49CHL1  H15B 3572   6.482   3.054   7.582 -2.7082  1.1520 -1.2699
   49CHL1   C16 3573   6.294   2.994   7.692  0.7530  0.3674 -0.2720
   49CHL1  H16A 3574   6.305   2.924   7.778 -0.4802  0.0331 -0.3678
   49CHL1  H16B 3575   6.293   3.096   7.737 -3.0101 -0.2808  1.4478
   49CHL1   C17 3576   6.161   2.972   7.623  0.5002 -0.2962  0.3633
   49CHL1   H17 3577   6.127   3.075   7.596 -1.7865 -1.1227 -0.1428
   49CHL1   C13 3578   6.190   2.901   7.497 -0.9955  0.4875 -0.1378
   49CHL1   C18 3579   6.221   2.760   7.542  0.2001 -0.2062 -0.6464
   49CHL1  H18A 3580   6.295   2.753   7.625  0.5589 -0.3164 -0.9755
   49CHL1  H18B 3581   6.127   2.712   7.576  1.2192 -2.6394 -1.0029
   49CHL1  H18C 3582   6.257   2.696   7.459 -0.7031 -0.1847 -1.0593
   49CHL1   C12 3583   6.093   2.901   7.379  1.0215  0.0100  1.2463
   49CHL1  H12A 3584   5.997   2.847   7.394 -0.0797  1.5452  0.0653
   49CHL1  H12B 3585   6.057   3.004   7.355  0.9819 -0.1580  0.5485
   49CHL1   C11 3586   6.155   2.837   7.250 -0.0695  0.1339 -0.0682
   49CHL1  H11A 3587   6.158   2.728   7.273 -0.3347  0.3787  1.1965
   49CHL1  H11B 3588   6.086   2.842   7.163  0.0922 -1.8691 -0.3616
   49CHL1    C9 3589   6.299   2.891   7.215  0.6365  0.2160  0.3840
   49CHL1    H9 3590   6.277   2.998   7.194 -0.9679  0.2605  2.0209
   49CHL1   C10 3591   6.360   2.829   7.087 -0.3884 -0.3244 -0.1370
   49CHL1   C19 3592   6.365   2.682   7.100 -0.3860  0.0102 -0.1226
   49CHL1  H19A 3593   6.262   2.643   7.121  0.2626 -1.0656  1.2454
   49CHL1  H19B 3594   6.399   2.640   7.003  0.1505 -0.1039  0.1102
   49CHL1  H19C 3595   6.428   2.646   7.183  0.0833 -1.3036 -1.0147
   49CHL1    C1 3596   6.273   2.871   6.961  0.7421  1.3647  0.1990
   49CHL1   H1A 3597   6.167   2.836   6.964  0.9686  0.6424  0.0121
   49CHL1   H1B 3598   6.261   2.981   6.967 -1.1982  1.1626  0.9393
   49CHL1    C2 3599   6.341   2.842   6.828 -0.0619 -0.2327 -0.6624
   49CHL1   H2A 3600   6.275   2.879   6.747 -2.2238 -0.1878  1.0074
   49CHL1   H2B 3601   6.347   2.735   6.801  0.1479 -0.3279 -0.2452
   49CHL1   C20 3602   6.047   2.926   7.722  0.3089 -0.1647 -0.4066
   49CHL1   H20 3603   6.064   2.819   7.748 -1.1798 -0.5248 -0.8300
   49CHL1   C21 3604   5.910   2.927   7.650 -0.4118 -0.1228 -0.2205
   49CHL1  H21A 3605   5.824   2.927   7.721 -0.3284 -0.0834 -0.1180
   49CHL1  H21B 3606   5.895   2.836   7.589 -1.1853 -1.6251  2.0770
   49CHL1  H21C 3607   5.908   3.010   7.576  1.6629 -0.9081 -1.2021
   49CHL1   C22 3608   6.044   3.009   7.856  0.6737 -0.3734  0.0844
   49CHL1  H22A 3609   6.147   3.046   7.877  0.2500  0.9715 -0.1200
   49CHL1  H22B 3610   5.982   3.100   7.843  1.0132 -0.3896 -2.1501
   49CHL1   C23 3611   5.994   2.928   7.975  0.1893 -0.0945  0.0430
   49CHL1  H23A 3612   5.907   2.868   7.940  1.5816 -0.1878 -3.7359
   49CHL1  H23B 3613   6.068   2.849   7.998 -0.6952 -1.1684 -0.6717
   49CHL1   C24 3614   5.981   3.013   8.105  0.7139  1.0245  0.6242
   49CHL1  H24A 3615   6.084   3.049   8.126  1.3268 -0.3111 -0.0008
   49CHL1  H24B 3616   5.914   3.098   8.082 -2.1360 -0.9796  0.9551
   49CHL1   C25 3617   5.930   2.922   8.213  0.4400  0.6553  1.1316
   49CHL1   H25 3618   5.827   2.887   8.190  0.2421  1.0150  1.4653
   49CHL1   C26 3619   6.020   2.802   8.250 -0.1239 -0.8147 -0.3382
   49CHL1  H26A 3620   6.121   2.843   8.275 -0.4790  0.1030 -0.3675
   49CHL1  H26B 3621   5.992   2.741   8.338  0.1998 -2.4328 -1.3268
   49CHL1  H26C 3622   6.036   2.736   8.162 -2.8332 -1.6091 -0.3130
   49CHL1   C27 3623   5.925   3.024   8.328 -0.4656  0.1706 -0.3962
   49CHL1  H27A 3624   5.934   2.970   8.424  1.6110 -1.1033 -1.2331
   49CHL1  H27B 3625   6.022   3.078   8.331 -0.3798 -0.0133  1.3897
   49CHL1  H27C 3626   5.840   3.094   8.320 -0.6397 -0.1228 -1.3150
   50CHL1    C3 3627   2.515   2.438   6.772  0.3237 -0.1277  0.0329
   50CHL1    H3 3628   2.516   2.545   6.800  1.6350 -0.3846  1.0440
   50CHL1    O3 3629   2.472   2.426   6.637 -0.0194  0.0756 -0.4353
   50CHL1   H3' 3630   2.549   2.433   6.580  1.3910 -1.0976  1.2089
   50CHL1    C4 3631   2.657   2.383   6.788  0.1511 -0.5063  0.2565
   50CHL1   H4A 3632   2.657   2.276   6.761  0.1464 -0.2722 -0.6857
   50CHL1   H4B 3633   2.724   2.423   6.709  0.3524  1.4986  1.3542
   50CHL1    C5 3634   2.711   2.393   6.927  0.6683  0.0650  0.1531
   50CHL1    C6 3635   2.824   2.463   6.955  0.3062 -0.2110 -0.3306
   50CHL1    H6 3636   2.867   2.516   6.868  0.4493  1.0069  0.4695
   50CHL1    C7 3637   2.878   2.491   7.097 -0.3405  0.0625  0.2617
   50CHL1   H7A 3638   2.986   2.466   7.109 -0.5593 -0.8502  0.3715
   50CHL1   H7B 3639   2.856   2.596   7.126 -0.0644  0.7894 -1.9703
   50CHL1    C8 3640   2.803   2.401   7.202  0.7340 -0.7879  0.1861
   50CHL1    H8 3641   2.847   2.302   7.176 -2.2741 -1.5691 -2.5997
   50CHL1   C14 3642   2.827   2.451   7.342  0.4097  1.1127 -0.4805
   50CHL1   H14 3643   2.770   2.546   7.347 -0.9429  0.2933  0.4471
   50CHL1   C15 3644   2.971   2.474   7.381  0.8476 -0.0360  0.1422
   50CHL1  H15A 3645   3.034   2.397   7.333  1.3185  1.7904 -2.3261
   50CHL1  H15B 3646   3.019   2.569   7.349  1.6478 -1.0974 -1.9380
   50CHL1   C16 3647   2.968   2.464   7.540  0.0215  0.1287  0.6779
   50CHL1  H16A 3648   3.049   2.389   7.555  0.9384  0.7200 -1.0169
   50CHL1  H16B 3649   3.000   2.558   7.591  0.6337  1.6579 -2.2815
   50CHL1   C17 3650   2.827   2.423   7.582 -0.4266  0.2224  0.0181
   50CHL1   H17 3651   2.770   2.515   7.609 -0.1813  0.4546 -0.2463
   50CHL1   C13 3652   2.764   2.364   7.451 -0.2776  0.2958  0.3707
   50CHL1   C18 3653   2.813   2.208   7.439 -0.5038  0.0617 -0.1265
   50CHL1  H18A 3654   2.924   2.198   7.447 -0.4823 -0.7992 -1.1922
   50CHL1  H18B 3655   2.764   2.147   7.517 -0.3282  0.7949  0.5714
   50CHL1  H18C 3656   2.784   2.163   7.341  0.7859 -0.6024 -0.2285
   50CHL1   C12 3657   2.612   2.373   7.433  0.1601  0.1237  0.1751
   50CHL1  H12A 3658   2.563   2.303   7.505  1.1468  0.0662  0.8029
   50CHL1  H12B 3659   2.572   2.474   7.457 -1.5236 -0.8403  1.7649
   50CHL1   C11 3660   2.568   2.343   7.291 -0.1281  0.1450 -0.0381
   50CHL1  H11A 3661   2.581   2.233   7.285  0.5010  0.2090  0.0638
   50CHL1  H11B 3662   2.459   2.362   7.280 -0.3454 -0.7494  0.4808
   50CHL1    C9 3663   2.651   2.403   7.175  0.2212 -0.5248 -0.2461
   50CHL1    H9 3664   2.624   2.510   7.162  1.6389 -0.2634 -1.1782
   50CHL1   C10 3665   2.610   2.340   7.035 -0.5006  0.1895  0.6398
   50CHL1   C19 3666   2.637   2.189   7.025 -0.4219 -0.7604  0.3399
   50CHL1  H19A 3667   2.583   2.116   7.089 -1.7118 -0.0515  0.0936
   50CHL1  H19B 3668   2.607   2.147   6.927  1.9105 -0.6077 -0.5084
   50CHL1  H19C 3669   2.744   2.160   7.027 -0.0955  0.2663 -0.9854
   50CHL1    C1 3670   2.461   2.370   7.007  0.6174  0.5582 -0.4591
   50CHL1   H1A 3671   2.398   2.299   7.065 -2.4531  0.1640 -3.9047
   50CHL1   H1B 3672   2.436   2.471   7.045 -0.9019  0.1596 -0.3325
   50CHL1    C2 3673   2.419   2.363   6.860  0.1474 -0.3192  0.0879
   50CHL1   H2A 3674   2.322   2.417   6.861  0.3812  0.0967  0.4640
   50CHL1   H2B 3675   2.404   2.261   6.817 -0.4488 -0.1628 -0.0783
   50CHL1   C20 3676   2.829   2.330   7.702  0.1536  0.0767  0.2373
   50CHL1   H20 3677   2.863   2.230   7.670 -1.3473 -0.0847 -0.9265
   50CHL1   C21 3678   2.688   2.308   7.742  0.4028 -0.0296  0.3366
   50CHL1  H21A 3679   2.631   2.403   7.749 -0.9078 -0.8635  1.7161
   50CHL1  H21B 3680   2.666   2.265   7.843 -3.4995 -1.3417 -0.8661
   50CHL1  H21C 3681   2.638   2.240   7.670  0.0140  0.0524  0.5234
   50CHL1   C22 3682   2.913   2.384   7.823  0.7204 -0.1833 -0.1855
   50CHL1  H22A 3683   2.906   2.312   7.907  2.3411 -0.9602 -0.6567
   50CHL1  H22B 3684   3.022   2.385   7.801  0.9919 -1.0933  1.0189
   50CHL1   C23 3685   2.876   2.523   7.879  0.6540 -0.1722  0.2963
   50CHL1  H23A 3686   2.889   2.594   7.795 -0.6662 -0.4819 -0.1981
   50CHL1  H23B 3687   2.770   2.537   7.911  0.9696 -0.1524  1.3711
   50CHL1   C24 3688   2.977   2.569   7.983 -0.2638 -0.9587 -0.4206
   50CHL1  H24A 3689   3.077   2.554   7.937  1.3833  3.4414  1.2003
   50CHL1  H24B 3690   2.986   2.676   8.009 -1.4244 -0.7207 -0.9238
   50CHL1   C25 3691   2.989   2.490   8.114  0.9808 -0.3976 -0.2552
   50CHL1   H25 3692   3.006   2.383   8.089  3.4232  0.3071 -1.9587
   50CHL1   C26 3693   3.101   2.539   8.207 -0.2203  0.0327 -0.4475
   50CHL1  H26A 3694   3.059   2.629   8.258 -0.1422 -1.2291  2.0328
   50CHL1  H26B 3695   3.118   2.469   8.291 -1.7163 -0.1108 -0.2213
   50CHL1  H26C 3696   3.198   2.556   8.157 -0.5377  0.4439 -0.9354
   50CHL1   C27 3697   2.852   2.474   8.190  0.0754 -0.0367  0.3659
   50CHL1  H27A 3698   2.859   2.412   8.283 -3.2343 -2.0916 -0.6004
   50CHL1  H27B 3699   2.808   2.570   8.222  2.3203  0.9815  0.6257
   50CHL1  H27C 3700   2.778   2.421   8.127  0.3417  0.6507 -0.5327
   51CHL1    C3 3701   0.670   1.118   6.821  0.1674  0.2148 -0.1959
   51CHL1    H3 3702   0.698   1.225   6.837  1.2758 -0.0191 -0.4182
   51CHL1    O3 3703   0.640   1.110   6.682  0.3685 -0.3199  0.0783
   51CHL1   H3' 3704   0.628   1.017   6.661 -1.0518 -0.4192  1.1817
   51CHL1    C4 3705   0.781   1.023   6.862  0.3679  0.4766 -0.1333
   51CHL1   H4A 3706   0.764   0.918   6.830  0.3933  0.5200 -0.2926
   51CHL1   H4B 3707   0.871   1.054   6.805  0.3954 -0.2230 -0.4830
   51CHL1    C5 3708   0.807   1.026   7.009 -0.0187 -0.5655  0.1487
   51CHL1    C6 3709   0.933   1.042   7.057  0.1168  0.6953  0.4443
   51CHL1    H6 3710   1.019   1.050   6.989  0.5158 -0.5102  0.7811
   51CHL1    C7 3711   0.965   1.047   7.211  0.2888  0.1374  0.9029
   51CHL1   H7A 3712   1.049   0.979   7.237  0.9740  0.9385  0.8222
   51CHL1   H7B 3713   0.987   1.152   7.238 -1.0914  0.9588 -0.9237
   51CHL1    C8 3714   0.839   1.011   7.295  0.7517  0.1687  0.2697
   51CHL1    H8 3715   0.827   0.901   7.293  1.2412  0.0852  1.3907
   51CHL1   C14 3716   0.858   1.052   7.437  0.1896  0.4428  0.1563
   51CHL1   H14 3717   0.869   1.162   7.427  0.0806  0.2653 -3.2793
   51CHL1   C15 3718   0.984   1.004   7.512 -0.1281  0.3312 -0.0684
   51CHL1  H15A 3719   0.995   0.897   7.487  0.5175  0.4261 -0.1961
   51CHL1  H15B 3720   1.073   1.062   7.480 -0.9705  1.2888 -0.7580
   51CHL1   C16 3721   0.950   1.019   7.656  0.1645 -0.2577 -0.5556
   51CHL1  H16A 3722   0.990   0.940   7.724  0.2875  0.7726  0.6112
   51CHL1  H16B 3723   0.992   1.116   7.691  1.1641  0.1009 -2.6113
   51CHL1   C17 3724   0.800   1.048   7.667  0.0875  0.0490 -0.6799
   51CHL1   H17 3725   0.794   1.159   7.673 -0.1687 -0.0125  0.6993
   51CHL1   C13 3726   0.745   1.010   7.527  0.8578 -0.9959 -0.0325
   51CHL1   C18 3727   0.722   0.862   7.529 -0.3960  0.2657  0.3110
   51CHL1  H18A 3728   0.722   0.818   7.427  0.9442  2.4440 -0.6871
   51CHL1  H18B 3729   0.804   0.810   7.583  0.2570  1.8571  0.8975
   51CHL1  H18C 3730   0.636   0.823   7.589  0.1213 -0.6993  0.4517
   51CHL1   C12 3731   0.624   1.092   7.478 -0.4590  1.1573 -0.0808
   51CHL1  H12A 3732   0.530   1.079   7.537 -1.8573 -2.8511 -2.7485
   51CHL1  H12B 3733   0.647   1.200   7.480  2.2711  0.6293  0.0699
   51CHL1   C11 3734   0.590   1.065   7.332 -0.2217  0.2880  0.1815
   51CHL1  H11A 3735   0.536   0.969   7.317 -0.8279  0.8541 -1.4257
   51CHL1  H11B 3736   0.508   1.129   7.293 -0.7958 -1.2035 -1.1620
   51CHL1    C9 3737   0.710   1.070   7.236  0.1613  1.2587 -0.1325
   51CHL1    H9 3738   0.719   1.179   7.217  1.3799  1.5078  1.5647
   51CHL1   C10 3739   0.676   1.021   7.094  0.4306  0.4975 -0.6831
   51CHL1   C19 3740   0.645   0.874   7.097 -0.7448  0.7566 -0.5052
   51CHL1  H19A 3741   0.613   0.839   6.996 -1.2087  1.4981 -0.6247
   51CHL1  H19B 3742   0.720   0.799   7.130 -1.0398  0.1669 -1.1257
   51CHL1  H19C 3743   0.550   0.860   7.153 -1.5841  2.5329 -1.4124
   51CHL1    C1 3744   0.555   1.096   7.039 -0.1386 -0.3766 -0.0131
   51CHL1   H1A 3745   0.457   1.070   7.085  0.3268  0.5947  1.6162
   51CHL1   H1B 3746   0.574   1.202   7.069  2.3752 -0.9790  0.7520
   51CHL1    C2 3747   0.545   1.090   6.889  0.3716 -0.1191 -0.4020
   51CHL1   H2A 3748   0.479   1.175   6.862  0.0100 -0.6883 -1.3603
   51CHL1   H2B 3749   0.497   0.994   6.862 -2.1081  1.3891 -1.6867
   51CHL1   C20 3750   0.737   0.987   7.794 -0.1091  0.0061  0.5014
   51CHL1   H20 3751   0.732   0.876   7.792 -0.8990  0.0047  1.4459
   51CHL1   C21 3752   0.591   1.032   7.794  0.6912 -0.3376 -0.2257
   51CHL1  H21A 3753   0.526   0.977   7.723 -0.1020 -0.9072  0.8968
   51CHL1  H21B 3754   0.588   1.143   7.784 -1.6404 -0.3222 -0.0130
   51CHL1  H21C 3755   0.550   1.002   7.893  2.8793 -2.7796  0.0557
   51CHL1   C22 3756   0.814   1.040   7.932  0.2390  0.2373  0.5178
   51CHL1  H22A 3757   0.917   1.002   7.918  0.8695  1.6370  1.0864
   51CHL1  H22B 3758   0.812   1.151   7.941 -0.2031  0.1925  0.9919
   51CHL1   C23 3759   0.751   0.983   8.057 -0.2565  0.1129 -0.2064
   51CHL1  H23A 3760   0.645   1.013   8.066 -0.3009  0.1006 -0.6871
   51CHL1  H23B 3761   0.759   0.872   8.060 -1.2872 -0.0276 -1.7386
   51CHL1   C24 3762   0.815   1.025   8.190 -0.1622  0.5268 -0.2143
   51CHL1  H24A 3763   0.911   0.979   8.221 -0.6698 -0.7014 -0.3780
   51CHL1  H24B 3764   0.835   1.134   8.188 -1.4533  0.8433  1.6679
   51CHL1   C25 3765   0.717   0.994   8.311 -0.7018  0.6572  0.2599
   51CHL1   H25 3766   0.630   1.061   8.300 -1.7936 -0.6004  1.0388
   51CHL1   C26 3767   0.669   0.847   8.307 -0.0114 -0.5957 -0.0463
   51CHL1  H26A 3768   0.756   0.778   8.312  0.4611  0.0655  2.5874
   51CHL1  H26B 3769   0.600   0.832   8.394 -0.3407  1.3648  0.0615
   51CHL1  H26C 3770   0.611   0.829   8.214  0.1701 -0.7315 -0.1347
   51CHL1   C27 3771   0.780   1.036   8.442  0.4584  0.0056 -0.2955
   51CHL1  H27A 3772   0.836   1.131   8.427 -0.2852  0.9485  2.2854
   51CHL1  H27B 3773   0.700   1.052   8.518  1.8518 -0.3200  1.3084
   51CHL1  H27C 3774   0.854   0.964   8.482  1.0638  1.3641  1.1338
   52CHL1    C3 3775   6.218   3.213   6.758  0.0749  0.4138 -0.0978
   52CHL1    H3 3776   6.222   3.114   6.808  0.8933 -0.0202 -1.0067
   52CHL1    O3 3777   6.226   3.185   6.615 -0.0387 -0.4149  0.1625
   52CHL1   H3' 3778   6.212   3.270   6.572  0.1492 -0.6677 -0.4202
   52CHL1    C4 3779   6.087   3.293   6.797 -0.4418  0.0604 -0.1723
   52CHL1   H4A 3780   6.088   3.388   6.739 -1.3708  0.0079 -0.2989
   52CHL1   H4B 3781   6.012   3.219   6.762  1.2926 -1.5122 -0.7077
   52CHL1    C5 3782   6.076   3.309   6.948 -0.5952 -0.3577 -0.6625
   52CHL1    C6 3783   5.966   3.264   7.020  0.5627  0.1241  1.2548
   52CHL1    H6 3784   5.887   3.226   6.954 -0.3450  0.0547  2.3582
   52CHL1    C7 3785   5.951   3.263   7.165  0.2113  0.7537 -0.3055
   52CHL1   H7A 3786   5.851   3.294   7.203  0.3504 -0.6869  1.3689
   52CHL1   H7B 3787   5.962   3.158   7.197 -0.0956  1.0391  0.7872
   52CHL1    C8 3788   6.059   3.360   7.231 -0.2661  0.5143  0.4804
   52CHL1    H8 3789   6.027   3.462   7.202  0.0447  0.1040 -1.4659
   52CHL1   C14 3790   6.070   3.339   7.383  0.1380  0.1358  0.9176
   52CHL1   H14 3791   6.095   3.232   7.398  1.0661  0.2386  0.2086
   52CHL1   C15 3792   5.938   3.358   7.457  0.1749  0.6389  0.2127
   52CHL1  H15A 3793   5.895   3.455   7.423  1.1474  1.2945  0.8137
   52CHL1  H15B 3794   5.869   3.276   7.427 -1.3302  1.4804  1.2153
   52CHL1   C16 3795   5.987   3.355   7.607  0.5006  0.9936 -0.1394
   52CHL1  H16A 3796   5.933   3.429   7.670  1.1780  1.2311  0.1775
   52CHL1  H16B 3797   5.957   3.255   7.644  1.4264  0.6303 -0.3422
   52CHL1   C17 3798   6.141   3.373   7.608 -0.2918 -0.0151  1.2923
   52CHL1   H17 3799   6.185   3.273   7.625  2.8218  1.2787  1.3701
   52CHL1   C13 3800   6.171   3.419   7.458  0.0505 -0.1888  0.0072
   52CHL1   C18 3801   6.134   3.575   7.455 -0.1014 -0.2737  0.1688
   52CHL1  H18A 3802   6.215   3.627   7.510  0.0766 -0.6955  0.3128
   52CHL1  H18B 3803   6.137   3.607   7.349 -2.1264 -0.2797  0.0764
   52CHL1  H18C 3804   6.032   3.588   7.497 -0.7471 -0.4695 -1.2707
   52CHL1   C12 3805   6.309   3.392   7.396 -0.3478  1.1193  0.0997
   52CHL1  H12A 3806   6.381   3.463   7.442  0.9054 -1.1632  1.8908
   52CHL1  H12B 3807   6.330   3.286   7.422 -2.1437  0.9100  0.8493
   52CHL1   C11 3808   6.312   3.405   7.241  0.1264 -1.1011 -0.3522
   52CHL1  H11A 3809   6.314   3.513   7.215 -1.5383 -0.9579  0.0243
   52CHL1  H11B 3810   6.404   3.354   7.204 -0.8672 -3.1135 -0.2035
   52CHL1    C9 3811   6.194   3.334   7.164 -0.0084  0.9155  0.6858
   52CHL1    H9 3812   6.211   3.225   7.174  0.4283  0.6864 -1.8245
   52CHL1   C10 3813   6.202   3.361   7.012 -0.2263 -0.3915  1.0123
   52CHL1   C19 3814   6.200   3.514   6.985  0.1112 -0.4214  0.5695
   52CHL1  H19A 3815   6.278   3.579   7.030  0.3985  0.0016 -0.5183
   52CHL1  H19B 3816   6.198   3.543   6.878 -0.7228 -0.5873  0.5366
   52CHL1  H19C 3817   6.109   3.567   7.020  0.6837  1.5094 -0.7055
   52CHL1    C1 3818   6.335   3.301   6.953  0.0508 -0.1795 -0.2666
   52CHL1   H1A 3819   6.427   3.361   6.971  1.6374 -1.6166 -2.9207
   52CHL1   H1B 3820   6.361   3.203   7.000  1.1268  0.7764  1.2127
   52CHL1    C2 3821   6.338   3.300   6.802  0.3776 -0.4828  0.1044
   52CHL1   H2A 3822   6.436   3.260   6.770  0.3325  0.3664 -1.1801
   52CHL1   H2B 3823   6.316   3.399   6.755 -0.8137 -0.4763  0.6277
   52CHL1   C20 3824   6.199   3.469   7.723  0.1041  0.3338 -0.1905
   52CHL1   H20 3825   6.144   3.565   7.725 -0.9203 -0.2406  0.8479
   52CHL1   C21 3826   6.356   3.484   7.724 -0.8829  0.6071  0.7224
   52CHL1  H21A 3827   6.389   3.532   7.819  0.9429  1.6976 -0.4059
   52CHL1  H21B 3828   6.388   3.536   7.631 -0.9171 -2.4457 -1.1636
   52CHL1  H21C 3829   6.403   3.383   7.717  2.6370  2.2043 -3.9546
   52CHL1   C22 3830   6.163   3.397   7.854 -0.4467 -0.4821  0.5361
   52CHL1  H22A 3831   6.053   3.385   7.846 -0.2707 -2.0480  0.0919
   52CHL1  H22B 3832   6.207   3.294   7.855 -1.9704 -1.1614  0.9694
   52CHL1   C23 3833   6.180   3.476   7.990 -0.6342 -0.4438  0.0032
   52CHL1  H23A 3834   6.288   3.478   8.015 -0.4708  0.2453 -0.7294
   52CHL1  H23B 3835   6.149   3.581   7.973 -1.7967 -1.0286 -1.7690
   52CHL1   C24 3836   6.087   3.416   8.092  0.2685 -0.2643 -0.6646
   52CHL1  H24A 3837   5.984   3.406   8.051  0.1061  0.4237 -0.4356
   52CHL1  H24B 3838   6.106   3.310   8.120  2.1345  0.0594 -0.5722
   52CHL1   C25 3839   6.067   3.465   8.240 -0.4867 -0.0787  0.1743
   52CHL1   H25 3840   6.006   3.558   8.228  0.1149  0.0842 -2.0684
   52CHL1   C26 3841   5.969   3.375   8.323 -0.5748  0.4013  0.0483
   52CHL1  H26A 3842   5.930   3.436   8.408  0.5872  2.4003 -0.7765
   52CHL1  H26B 3843   5.893   3.336   8.252  1.2124 -2.7184 -0.3272
   52CHL1  H26C 3844   6.028   3.288   8.358 -3.7394 -1.5251  0.9456
   52CHL1   C27 3845   6.195   3.496   8.322  1.0276  0.0111 -0.5728
   52CHL1  H27A 3846   6.248   3.398   8.332 -1.3474 -1.4773 -1.6154
   52CHL1  H27B 3847   6.254   3.552   8.246  1.2312 -2.4367 -2.3780
   52CHL1  H27C 3848   6.175   3.547   8.418 -1.2584  1.4466 -1.7258
   53CHL1    C3 3849   0.489   0.280   6.818 -1.1240 -0.3127  0.0338
   53CHL1    H3 3850   0.515   0.173   6.833  0.8233  0.1340  0.0503
   53CHL1    O3 3851   0.468   0.320   6.684 -0.0553 -0.3990  0.5541
   53CHL1   H3' 3852   0.553   0.337   6.641  0.2032 -0.8447  0.8802
   53CHL1    C4 3853   0.385   0.335   6.909  0.1637 -0.4445 -0.8644
   53CHL1   H4A 3854   0.381   0.446   6.906  1.3732 -0.1424  2.9773
   53CHL1   H4B 3855   0.294   0.296   6.858  0.6890 -1.2675 -1.1855
   53CHL1    C5 3856   0.400   0.281   7.050 -0.0523 -0.1443  0.0947
   53CHL1    C6 3857   0.305   0.206   7.112  0.6109  0.2197  0.9997
   53CHL1    H6 3858   0.208   0.185   7.063  1.2182 -0.4582  0.0710
   53CHL1    C7 3859   0.321   0.173   7.260 -0.1602  0.6355 -0.7368
   53CHL1   H7A 3860   0.226   0.189   7.316 -0.7265 -1.9134 -0.8780
   53CHL1   H7B 3861   0.341   0.065   7.272  3.8415  1.4349  1.3197
   53CHL1    C8 3862   0.437   0.248   7.333 -0.3134 -0.7863 -0.5652
   53CHL1    H8 3863   0.412   0.353   7.357 -0.2123 -0.5321 -1.5093
   53CHL1   C14 3864   0.475   0.181   7.462 -0.6563  0.8384  0.5463
   53CHL1   H14 3865   0.518   0.088   7.421 -1.2351  0.3607  0.9878
   53CHL1   C15 3866   0.368   0.139   7.552  0.2557 -0.1437 -0.6945
   53CHL1  H15A 3867   0.309   0.227   7.585  1.5362  0.1485  0.9772
   53CHL1  H15B 3868   0.306   0.056   7.511  0.1343 -0.2082 -0.3819
   53CHL1   C16 3869   0.441   0.093   7.683  0.7591  0.2378  0.0093
   53CHL1  H16A 3870   0.403   0.130   7.780 -0.7433 -2.4327  0.5126
   53CHL1  H16B 3871   0.428  -0.017   7.690  0.7961  0.2752  0.6971
   53CHL1   C17 3872   0.593   0.123   7.661 -0.0874 -0.3930 -0.4915
   53CHL1   H17 3873   0.645   0.036   7.615  0.7306 -0.2595  0.1540
   53CHL1   C13 3874   0.589   0.231   7.545  0.0358  0.1158  0.3359
   53CHL1   C18 3875   0.554   0.372   7.609  0.0897  0.2155 -0.0895
   53CHL1  H18A 3876   0.643   0.438   7.618 -0.8668  1.4598  0.5779
   53CHL1  H18B 3877   0.486   0.431   7.544 -0.2130  0.3923  0.3919
   53CHL1  H18C 3878   0.509   0.355   7.709  1.8702 -2.8160  0.3337
   53CHL1   C12 3879   0.709   0.246   7.450 -0.7453  0.3386 -0.1486
   53CHL1  H12A 3880   0.788   0.305   7.502 -2.4999  3.5064 -0.8312
   53CHL1  H12B 3881   0.749   0.144   7.430 -0.0201  0.1494  1.9496
   53CHL1   C11 3882   0.682   0.306   7.316  1.0734  0.1216 -0.4454
   53CHL1  H11A 3883   0.668   0.412   7.346  1.7874 -0.5472  2.6765
   53CHL1  H11B 3884   0.776   0.290   7.260  0.9904  0.3565 -0.6554
   53CHL1    C9 3885   0.564   0.253   7.241 -0.2058  0.9210  0.0518
   53CHL1    H9 3886   0.584   0.148   7.213 -1.6078  0.4995  0.5485
   53CHL1   C10 3887   0.537   0.330   7.102  0.2052  0.3209  0.3069
   53CHL1   C19 3888   0.536   0.485   7.121  0.5174  0.0499  0.2304
   53CHL1  H19A 3889   0.471   0.521   7.204 -0.8222 -1.9699  0.1249
   53CHL1  H19B 3890   0.641   0.517   7.138  1.4837 -1.8502 -1.6264
   53CHL1  H19C 3891   0.503   0.548   7.036 -0.4605  0.7580  1.1060
   53CHL1    C1 3892   0.657   0.297   6.997  0.1448 -0.3783 -0.5989
   53CHL1   H1A 3893   0.744   0.359   7.028  0.2975 -0.4687 -0.8439
   53CHL1   H1B 3894   0.668   0.186   7.003 -3.1737 -0.8236 -0.6840
   53CHL1    C2 3895   0.626   0.337   6.859 -0.3663 -0.0447  0.0239
   53CHL1   H2A 3896   0.693   0.301   6.779  0.1571  0.6122  0.1633
   53CHL1   H2B 3897   0.619   0.447   6.847  0.7385 -0.0136 -0.3755
   53CHL1   C20 3898   0.675   0.158   7.789  0.2715 -0.1030  0.0230
   53CHL1   H20 3899   0.635   0.248   7.840 -0.6077 -1.4289  1.7789
   53CHL1   C21 3900   0.822   0.194   7.751  0.4145 -0.1006  0.8069
   53CHL1  H21A 3901   0.811   0.297   7.709  1.4268 -0.2420  0.1517
   53CHL1  H21B 3902   0.863   0.135   7.666  0.0117 -0.1054  0.6157
   53CHL1  H21C 3903   0.884   0.185   7.842  0.3150 -0.3421  0.8499
   53CHL1   C22 3904   0.669   0.034   7.889 -0.1762  0.5482 -0.4447
   53CHL1  H22A 3905   0.562   0.004   7.897  0.6835 -3.0628 -0.8436
   53CHL1  H22B 3906   0.722  -0.053   7.845  0.4370  2.0426 -2.8178
   53CHL1   C23 3907   0.739   0.060   8.026 -0.4368 -0.7460 -0.0679
   53CHL1  H23A 3908   0.848   0.059   8.002 -0.6424  1.3581 -1.4220
   53CHL1  H23B 3909   0.727   0.166   8.056 -0.6532 -0.8187  0.1010
   53CHL1   C24 3910   0.701  -0.039   8.136 -0.5554  0.0353 -0.8059
   53CHL1  H24A 3911   0.599  -0.023   8.177  0.2631  1.0115  0.9772
   53CHL1  H24B 3912   0.715  -0.135   8.082  1.2206 -1.4938  2.1080
   53CHL1   C25 3913   0.806  -0.037   8.252 -0.2034  0.3948 -0.2813
   53CHL1   H25 3914   0.910  -0.028   8.213  0.5552  1.1016  1.7479
   53CHL1   C26 3915   0.780   0.089   8.344 -0.2462  0.0104  0.3054
   53CHL1  H26A 3916   0.679   0.107   8.387 -0.2042 -0.7317  0.7295
   53CHL1  H26B 3917   0.846   0.080   8.434 -1.1613  0.4358  1.0337
   53CHL1  H26C 3918   0.827   0.171   8.285  1.2293 -1.5674 -0.7872
   53CHL1   C27 3919   0.797  -0.173   8.331  0.5783  0.1059 -0.0800
   53CHL1  H27A 3920   0.694  -0.201   8.361  0.6453  1.5689  1.6391
   53CHL1  H27B 3921   0.837  -0.263   8.278  0.1767  0.2619 -0.6581
   53CHL1  H27C 3922   0.861  -0.159   8.421  2.6283  0.2807 -1.4971
   54CHL1    C3 3923   0.546   1.746   6.834 -0.6569  0.3690 -0.1280
   54CHL1    H3 3924   0.501   1.848   6.834  0.4995  0.8948  0.0528
   54CHL1    O3 3925   0.589   1.722   6.705  0.1690 -0.2681 -0.4997
   54CHL1   H3' 3926   0.588   1.626   6.700  0.4505 -0.3190  0.2362
   54CHL1    C4 3927   0.662   1.725   6.933  0.3501 -0.4094 -0.2350
   54CHL1   H4A 3928   0.729   1.642   6.901  2.9787  1.2543  0.6797
   54CHL1   H4B 3929   0.721   1.817   6.914 -1.4311  0.9442  0.4922
   54CHL1    C5 3930   0.624   1.717   7.079 -0.1244 -0.0223  0.8437
   54CHL1    C6 3931   0.679   1.804   7.164 -0.1213  0.4726  0.9720
   54CHL1    H6 3932   0.750   1.881   7.129  0.6547  0.0576  1.5904
   54CHL1    C7 3933   0.642   1.803   7.306 -0.5274 -0.2653  0.1682
   54CHL1   H7A 3934   0.722   1.827   7.378 -0.6052 -1.1788  0.5822
   54CHL1   H7B 3935   0.568   1.884   7.321 -0.3929  0.0626 -0.8635
   54CHL1    C8 3936   0.572   1.673   7.359 -0.0355 -0.1421 -0.0612
   54CHL1    H8 3937   0.650   1.594   7.364  0.7513  0.5133 -1.5321
   54CHL1   C14 3938   0.506   1.686   7.499 -0.9042  0.5007  0.9993
   54CHL1   H14 3939   0.423   1.757   7.479  1.3579  2.4672 -2.2992
   54CHL1   C15 3940   0.597   1.746   7.605 -0.0284  0.2337  0.4024
   54CHL1  H15A 3941   0.699   1.703   7.603  0.0558  0.4554 -1.2430
   54CHL1  H15B 3942   0.608   1.857   7.597 -1.6195  0.4605  1.0590
   54CHL1   C16 3943   0.518   1.711   7.727  0.0394 -0.0582 -0.2125
   54CHL1  H16A 3944   0.593   1.660   7.791 -0.2191 -0.6273 -0.3521
   54CHL1  H16B 3945   0.490   1.795   7.793 -0.3435  0.2487 -0.7524
   54CHL1   C17 3946   0.407   1.614   7.696 -0.1500 -0.4951  0.6002
   54CHL1   H17 3947   0.311   1.667   7.679  0.7487  0.9245 -0.2903
   54CHL1   C13 3948   0.442   1.561   7.554  0.3304  0.5538 -0.1174
   54CHL1   C18 3949   0.542   1.442   7.562 -0.0121 -0.1940  0.0673
   54CHL1  H18A 3950   0.491   1.350   7.596  0.9734 -0.9635 -0.5120
   54CHL1  H18B 3951   0.593   1.426   7.465  0.2264 -0.6137  0.2610
   54CHL1  H18C 3952   0.612   1.472   7.644  2.1730 -0.1745 -1.7199
   54CHL1   C12 3953   0.327   1.528   7.457 -0.1053  0.7549 -0.2211
   54CHL1  H12A 3954   0.281   1.430   7.481  1.6181  0.3491  1.6775
   54CHL1  H12B 3955   0.252   1.609   7.466  1.1003  2.0754 -1.4316
   54CHL1   C11 3956   0.369   1.514   7.311  0.1432 -0.3084 -0.2420
   54CHL1  H11A 3957   0.438   1.427   7.307  2.9854  1.8304 -2.2244
   54CHL1  H11B 3958   0.286   1.483   7.245 -0.0568 -1.7135  0.6193
   54CHL1    C9 3959   0.461   1.632   7.259  0.5283 -0.6980  0.1286
   54CHL1    H9 3960   0.396   1.721   7.244  1.2494  0.2877  2.3759
   54CHL1   C10 3961   0.512   1.616   7.110 -1.1643 -0.6644  0.2069
   54CHL1   C19 3962   0.560   1.470   7.092  0.3843 -0.0783 -0.0898
   54CHL1  H19A 3963   0.616   1.457   6.997 -0.3633  0.5719 -0.6307
   54CHL1  H19B 3964   0.629   1.450   7.177  0.5748  0.7198 -0.0488
   54CHL1  H19C 3965   0.475   1.399   7.098 -0.5199  0.9934  0.1265
   54CHL1    C1 3966   0.395   1.645   7.011 -0.1414  0.6404 -0.4753
   54CHL1   H1A 3967   0.311   1.574   7.028  0.7187  0.1293  2.0638
   54CHL1   H1B 3968   0.358   1.747   7.035  1.6247  0.8881  1.4670
   54CHL1    C2 3969   0.432   1.644   6.867  0.8295 -0.4253  0.3942
   54CHL1   H2A 3970   0.341   1.664   6.806  0.6800  0.7055  0.9664
   54CHL1   H2B 3971   0.472   1.544   6.837  0.5330 -0.0981 -1.1844
   54CHL1   C20 3972   0.385   1.508   7.811 -0.3152  0.1726  0.4884
   54CHL1   H20 3973   0.463   1.429   7.809 -0.4257  0.0679 -0.7786
   54CHL1   C21 3974   0.252   1.434   7.769 -0.0331  0.7014 -0.4568
   54CHL1  H21A 3975   0.230   1.356   7.845  2.3563  2.7809  2.5963
   54CHL1  H21B 3976   0.253   1.384   7.669 -1.7987  0.6339 -0.4864
   54CHL1  H21C 3977   0.170   1.509   7.775  0.6322  1.4545 -0.6408
   54CHL1   C22 3978   0.379   1.561   7.959  0.2129 -0.5769 -0.1168
   54CHL1  H22A 3979   0.366   1.474   8.026  1.0582 -0.9171 -0.3782
   54CHL1  H22B 3980   0.476   1.611   7.981  0.5889 -1.8302  1.1933
   54CHL1   C23 3981   0.265   1.657   7.981  0.6789 -0.1651 -0.8259
   54CHL1  H23A 3982   0.274   1.745   7.912 -3.4088  1.0777 -0.0438
   54CHL1  H23B 3983   0.164   1.616   7.959  0.4055 -0.3133  0.5972
   54CHL1   C24 3984   0.268   1.703   8.125  0.5241  0.6201 -0.0500
   54CHL1  H24A 3985   0.229   1.624   8.193 -0.9919  3.6109  2.8270
   54CHL1  H24B 3986   0.372   1.720   8.160 -0.2248  2.5092  1.3885
   54CHL1   C25 3987   0.185   1.824   8.165 -0.0361 -0.6513  0.2684
   54CHL1   H25 3988   0.078   1.795   8.158  0.8452 -4.1177 -1.4356
   54CHL1   C26 3989   0.216   1.878   8.310 -0.0293 -0.3009  0.1408
   54CHL1  H26A 3990   0.267   1.800   8.371  2.3435 -2.2530 -3.9457
   54CHL1  H26B 3991   0.298   1.952   8.304  1.1295 -1.2842  2.4426
   54CHL1  H26C 3992   0.128   1.916   8.367  1.1899  3.8745 -0.4211
   54CHL1   C27 3993   0.198   1.944   8.075 -0.0261  0.5406  0.3141
   54CHL1  H27A 3994   0.174   1.911   7.971  0.6582  1.9025 -0.2991
   54CHL1  H27B 3995   0.128   2.025   8.104 -1.1520 -0.4389  0.4240
   54CHL1  H27C 3996   0.299   1.989   8.074  0.1675  0.1221  0.7318
   55CHL1    C3 3997   5.368   4.432   6.848  0.3387  0.1160 -0.2326
   55CHL1    H3 3998   5.468   4.469   6.880 -0.2503  0.1480  1.7194
   55CHL1    O3 3999   5.350   4.465   6.714  0.3521 -0.1311 -0.2659
   55CHL1   H3' 4000   5.402   4.398   6.670 -0.9006 -1.1930 -0.1762
   55CHL1    C4 4001   5.358   4.281   6.864 -0.1186 -0.1521 -0.6272
   55CHL1   H4A 4002   5.259   4.245   6.828  0.0855 -1.1857 -0.1896
   55CHL1   H4B 4003   5.444   4.244   6.803  1.2746  0.6027  0.8164
   55CHL1    C5 4004   5.376   4.238   7.013  0.2979  0.0986  0.4583
   55CHL1    C6 4005   5.478   4.162   7.056  0.6081  0.3583  0.3081
   55CHL1    H6 4006   5.540   4.113   6.980  1.5760  0.9328  0.7060
   55CHL1    C7 4007   5.494   4.136   7.209  0.6177 -0.2948 -0.1007
   55CHL1   H7A 4008   5.523   4.030   7.224  0.3549 -0.2288  0.9018
   55CHL1   H7B 4009   5.589   4.189   7.232  0.1281  2.1021 -2.9114
   55CHL1    C8 4010   5.372   4.171   7.299  0.6956  0.1222  0.4241
   55CHL1    H8 4011   5.293   4.093   7.291  0.6842  0.1347  0.4183
   55CHL1   C14 4012   5.417   4.175   7.448  0.4808  0.5233  0.1228
   55CHL1   H14 4013   5.485   4.262   7.456  1.0481  0.0511  0.5695
   55CHL1   C15 4014   5.506   4.059   7.496  0.0731 -0.4250  0.3939
   55CHL1  H15A 4015   5.481   3.962   7.449  0.4260 -2.1127  3.4299
   55CHL1  H15B 4016   5.607   4.085   7.459 -0.1442 -1.0309 -0.6563
   55CHL1   C16 4017   5.486   4.059   7.646 -0.2859 -0.2015 -0.7523
   55CHL1  H16A 4018   5.441   3.960   7.671  0.3460  0.0488  1.5732
   55CHL1  H16B 4019   5.576   4.077   7.708 -0.5815  1.1209 -0.6837
   55CHL1   C17 4020   5.385   4.182   7.675 -0.1960  0.2963  0.0710
   55CHL1   H17 4021   5.453   4.267   7.691  0.2669 -0.4733  2.5557
   55CHL1   C13 4022   5.308   4.200   7.545 -0.7284  0.1028 -0.1791
   55CHL1   C18 4023   5.199   4.103   7.533  0.9044  0.0740 -0.0723
   55CHL1  H18A 4024   5.166   4.076   7.431  2.3107 -0.0836 -0.5097
   55CHL1  H18B 4025   5.214   4.010   7.592  2.3781  2.0222  2.8489
   55CHL1  H18C 4026   5.108   4.154   7.571  0.7572  0.0323 -0.3649
   55CHL1   C12 4027   5.263   4.345   7.509 -0.1590  0.1034 -0.2867
   55CHL1  H12A 4028   5.175   4.383   7.564  0.0234  0.9002 -0.5284
   55CHL1  H12B 4029   5.347   4.418   7.517  0.4729 -0.5883 -0.4542
   55CHL1   C11 4030   5.213   4.365   7.364  0.0496  0.0698  0.5002
   55CHL1  H11A 4031   5.122   4.302   7.358 -0.5284  0.9251  0.2433
   55CHL1  H11B 4032   5.186   4.471   7.346 -2.4093 -0.6081 -0.1272
   55CHL1    C9 4033   5.319   4.306   7.259  0.8166  0.3559  0.2145
   55CHL1    H9 4034   5.408   4.369   7.281  2.1483 -1.0743 -0.8421
   55CHL1   C10 4035   5.283   4.312   7.110  0.1597  0.0164 -0.1687
   55CHL1   C19 4036   5.141   4.251   7.095 -0.1509 -0.0333  0.4560
   55CHL1  H19A 4037   5.096   4.258   6.994  1.8088  1.4406 -0.3856
   55CHL1  H19B 4038   5.144   4.146   7.133  0.8337  0.0963  0.7692
   55CHL1  H19C 4039   5.069   4.314   7.151  0.2243  1.0821 -0.2790
   55CHL1    C1 4040   5.274   4.459   7.083  0.3016 -0.9489 -0.4371
   55CHL1   H1A 4041   5.197   4.506   7.147  0.3427  1.2678 -1.9081
   55CHL1   H1B 4042   5.358   4.523   7.118 -3.1606  2.6542  2.1961
   55CHL1    C2 4043   5.262   4.498   6.937  0.7491 -0.6458  0.1641
   55CHL1   H2A 4044   5.263   4.606   6.913 -0.4437 -1.2274 -3.0824
   55CHL1   H2B 4045   5.161   4.478   6.895  0.6271 -2.4901  1.2202
   55CHL1   C20 4046   5.312   4.168   7.815 -0.3453  0.2797 -0.0033
   55CHL1   H20 4047   5.253   4.075   7.813  0.2339 -0.1052  0.4404
   55CHL1   C21 4048   5.214   4.283   7.844 -0.1398  0.3229 -0.3270
   55CHL1  H21A 4049   5.146   4.286   7.756 -0.9093 -1.2190  0.1714
   55CHL1  H21B 4050   5.254   4.387   7.847 -0.1941  0.3219  1.4899
   55CHL1  H21C 4051   5.150   4.265   7.934 -0.2511 -0.7795 -0.6127
   55CHL1   C22 4052   5.416   4.155   7.937  0.4211  0.5798 -0.5235
   55CHL1  H22A 4053   5.482   4.071   7.908  2.8467  1.9284  0.7756
   55CHL1  H22B 4054   5.468   4.253   7.940  0.6246  0.4609 -0.1200
   55CHL1   C23 4055   5.356   4.116   8.074  0.2559 -0.0110 -0.8677
   55CHL1  H23A 4056   5.434   4.152   8.144  0.0833  0.0099 -0.6855
   55CHL1  H23B 4057   5.259   4.165   8.099 -1.1718 -2.7238 -0.7459
   55CHL1   C24 4058   5.339   3.962   8.076 -0.8279  0.3717  0.3298
   55CHL1  H24A 4059   5.295   3.913   7.986  3.0275 -0.9646 -1.0471
   55CHL1  H24B 4060   5.445   3.932   8.064 -0.4712  2.2918 -1.9795
   55CHL1   C25 4061   5.280   3.905   8.210  0.1136 -0.0842  0.3774
   55CHL1   H25 4062   5.182   3.954   8.232  0.4681 -0.4624  3.1156
   55CHL1   C26 4063   5.249   3.754   8.202 -0.4646 -0.5020  0.1657
   55CHL1  H26A 4064   5.330   3.696   8.154 -1.0406 -1.1537 -0.0263
   55CHL1  H26B 4065   5.229   3.713   8.303 -0.2883 -1.1945 -0.0787
   55CHL1  H26C 4066   5.154   3.746   8.144 -0.6177 -1.3167  0.5292
   55CHL1   C27 4067   5.366   3.922   8.332 -0.3964  0.1132 -0.5439
   55CHL1  H27A 4068   5.377   4.031   8.350 -0.0444 -0.2591  1.7690
   55CHL1  H27B 4069   5.319   3.886   8.426  0.7644  1.6529  0.6853
   55CHL1  H27C 4070   5.461   3.869   8.312  0.1745  0.6141  0.7547
   56CHL1    C3 4071   3.610   1.209   6.776  0.1081  0.0969  0.1505
   56CHL1    H3 4072   3.701   1.270   6.791  1.2394 -1.3251 -0.6998
   56CHL1    O3 4073   3.563   1.204   6.641 -0.0829 -0.7399 -0.1836
   56CHL1   H3' 4074   3.624   1.144   6.597  0.5000  2.3900 -4.1597
   56CHL1    C4 4075   3.640   1.062   6.822 -0.2824 -0.6747 -0.1294
   56CHL1   H4A 4076   3.542   1.010   6.814 -0.9340  0.1781  1.7676
   56CHL1   H4B 4077   3.711   1.013   6.752  1.3875  1.1408  0.1851
   56CHL1    C5 4078   3.674   1.048   6.971  0.1667  0.3527 -0.5669
   56CHL1    C6 4079   3.790   0.991   7.018  0.0969 -0.3139  0.2771
   56CHL1    H6 4080   3.857   0.942   6.946 -0.1868 -0.4816  0.1256
   56CHL1    C7 4081   3.824   0.964   7.162 -0.3580  0.6169  0.1550
   56CHL1   H7A 4082   3.855   0.858   7.174  0.7796  0.9934  0.6660
   56CHL1   H7B 4083   3.916   1.020   7.191  0.0244  0.6191 -1.0048
   56CHL1    C8 4084   3.714   1.008   7.265 -0.5496  0.8400  0.1650
   56CHL1    H8 4085   3.643   0.925   7.283 -1.0833  1.7340  2.4464
   56CHL1   C14 4086   3.778   1.064   7.392  0.0998 -0.4582 -0.3492
   56CHL1   H14 4087   3.834   1.152   7.354 -0.2591 -1.5297 -3.7145
   56CHL1   C15 4088   3.874   0.971   7.465 -0.5230  0.0377  0.5657
   56CHL1  H15A 4089   3.827   0.872   7.486  4.5291 -2.4614  1.5344
   56CHL1  H15B 4090   3.971   0.945   7.419 -0.8222  0.9543 -0.6019
   56CHL1   C16 4091   3.889   1.043   7.604  0.1819 -0.0893  0.5882
   56CHL1  H16A 4092   3.912   0.979   7.691 -1.3716 -0.9486  0.4115
   56CHL1  H16B 4093   3.983   1.101   7.591  0.5747 -0.6849  0.7586
   56CHL1   C17 4094   3.765   1.138   7.619  0.0163 -0.0538 -0.0064
   56CHL1   H17 4095   3.804   1.241   7.610 -0.5724  0.1111 -0.7261
   56CHL1   C13 4096   3.678   1.106   7.497 -0.2997  0.4818  0.5979
   56CHL1   C18 4097   3.588   0.987   7.540 -0.3143 -0.3281 -0.6793
   56CHL1  H18A 4098   3.636   0.907   7.601 -3.7257  0.7321  3.9127
   56CHL1  H18B 4099   3.509   1.027   7.607  1.8771  2.2233  0.5281
   56CHL1  H18C 4100   3.536   0.929   7.460 -2.4412 -0.0813  0.4451
   56CHL1   C12 4101   3.595   1.225   7.443 -0.0651  0.0454 -0.2784
   56CHL1  H12A 4102   3.515   1.261   7.511  1.1227  2.8025 -0.2012
   56CHL1  H12B 4103   3.666   1.305   7.414  0.0530 -0.4548 -1.4109
   56CHL1   C11 4104   3.522   1.180   7.310 -0.1028 -0.4344 -0.0627
   56CHL1  H11A 4105   3.460   1.091   7.334  2.5380 -2.1216  0.9822
   56CHL1  H11B 4106   3.466   1.269   7.276  2.1256  1.2971  0.5708
   56CHL1    C9 4107   3.632   1.126   7.204  0.5812 -0.2041  0.1745
   56CHL1    H9 4108   3.704   1.211   7.206 -0.1651  0.4463  2.4571
   56CHL1   C10 4109   3.572   1.113   7.066 -0.1430 -0.6158 -0.3871
   56CHL1   C19 4110   3.445   1.021   7.075 -0.1770  0.5888 -0.6858
   56CHL1  H19A 4111   3.364   1.074   7.130 -0.7368 -1.1833  0.2514
   56CHL1  H19B 4112   3.399   1.002   6.975  0.3960  0.4920 -0.9373
   56CHL1  H19C 4113   3.473   0.928   7.128 -2.6487  0.4045  0.4025
   56CHL1    C1 4114   3.535   1.256   7.011 -0.3400 -0.0735 -0.1858
   56CHL1   H1A 4115   3.449   1.292   7.073  0.3946  1.8758 -0.2275
   56CHL1   H1B 4116   3.623   1.318   7.038  1.4755 -1.8285 -1.7570
   56CHL1    C2 4117   3.499   1.262   6.863  0.0518  0.3594  0.4134
   56CHL1   H2A 4118   3.461   1.362   6.831 -2.0596  0.8692  4.0367
   56CHL1   H2B 4119   3.413   1.193   6.849  1.4852 -1.3203 -0.5687
   56CHL1   C20 4120   3.705   1.138   7.761  0.7023 -0.5619  0.5573
   56CHL1   H20 4121   3.641   1.048   7.772  0.8010 -0.5629  1.1665
   56CHL1   C21 4122   3.615   1.266   7.779  1.1069  0.2269 -0.2724
   56CHL1  H21A 4123   3.529   1.260   7.709  1.8534  0.5837 -1.2382
   56CHL1  H21B 4124   3.676   1.356   7.758 -0.4604  0.7124 -3.3675
   56CHL1  H21C 4125   3.571   1.253   7.880 -1.5061 -2.3165 -1.5875
   56CHL1   C22 4126   3.809   1.126   7.882  0.7007  0.3708  0.1823
   56CHL1  H22A 4127   3.830   1.020   7.905 -0.3550  0.0442 -0.2457
   56CHL1  H22B 4128   3.902   1.173   7.843  0.8938 -1.0726 -1.2071
   56CHL1   C23 4129   3.769   1.185   8.014 -0.2993  0.7271  0.0744
   56CHL1  H23A 4130   3.763   1.296   8.005  0.5411  0.7649 -0.1048
   56CHL1  H23B 4131   3.664   1.155   8.037  0.7897 -1.5441  2.6569
   56CHL1   C24 4132   3.868   1.159   8.133 -0.4792 -0.2947  0.0194
   56CHL1  H24A 4133   3.886   1.049   8.139  0.8812 -0.0285  2.0753
   56CHL1  H24B 4134   3.965   1.207   8.105 -0.6126  0.8292  1.3545
   56CHL1   C25 4135   3.830   1.216   8.270 -1.0371  0.0665  0.3704
   56CHL1   H25 4136   3.823   1.326   8.260  2.5408  0.4515  0.7530
   56CHL1   C26 4137   3.717   1.141   8.329  0.4184  0.2114 -0.4084
   56CHL1  H26A 4138   3.733   1.032   8.315 -0.4627  0.1552 -1.0301
   56CHL1  H26B 4139   3.625   1.176   8.278 -0.4317  0.5815  1.3048
   56CHL1  H26C 4140   3.697   1.160   8.437 -1.8612  0.7785 -0.8683
   56CHL1   C27 4141   3.942   1.202   8.375  0.2572 -0.0062  0.5611
   56CHL1  H27A 4142   3.910   1.242   8.474  1.4620  0.7066  0.6788
   56CHL1  H27B 4143   3.963   1.094   8.391 -0.5415 -0.6310 -2.1654
   56CHL1  H27C 4144   4.036   1.252   8.343 -0.4895  0.2915 -1.2511
   57SAPC     N 4145   5.750   2.148  10.856 -0.0233 -0.4549 -0.6335
   57SAPC   C12 4146   5.892   2.211  10.856 -0.3381  0.4515  0.4812
   57SAPC  H12A 4147   5.954   2.160  10.784 -0.5066 -1.1676  1.4173
   57SAPC  H12B 4148   5.950   2.177  10.941 -0.2361  0.8492  0.5713
   57SAPC   C13 4149   5.671   2.203  10.966 -0.2835  0.2866 -0.0188
   57SAPC  H13A 4150   5.687   2.162  11.065  2.2126  0.7975 -0.1639
   57SAPC  H13B 4151   5.668   2.311  10.974  1.0375  0.2382  1.8205
   57SAPC  H13C 4152   5.568   2.176  10.946  0.4293 -2.1613 -0.7105
   57SAPC   C14 4153   5.689   2.176  10.721 -0.3382 -0.2418 -0.3324
   57SAPC  H14A 4154   5.758   2.167  10.638  0.6774  0.6924  0.3706
   57SAPC  H14B 4155   5.603   2.113  10.711  0.8701 -1.9185 -0.5942
   57SAPC  H14C 4156   5.670   2.282  10.714  2.2587  0.2321 -1.8226
   57SAPC   C15 4157   5.750   1.996  10.864  0.8607 -0.4539  0.1782
   57SAPC  H15A 4158   5.788   1.967  10.960 -1.3823  2.0742  1.9646
   57SAPC  H15B 4159   5.650   1.958  10.873  1.1055 -1.6898 -1.6287
   57SAPC  H15C 4160   5.803   1.953  10.780  0.2518  0.2668 -0.5974
   57SAPC   C11 4161   5.916   2.359  10.827  0.4253 -0.5716 -0.2433
   57SAPC  H11A 4162   6.018   2.391  10.859  0.4127 -0.9441  0.1813
   57SAPC  H11B 4163   5.842   2.417  10.887 -1.9935 -2.8287 -0.8841
   57SAPC     P 4164   5.988   2.314  10.580 -0.0262 -0.0542  0.2798
   57SAPC   O13 4165   6.114   2.287  10.648  0.0081 -0.4286  0.5605
   57SAPC   O14 4166   5.920   2.200  10.523 -0.3001 -0.1597  0.3753
   57SAPC   O12 4167   5.887   2.380  10.689  0.7399 -0.3503 -0.5791
   57SAPC   O11 4168   6.004   2.435  10.466 -0.3503 -0.2331 -0.1128
   57SAPC    C1 4169   5.883   2.493  10.411  0.0884  0.4649 -0.4756
   57SAPC    HA 4170   5.789   2.437  10.434 -0.7423  1.4517 -1.3880
   57SAPC    HB 4171   5.868   2.594  10.454 -0.2043 -0.1237  0.8777
   57SAPC    C2 4172   5.897   2.509  10.257 -0.5374 -0.7032 -0.1124
   57SAPC    HS 4173   5.807   2.561  10.220 -1.9016 -1.8766  1.3818
   57SAPC   O21 4174   5.916   2.380  10.193  0.0924  0.0880 -0.3649
   57SAPC   C21 4175   5.802   2.314  10.187  0.1852 -0.2276  0.5663
   57SAPC   O22 4176   5.690   2.356  10.228  0.0016 -0.3428 -0.1607
   57SAPC   C22 4177   5.824   2.167  10.141 -0.2860  0.7939 -0.2625
   57SAPC   H2R 4178   5.923   2.159  10.092 -0.4611  0.8158 -0.6208
   57SAPC   H2S 4179   5.834   2.114  10.238  0.1176 -0.0918 -0.7726
   57SAPC    C3 4180   6.024   2.590  10.227 -0.2152  0.0796  0.3791
   57SAPC    HX 4181   6.121   2.537  10.234  1.8001  3.3177 -0.7050
   57SAPC    HY 4182   6.045   2.667  10.304 -1.5212 -0.3234  1.1627
   57SAPC   O31 4183   6.016   2.656  10.096  0.0261  0.0160  0.5203
   57SAPC   C31 4184   5.963   2.776  10.094  0.6323  0.7926  0.2145
   57SAPC   O32 4185   5.917   2.836  10.192 -0.1824  0.5610  0.4935
   57SAPC   C32 4186   5.970   2.830   9.952 -0.5761 -0.2165 -0.3538
   57SAPC   H2X 4187   5.904   2.765   9.891 -0.0371 -2.6669  1.5164
   57SAPC   H2Y 4188   6.075   2.809   9.925  0.7226  2.0134  2.4337
   57SAPC   C23 4189   5.711   2.097  10.070 -0.2775  0.1512 -0.3358
   57SAPC   H3R 4190   5.618   2.096  10.130  0.9340  1.3645  1.6749
   57SAPC   H3S 4191   5.741   1.990  10.063 -0.0643  0.2398 -0.7891
   57SAPC   C24 4192   5.677   2.161   9.935 -0.2103  0.2182 -0.3249
   57SAPC   H4R 4193   5.658   2.268   9.959 -0.3696  0.9867 -3.4251
   57SAPC   H4S 4194   5.581   2.125   9.893 -0.7251 -0.8910  1.6836
   57SAPC   C25 4195   5.781   2.141   9.824 -0.3744 -0.3103 -0.3244
   57SAPC   H5R 4196   5.869   2.207   9.823 -2.2696  2.3437 -1.9042
   57SAPC   C26 4197   5.786   2.042   9.734 -0.6040  0.9776  0.0563
   57SAPC   H6R 4198   5.859   2.044   9.651 -1.5135  0.7962 -0.7692
   57SAPC   C27 4199   5.682   1.938   9.706  1.0208  0.9624  0.3008
   57SAPC   H7R 4200   5.668   1.874   9.796 -0.3576 -0.9469 -1.1948
   57SAPC   H7S 4201   5.725   1.864   9.635  0.0093  2.2249 -1.7177
   57SAPC   C28 4202   5.552   1.975   9.651  0.1553 -0.5893  0.3147
   57SAPC   H8R 4203   5.477   1.979   9.731  0.4705 -0.5541  0.6145
   57SAPC   C29 4204   5.508   2.010   9.527 -0.7447  0.0492 -1.0741
   57SAPC   H9R 4205   5.402   2.030   9.505 -1.2092 -0.8438  0.1725
   57SAPC  C210 4206   5.608   2.016   9.414 -0.0930  0.1181  0.0499
   57SAPC  H10R 4207   5.555   2.003   9.318 -0.2462  1.4780 -0.0650
   57SAPC  H10S 4208   5.686   1.937   9.417  0.8754  1.0612  1.8086
   57SAPC  C211 4209   5.674   2.157   9.412  0.1453  0.1935  1.5812
   57SAPC  H11R 4210   5.697   2.203   9.510 -1.2820 -1.8474  2.9628
   57SAPC  C212 4211   5.708   2.223   9.300 -0.0962 -0.0249  0.1392
   57SAPC  H12R 4212   5.736   2.329   9.311  1.1240 -0.2165 -0.9446
   57SAPC  C213 4213   5.691   2.171   9.152 -0.2537 -0.4091 -0.0462
   57SAPC  H13R 4214   5.636   2.239   9.084 -1.7538 -1.3504  0.1836
   57SAPC  H13S 4215   5.625   2.082   9.154 -0.8020 -0.0051  0.2431
   57SAPC  C214 4216   5.826   2.137   9.093  0.2142  0.3452  0.2883
   57SAPC  H14R 4217   5.906   2.101   9.159 -1.0316  0.3001  1.8272
   57SAPC  C215 4218   5.856   2.143   8.957  0.3552 -0.1952  0.4984
   57SAPC  H15R 4219   5.959   2.124   8.923  0.6793  1.2263  0.6257
   57SAPC  C216 4220   5.761   2.187   8.842 -0.3544 -0.3444 -0.1150
   57SAPC  H16R 4221   5.822   2.251   8.776 -1.5795 -0.5362 -1.4819
   57SAPC  H16S 4222   5.679   2.255   8.873 -2.5898 -2.5474 -0.8674
   57SAPC  C217 4223   5.711   2.088   8.749  0.1895  0.5779  0.4901
   57SAPC  H17R 4224   5.641   2.015   8.796 -1.9787  0.9047 -2.0031
   57SAPC  H17S 4225   5.802   2.032   8.718 -0.6716 -0.1347 -0.8617
   57SAPC  C218 4226   5.642   2.142   8.618  0.0863  0.0326  0.0305
   57SAPC  H18R 4227   5.625   2.064   8.542 -2.1856  2.0002 -1.6462
   57SAPC  H18S 4228   5.707   2.219   8.571  0.0355 -1.2141 -2.2115
   57SAPC  C219 4229   5.503   2.202   8.648  0.6932  0.9245 -0.2815
   57SAPC  H19R 4230   5.506   2.266   8.739 -1.9015 -0.1494  0.6772
   57SAPC  H19S 4231   5.434   2.120   8.681 -0.2672  1.7150 -0.2741
   57SAPC  C220 4232   5.433   2.271   8.529 -0.2681  0.2328  0.4532
   57SAPC  H20R 4233   5.322   2.265   8.538 -0.4143 -1.4737 -1.8194
   57SAPC  H20S 4234   5.445   2.225   8.429 -1.7805 -0.2119  0.4498
   57SAPC  H20T 4235   5.473   2.375   8.527  2.0375 -0.6004  0.6609
   57SAPC   C33 4236   5.941   2.983   9.949  0.9460  0.0415 -0.4639
   57SAPC   H3X 4237   6.017   3.033  10.012 -0.9121  0.1479  1.8090
   57SAPC   H3Y 4238   5.852   3.014  10.008  0.1298 -1.9950 -0.5317
   57SAPC   C34 4239   5.919   3.034   9.806  0.7875 -0.4823 -0.0462
   57SAPC   H4X 4240   5.879   3.136   9.821 -1.7248 -1.6531  1.9198
   57SAPC   H4Y 4241   5.844   2.968   9.757 -0.3177  0.6744  0.0469
   57SAPC   C35 4242   6.035   3.030   9.711 -0.0004  0.2043  0.0206
   57SAPC   H5X 4243   6.073   2.926   9.719  0.3224  0.3779  0.7937
   57SAPC   H5Y 4244   6.108   3.107   9.742 -2.2759  1.7651  1.8660
   57SAPC   C36 4245   5.997   3.065   9.564 -0.4983 -0.5257 -0.0996
   57SAPC   H6X 4246   6.078   3.119   9.509 -0.3029  1.3043  1.8652
   57SAPC   H6Y 4247   5.917   3.142   9.559 -0.1292  0.0905  2.4270
   57SAPC   C37 4248   5.961   2.944   9.472  0.2256  0.0317 -0.1504
   57SAPC   H7X 4249   5.871   2.916   9.530  1.6364 -1.4466  1.4267
   57SAPC   H7Y 4250   6.038   2.864   9.474  1.1794  0.9211  0.0541
   57SAPC   C38 4251   5.948   2.990   9.325  1.0360  0.2821 -0.4858
   57SAPC   H8X 4252   6.036   3.044   9.285  0.2625  0.2228 -2.3945
   57SAPC   H8Y 4253   5.855   3.050   9.318  0.4268 -0.0342  3.0641
   57SAPC   C39 4254   5.951   2.870   9.224  0.2098 -0.2282  0.0966
   57SAPC   H9X 4255   6.055   2.835   9.207  0.7419  2.2920 -2.6151
   57SAPC   H9Y 4256   5.925   2.915   9.126 -1.1952 -0.5297  0.2998
   57SAPC  C310 4257   5.838   2.767   9.245 -0.0603 -0.5000  0.0853
   57SAPC  H10X 4258   5.740   2.818   9.251  0.1704  0.2214 -1.6958
   57SAPC  H10Y 4259   5.858   2.687   9.320 -0.7942 -2.0275 -1.2763
   57SAPC  C311 4260   5.820   2.682   9.118 -0.6109  0.0678 -0.2521
   57SAPC  H11X 4261   5.804   2.750   9.032  0.6558  1.4344  0.5362
   57SAPC  H11Y 4262   5.731   2.617   9.133 -0.5680 -0.1324 -0.8208
   57SAPC  C312 4263   5.940   2.590   9.082 -0.3745 -0.3859  0.6749
   57SAPC  H12X 4264   5.972   2.521   9.162  1.0532 -2.0692 -1.2488
   57SAPC  H12Y 4265   6.027   2.656   9.064  0.1052 -0.9958  0.7409
   57SAPC  C313 4266   5.900   2.513   8.961 -0.1436 -0.1746  0.4008
   57SAPC  H13X 4267   5.799   2.470   8.980 -0.3092 -0.8149 -1.6701
   57SAPC  H13Y 4268   5.978   2.434   8.954  0.8229  0.7464  0.5088
   57SAPC  C314 4269   5.913   2.598   8.836 -0.3773  0.8053 -0.2311
   57SAPC  H14X 4270   6.004   2.660   8.851  0.6108 -0.8118  0.7549
   57SAPC  H14Y 4271   5.829   2.670   8.823 -0.4591  0.4538 -1.8312
   57SAPC  C315 4272   5.933   2.512   8.715 -0.6303 -0.5549 -0.8797
   57SAPC  H15X 4273   5.836   2.463   8.692 -0.1687 -1.1817 -1.5388
   57SAPC  H15Y 4274   5.993   2.421   8.735  0.0447 -0.2508 -1.4700
   57SAPC  C316 4275   5.982   2.600   8.600  0.3129  0.4725 -0.3745
   57SAPC  H16X 4276   6.072   2.657   8.629  0.2157  0.3346  0.2206
   57SAPC  H16Y 4277   5.917   2.681   8.560 -1.7032 -2.0250 -2.5908
   57SAPC  C317 4278   6.012   2.505   8.484 -0.4703  0.7609  0.2272
   57SAPC  H17X 4279   6.072   2.413   8.498 -0.2178  0.5363 -1.9292
   57SAPC  H17Y 4280   6.062   2.557   8.399 -1.3961 -1.4834 -1.8236
   57SAPC  C318 4281   5.882   2.451   8.414 -0.2367 -0.1018  1.0482
   57SAPC  H18X 4282   5.908   2.373   8.338 -1.5114 -1.1840  1.6994
   57SAPC  H18Y 4283   5.823   2.538   8.377 -0.1154  1.0065  3.3310
   57SAPC  H18Z 4284   5.827   2.398   8.494  3.1796 -0.8880  3.1071
   58SAPC     N 4285   2.114   0.756  10.392  0.3029 -0.1620  0.0607
   58SAPC   C12 4286   2.213   0.878  10.410  0.1799  0.1301 -0.3513
   58SAPC  H12A 4287   2.316   0.849  10.423  0.5552  0.2082 -2.6795
   58SAPC  H12B 4288   2.187   0.923  10.504  0.4111 -0.8620  0.2090
   58SAPC   C13 4289   2.100   0.691  10.527 -0.4804  0.4726  0.3083
   58SAPC  H13A 4290   2.011   0.629  10.528  0.2683 -0.8023 -2.1755
   58SAPC  H13B 4291   2.177   0.621  10.556 -1.6464 -0.8687  0.3005
   58SAPC  H13C 4292   2.097   0.768  10.603  0.4751  0.4425  0.3795
   58SAPC   C14 4293   1.981   0.811  10.363 -0.0055 -0.3144 -0.0802
   58SAPC  H14A 4294   1.985   0.867  10.271 -1.4272 -0.6340 -0.3645
   58SAPC  H14B 4295   1.903   0.737  10.360 -0.8675  0.4307  1.9892
   58SAPC  H14C 4296   1.949   0.883  10.437 -2.3492  0.3648 -1.6471
   58SAPC   C15 4297   2.154   0.654  10.295  0.0291  0.1278  1.0986
   58SAPC  H15A 4298   2.252   0.612  10.308 -0.0964 -0.2760  0.7589
   58SAPC  H15B 4299   2.084   0.573  10.302 -0.0824  0.2670  1.6291
   58SAPC  H15C 4300   2.155   0.691  10.193  1.6925  0.4453  1.2056
   58SAPC   C11 4301   2.209   0.992  10.301  0.1262  0.3341 -0.2551
   58SAPC  H11A 4302   2.230   0.939  10.206 -0.0035 -1.3483  0.6048
   58SAPC  H11B 4303   2.297   1.053  10.328  0.0512 -0.3448  1.7332
   58SAPC     P 4304   2.070   1.182  10.412 -0.0337 -0.0638 -0.0186
   58SAPC   O13 4305   1.949   1.255  10.381  0.0042 -0.1888  0.1569
   58SAPC   O14 4306   2.080   1.126  10.547 -0.0698  0.6077  0.1204
   58SAPC   O12 4307   2.092   1.070  10.302  0.1208  0.1613  0.4152
   58SAPC   O11 4308   2.191   1.280  10.392  0.7339 -0.1825  0.3442
   58SAPC    C1 4309   2.220   1.340  10.263 -0.2651 -0.5422  0.1037
   58SAPC    HA 4310   2.327   1.365  10.252 -0.0437 -1.1194  0.9050
   58SAPC    HB 4311   2.195   1.273  10.178 -2.5774  1.0157 -0.5461
   58SAPC    C2 4312   2.142   1.469  10.232  0.2872  0.2108  0.4654
   58SAPC    HS 4313   2.041   1.435  10.264 -0.1357 -0.2608 -1.2893
   58SAPC   O21 4314   2.148   1.495  10.089 -0.3253  0.4776 -0.0547
   58SAPC   C21 4315   2.054   1.582  10.053 -0.5016 -0.1030 -0.2626
   58SAPC   O22 4316   1.964   1.617  10.129 -0.1046 -0.2847 -0.0580
   58SAPC   C22 4317   2.075   1.613   9.904 -0.2846  0.3011 -0.3172
   58SAPC   H2R 4318   2.118   1.715   9.904 -0.5421  0.4420  1.3934
   58SAPC   H2S 4319   2.164   1.558   9.864  1.1959  2.7215 -0.5544
   58SAPC    C3 4320   2.192   1.584  10.317 -0.3775  0.0105 -0.3413
   58SAPC    HX 4321   2.200   1.544  10.420  1.5377 -1.5442 -1.0278
   58SAPC    HY 4322   2.119   1.667  10.316 -0.8381 -0.3572 -1.9944
   58SAPC   O31 4323   2.327   1.614  10.289 -0.1352  0.2206 -0.3208
   58SAPC   C31 4324   2.351   1.718  10.211 -0.1942  0.4224  0.2625
   58SAPC   O32 4325   2.271   1.802  10.183 -0.2158  0.2864  0.6566
   58SAPC   C32 4326   2.491   1.702  10.153 -0.4277  0.1161  0.3186
   58SAPC   H2X 4327   2.526   1.597  10.160 -1.4967 -0.1405  3.0821
   58SAPC   H2Y 4328   2.560   1.756  10.221  0.1951  2.0729 -1.7513
   58SAPC   C23 4329   1.945   1.628   9.819  0.2449 -0.2426 -0.4944
   58SAPC   H3R 4330   1.985   1.659   9.719 -0.6648  0.7545 -0.5611
   58SAPC   H3S 4331   1.885   1.713   9.856  2.2060  0.5484  1.0343
   58SAPC   C24 4332   1.844   1.505   9.805 -0.0530 -0.8755 -0.4474
   58SAPC   H4R 4333   1.757   1.549   9.751  0.4576  4.4490  2.3224
   58SAPC   H4S 4334   1.818   1.479   9.909  4.0998 -0.1394  0.9618
   58SAPC   C25 4335   1.909   1.394   9.738 -0.3016 -0.0444 -0.1997
   58SAPC   H5R 4336   1.985   1.343   9.800  0.9478  1.5430 -0.3624
   58SAPC   C26 4337   1.903   1.356   9.612  0.1193  0.5395  0.1745
   58SAPC   H6R 4338   1.964   1.269   9.585  1.1262  1.8775 -2.1016
   58SAPC   C27 4339   1.815   1.411   9.502  0.2162  0.3445 -0.2843
   58SAPC   H7R 4340   1.712   1.373   9.514 -0.3936  1.9964 -0.0936
   58SAPC   H7S 4341   1.857   1.358   9.413  1.9992 -0.8201  1.1792
   58SAPC   C28 4342   1.801   1.555   9.460  0.4642  0.0348  0.3861
   58SAPC   H8R 4343   1.822   1.629   9.538 -0.8655 -2.3361  3.2274
   58SAPC   C29 4344   1.768   1.608   9.342  0.0579 -0.6678 -0.2166
   58SAPC   H9R 4345   1.772   1.718   9.332  1.6312 -0.5845  0.9149
   58SAPC  C210 4346   1.732   1.532   9.219 -0.3363 -0.1448  0.7703
   58SAPC  H10R 4347   1.673   1.592   9.147 -1.7818 -1.3706  0.8845
   58SAPC  H10S 4348   1.670   1.443   9.244 -0.2142 -0.4387  0.0557
   58SAPC  C211 4349   1.853   1.484   9.137  0.0799 -0.1020 -0.1603
   58SAPC  H11R 4350   1.955   1.506   9.173 -0.2536  0.0996  0.6858
   58SAPC  C212 4351   1.844   1.414   9.028 -0.0081  0.1334  0.7475
   58SAPC  H12R 4352   1.936   1.362   8.997 -0.7322 -0.2955 -0.7697
   58SAPC  C213 4353   1.712   1.367   8.968 -0.0778  0.1093 -0.0338
   58SAPC  H13R 4354   1.616   1.412   9.003 -1.6586 -3.0570  0.0240
   58SAPC  H13S 4355   1.693   1.260   8.990  0.2862  0.5274  2.7123
   58SAPC  C214 4356   1.721   1.389   8.818 -1.0899  0.0559 -0.4024
   58SAPC  H14R 4357   1.742   1.492   8.785 -0.8331  0.6917  1.6439
   58SAPC  C215 4358   1.685   1.295   8.725  0.0053 -0.5988  1.1651
   58SAPC  H15R 4359   1.704   1.317   8.619 -1.9031 -0.9332  0.7150
   58SAPC  C216 4360   1.625   1.160   8.740  0.7131 -0.1862 -0.2947
   58SAPC  H16R 4361   1.543   1.148   8.665  0.9352 -0.6486 -0.4691
   58SAPC  H16S 4362   1.592   1.139   8.844 -1.6003 -1.6737 -1.2368
   58SAPC  C217 4363   1.726   1.052   8.706  0.0708  0.3050  0.0824
   58SAPC  H17R 4364   1.667   0.961   8.728  0.7836 -0.3563 -0.6512
   58SAPC  H17S 4365   1.812   1.051   8.776  1.3515 -0.0573 -1.4329
   58SAPC  C218 4366   1.784   1.070   8.566 -0.0740  0.1931  0.8941
   58SAPC  H18R 4367   1.866   1.145   8.571  1.3805 -0.9642 -2.4349
   58SAPC  H18S 4368   1.699   1.102   8.502 -1.6857 -3.5033  0.9037
   58SAPC  C219 4369   1.842   0.943   8.512 -0.1071  0.4504  0.6469
   58SAPC  H19R 4370   1.889   0.964   8.414 -4.2494  0.6713 -1.5433
   58SAPC  H19S 4371   1.758   0.875   8.486  0.1286 -0.0388  1.1317
   58SAPC  C220 4372   1.937   0.870   8.611 -0.5276 -0.1401  0.0053
   58SAPC  H20R 4373   2.012   0.946   8.640 -0.0047 -0.5299 -0.3041
   58SAPC  H20S 4374   2.002   0.795   8.562  1.3189  2.0667 -1.0932
   58SAPC  H20T 4375   1.900   0.828   8.708  0.3890 -2.4241 -0.5664
   58SAPC   C33 4376   2.489   1.755  10.007 -0.0943 -0.2139 -0.4648
   58SAPC   H3X 4377   2.441   1.855  10.004 -2.3686 -1.1072  2.0635
   58SAPC   H3Y 4378   2.418   1.684   9.962 -1.1534 -2.5813  4.2701
   58SAPC   C34 4379   2.626   1.778   9.955  0.3006 -0.0417  0.2698
   58SAPC   H4X 4380   2.678   1.681   9.968  0.7395  0.3207  1.3707
   58SAPC   H4Y 4381   2.680   1.847  10.024 -0.1110  0.0262  0.5269
   58SAPC   C35 4382   2.630   1.820   9.809 -0.8052 -0.3041 -0.5237
   58SAPC   H5X 4383   2.736   1.826   9.779 -0.8448  1.5444 -0.4427
   58SAPC   H5Y 4384   2.594   1.925   9.797 -0.9868 -0.1113  1.3643
   58SAPC   C36 4385   2.551   1.728   9.721  0.1550  0.3485 -0.8053
   58SAPC   H6X 4386   2.440   1.728   9.735  0.2078  2.1119 -0.1286
   58SAPC   H6Y 4387   2.583   1.626   9.751 -1.3367  0.4728  1.4228
   58SAPC   C37 4388   2.585   1.738   9.567 -0.1327  0.1888 -0.6802
   58SAPC   H7X 4389   2.555   1.839   9.531 -2.1738 -0.6774 -1.5632
   58SAPC   H7Y 4390   2.520   1.667   9.511  1.4355 -1.2579 -0.7665
   58SAPC   C38 4391   2.731   1.713   9.531 -0.2892 -0.0898  0.0374
   58SAPC   H8X 4392   2.761   1.631   9.600 -1.6384 -0.8133 -0.2025
   58SAPC   H8Y 4393   2.792   1.799   9.566 -2.7216  0.1374  4.4212
   58SAPC   C39 4394   2.762   1.681   9.389  0.3474 -0.1551  0.3969
   58SAPC   H9X 4395   2.721   1.580   9.365  0.9715  0.0439 -1.6885
   58SAPC   H9Y 4396   2.869   1.674   9.361  0.0021  1.5644 -1.6322
   58SAPC  C310 4397   2.697   1.790   9.298 -0.1003  0.7794 -0.6885
   58SAPC  H10X 4398   2.730   1.895   9.312  2.1802 -0.1891  2.0395
   58SAPC  H10Y 4399   2.589   1.790   9.323  0.1454  1.4388  0.4474
   58SAPC  C311 4400   2.706   1.752   9.148  0.6329 -0.1301 -0.1471
   58SAPC  H11X 4401   2.651   1.655   9.145 -0.5650  0.3824  2.2888
   58SAPC  H11Y 4402   2.808   1.735   9.107  1.5035  2.8998  0.5597
   58SAPC  C312 4403   2.626   1.848   9.060  0.9044 -0.0646  0.1174
   58SAPC  H12X 4404   2.675   1.947   9.063  0.3321  0.2874 -1.3350
   58SAPC  H12Y 4405   2.524   1.857   9.103  1.0734 -0.6623  0.6644
   58SAPC  C313 4406   2.606   1.800   8.909  0.3111  0.1585 -0.0655
   58SAPC  H13X 4407   2.612   1.690   8.897 -2.6821 -0.0045 -0.9904
   58SAPC  H13Y 4408   2.692   1.838   8.850  2.7970  0.6754  3.6196
   58SAPC  C314 4409   2.468   1.841   8.857  0.1015 -0.4620  0.0007
   58SAPC  H14X 4410   2.452   1.950   8.848 -3.6792 -0.7370  1.6321
   58SAPC  H14Y 4411   2.394   1.811   8.933 -0.3039 -0.6324 -0.4529
   58SAPC  C315 4412   2.429   1.770   8.729 -0.0527 -0.0916  0.0079
   58SAPC  H15X 4413   2.320   1.781   8.712 -0.0032  1.7813  0.7598
   58SAPC  H15Y 4414   2.453   1.662   8.742  0.5661  0.0851  0.3701
   58SAPC  C316 4415   2.503   1.824   8.609  0.0769  0.2238 -1.0048
   58SAPC  H16X 4416   2.610   1.804   8.628  0.6164  2.2287 -1.7679
   58SAPC  H16Y 4417   2.485   1.933   8.604 -2.1662 -0.0967 -0.9072
   58SAPC  C317 4418   2.464   1.751   8.479 -0.1471 -0.1686  0.2239
   58SAPC  H17X 4419   2.361   1.783   8.453 -0.2723 -1.3846 -0.9101
   58SAPC  H17Y 4420   2.457   1.641   8.490  0.1126 -0.2577 -0.4683
   58SAPC  C318 4421   2.545   1.808   8.361  0.4988  0.1318 -0.0895
   58SAPC  H18X 4422   2.549   1.919   8.371 -2.6933  0.4388 -0.8881
   58SAPC  H18Y 4423   2.504   1.769   8.265  0.0318 -0.9881  0.5570
   58SAPC  H18Z 4424   2.650   1.773   8.374  0.3319  0.1361  1.3968
   59SAPC     N 4425   2.164   2.649  11.019 -0.4553 -0.6188 -0.4283
   59SAPC   C12 4426   2.102   2.687  10.881 -0.2243  0.6589 -0.5067
   59SAPC  H12A 4427   2.092   2.601  10.816  2.8904  0.9597 -1.5257
   59SAPC  H12B 4428   2.169   2.743  10.818  0.8142  1.3669  1.1460
   59SAPC   C13 4429   2.110   2.523  11.075 -0.3479 -0.0978  0.0770
   59SAPC  H13A 4430   2.148   2.499  11.173  0.5114  0.6670 -0.0580
   59SAPC  H13B 4431   2.002   2.523  11.081 -0.2838 -0.0813  1.8494
   59SAPC  H13C 4432   2.137   2.441  11.010 -0.1760  0.4730 -0.5805
   59SAPC   C14 4433   2.317   2.632  11.004  0.3000 -0.5063 -0.1866
   59SAPC  H14A 4434   2.366   2.728  10.997 -1.4997  0.5208  0.5857
   59SAPC  H14B 4435   2.349   2.570  11.086  0.7362 -2.4422 -1.7325
   59SAPC  H14C 4436   2.338   2.573  10.916  0.8329 -1.5122  0.5924
   59SAPC   C15 4437   2.148   2.762  11.112  0.2964 -0.1157  0.8644
   59SAPC  H15A 4438   2.046   2.796  11.127 -0.5958 -0.9284 -2.4493
   59SAPC  H15B 4439   2.195   2.730  11.203 -0.0244 -0.2230  0.9937
   59SAPC  H15C 4440   2.190   2.854  11.074 -2.2641  0.9298  0.2953
   59SAPC   C11 4441   1.969   2.765  10.889  0.3928  0.4164  0.3331
   59SAPC  H11A 4442   1.931   2.762  10.784 -2.0070 -0.8025  1.1447
   59SAPC  H11B 4443   1.985   2.870  10.921 -0.4671  0.8024 -0.4319
   59SAPC     P 4444   1.779   2.757  11.069  0.0061 -0.2942  0.3136
   59SAPC   O13 4445   1.711   2.655  11.149  0.0675  0.3907 -0.2971
   59SAPC   O14 4446   1.851   2.871  11.141  0.3564 -0.3424 -0.3852
   59SAPC   O12 4447   1.870   2.692  10.973  0.7036 -0.3573  0.3833
   59SAPC   O11 4448   1.681   2.821  10.968  0.3562  0.5925  0.2040
   59SAPC    C1 4449   1.582   2.747  10.892 -0.2390  0.3552  0.0447
   59SAPC    HA 4450   1.621   2.657  10.839 -2.8138  0.8531 -3.0353
   59SAPC    HB 4451   1.504   2.709  10.962  1.2165 -0.6741  1.1833
   59SAPC    C2 4452   1.511   2.832  10.791 -0.2169  0.0525  0.3323
   59SAPC    HS 4453   1.437   2.768  10.738 -1.2003  0.3824  1.2720
   59SAPC   O21 4454   1.604   2.910  10.698  0.0918  0.4354 -0.2097
   59SAPC   C21 4455   1.660   2.824  10.614  0.1792  0.3038 -0.1512
   59SAPC   O22 4456   1.619   2.706  10.596 -0.1742 -0.3510 -0.1974
   59SAPC   C22 4457   1.760   2.886  10.525 -0.4734  0.3676 -0.5745
   59SAPC   H2R 4458   1.799   2.978  10.573  0.3612  0.5778 -1.6240
   59SAPC   H2S 4459   1.839   2.808  10.529 -0.4367  0.4542  1.5303
   59SAPC    C3 4460   1.413   2.932  10.858 -0.4818  0.0074 -0.7470
   59SAPC    HX 4461   1.475   2.976  10.939 -0.6799 -0.6048 -0.2514
   59SAPC    HY 4462   1.331   2.871  10.902 -1.2507  0.6338 -1.3001
   59SAPC   O31 4463   1.362   3.028  10.768 -0.2691 -0.1749 -0.7251
   59SAPC   C31 4464   1.443   3.133  10.745  0.5570 -0.0883 -0.3849
   59SAPC   O32 4465   1.548   3.153  10.807 -0.1795  0.2009 -0.2766
   59SAPC   C32 4466   1.385   3.220  10.645  0.4222  0.4014  0.3311
   59SAPC   H2X 4467   1.395   3.324  10.685 -2.0607  1.3808 -1.3627
   59SAPC   H2Y 4468   1.279   3.195  10.624  1.4790 -2.4574 -2.2150
   59SAPC   C23 4469   1.716   2.910  10.387 -0.2449 -0.2163 -0.4068
   59SAPC   H3R 4470   1.606   2.927  10.384 -0.4424 -0.8447  1.6838
   59SAPC   H3S 4471   1.736   2.824  10.320 -3.1434 -0.4956 -1.0325
   59SAPC   C24 4472   1.777   3.040  10.336 -0.4609 -0.2641  0.5005
   59SAPC   H4R 4473   1.771   3.122  10.410 -1.7223  0.7147 -0.6456
   59SAPC   H4S 4474   1.716   3.066  10.247 -2.3008 -0.2451  1.7070
   59SAPC   C25 4475   1.920   3.033  10.287  0.2205  0.1578 -0.2501
   59SAPC   H5R 4476   1.993   3.018  10.368  0.5317  2.7058  0.0120
   59SAPC   C26 4477   1.970   3.041  10.162  0.6709  0.1693  0.5103
   59SAPC   H6R 4478   2.077   3.025  10.145  1.0570  0.4704  2.4087
   59SAPC   C27 4479   1.880   3.055  10.041 -0.6808 -0.1029  0.1206
   59SAPC   H7R 4480   1.773   3.047  10.070 -0.2479  0.0155  1.8972
   59SAPC   H7S 4481   1.897   2.962   9.982 -0.1578 -0.2541  0.5001
   59SAPC   C28 4482   1.898   3.180   9.959 -0.7654 -0.2772 -0.5515
   59SAPC   H8R 4483   1.907   3.275  10.013 -1.0021 -0.9977  0.8125
   59SAPC   C29 4484   1.910   3.181   9.821 -0.0123  0.0687 -0.3340
   59SAPC   H9R 4485   1.916   3.276   9.765 -0.7452  0.4913  0.2922
   59SAPC  C210 4486   1.916   3.060   9.724 -0.3808 -1.1032 -0.7821
   59SAPC  H10R 4487   1.908   2.961   9.773 -0.2335  0.0442  1.6947
   59SAPC  H10S 4488   2.020   3.067   9.685  0.5330 -2.7151  1.2123
   59SAPC  C211 4489   1.807   3.075   9.624  0.2758 -0.1246 -0.5134
   59SAPC  H11R 4490   1.709   3.094   9.669  1.2193 -0.0356  1.6629
   59SAPC  C212 4491   1.829   3.076   9.489  0.7037  0.1486  0.1340
   59SAPC  H12R 4492   1.736   3.092   9.433 -1.0434  0.7555  2.9761
   59SAPC  C213 4493   1.955   3.054   9.406  0.4071  0.5139 -0.5137
   59SAPC  H13R 4494   1.939   2.982   9.323 -0.1669  0.1324 -0.0739
   59SAPC  H13S 4495   2.017   2.991   9.474 -0.7314 -2.5375 -2.1422
   59SAPC  C214 4496   2.013   3.184   9.358 -0.8763 -0.9629 -0.2742
   59SAPC  H14R 4497   2.068   3.231   9.441  0.7572 -1.0477 -1.2594
   59SAPC  C215 4498   1.988   3.241   9.239 -0.3150 -0.0344  0.2016
   59SAPC  H15R 4499   2.030   3.340   9.216 -2.4240  1.2253  1.4892
   59SAPC  C216 4500   1.907   3.176   9.133  0.8232 -0.1225 -0.2278
   59SAPC  H16R 4501   1.813   3.233   9.122  0.6555  0.1456  2.0212
   59SAPC  H16S 4502   1.877   3.075   9.169  1.7627  0.1747  1.5320
   59SAPC  C217 4503   1.975   3.167   9.001  0.0446 -0.4568  0.6593
   59SAPC  H17R 4504   2.080   3.131   9.010  0.9996  1.6434 -1.1566
   59SAPC  H17S 4505   1.978   3.270   8.960  0.9584 -0.5568  0.4593
   59SAPC  C218 4506   1.887   3.093   8.897 -0.5900  0.2434 -0.3422
   59SAPC  H18R 4507   1.780   3.110   8.919 -0.6401 -0.6725  0.1980
   59SAPC  H18S 4508   1.906   2.984   8.911  2.2192  0.4531 -1.8238
   59SAPC  C219 4509   1.928   3.118   8.751  0.0433 -0.3802 -0.2623
   59SAPC  H19R 4510   1.892   3.221   8.729 -1.7787 -0.8180  0.5117
   59SAPC  H19S 4511   1.881   3.035   8.694 -1.1974 -1.0849  1.6806
   59SAPC  C220 4512   2.082   3.128   8.734 -0.3449 -0.8236 -0.2562
   59SAPC  H20R 4513   2.142   3.190   8.804  0.8835 -2.5638  0.3249
   59SAPC  H20S 4514   2.099   3.175   8.635 -0.7645 -0.7501 -0.2926
   59SAPC  H20T 4515   2.132   3.028   8.731  1.6699  0.1113  0.3634
   59SAPC   C33 4516   1.469   3.217  10.513 -0.5904 -0.3715  0.5852
   59SAPC   H3X 4517   1.565   3.160  10.514 -0.7837 -0.7363 -0.3299
   59SAPC   H3Y 4518   1.511   3.319  10.493 -0.2623 -0.4315  0.9608
   59SAPC   C34 4519   1.377   3.173  10.398  0.8811  0.4363  0.6919
   59SAPC   H4X 4520   1.272   3.208  10.398  1.1339  1.2148  0.4697
   59SAPC   H4Y 4521   1.378   3.062  10.403  0.9908  0.4822  2.0559
   59SAPC   C35 4522   1.442   3.208  10.266 -0.7506 -0.6567  1.1150
   59SAPC   H5X 4523   1.548   3.176  10.265 -1.1075 -1.9027  1.0014
   59SAPC   H5Y 4524   1.455   3.318  10.252  3.2681 -0.7689  2.8005
   59SAPC   C36 4525   1.364   3.146  10.149 -0.8685  0.1258  0.6327
   59SAPC   H6X 4526   1.257   3.165  10.172 -1.0556  0.1689 -0.2522
   59SAPC   H6Y 4527   1.385   3.038  10.160 -0.0937  0.1854 -0.1926
   59SAPC   C37 4528   1.409   3.193  10.010 -0.0260  0.1551 -0.7640
   59SAPC   H7X 4529   1.518   3.171  10.014 -0.2593 -0.7954  1.0232
   59SAPC   H7Y 4530   1.411   3.304  10.002 -0.1481  0.1679 -0.6031
   59SAPC   C38 4531   1.344   3.118   9.891  0.0283  0.2480 -0.0898
   59SAPC   H8X 4532   1.237   3.145   9.881 -0.1801 -0.7965 -0.8204
   59SAPC   H8Y 4533   1.360   3.011   9.915  3.7400  0.1587 -2.1452
   59SAPC   C39 4534   1.419   3.136   9.758  0.5523 -0.4509 -0.2194
   59SAPC   H9X 4535   1.524   3.100   9.763  0.5346 -0.3459  1.2145
   59SAPC   H9Y 4536   1.414   3.246   9.740 -0.6468 -0.4148  0.2699
   59SAPC  C310 4537   1.342   3.071   9.633 -0.0996  0.0251  0.6596
   59SAPC  H10X 4538   1.231   3.082   9.633 -0.1063  0.1312 -0.5858
   59SAPC  H10Y 4539   1.370   2.964   9.640 -2.3052 -0.5735  1.2747
   59SAPC  C311 4540   1.394   3.133   9.509 -0.0131 -0.6102 -0.3285
   59SAPC  H11X 4541   1.504   3.117   9.511  0.0678 -0.4063 -2.1534
   59SAPC  H11Y 4542   1.362   3.238   9.520 -1.6354 -1.0588 -0.5878
   59SAPC  C312 4543   1.338   3.076   9.376  0.4294 -0.5923  0.3796
   59SAPC  H12X 4544   1.227   3.074   9.376  0.1341  2.7974  3.4346
   59SAPC  H12Y 4545   1.372   2.972   9.363 -0.4355 -1.0792  1.7873
   59SAPC  C313 4546   1.387   3.162   9.254  0.5548 -0.0336  0.1829
   59SAPC  H13X 4547   1.497   3.152   9.262  0.3772 -2.0753  0.4913
   59SAPC  H13Y 4548   1.356   3.269   9.246  1.6486  0.1815 -2.0831
   59SAPC  C314 4549   1.320   3.097   9.129  0.6681  0.2335 -0.5118
   59SAPC  H14X 4550   1.209   3.099   9.134  0.6319 -0.6535 -0.6777
   59SAPC  H14Y 4551   1.348   2.989   9.133  0.3343  0.1657  0.3008
   59SAPC  C315 4552   1.362   3.152   8.996  0.2488 -0.8994  0.0767
   59SAPC  H15X 4553   1.471   3.133   8.984  0.1501 -0.8413 -1.0109
   59SAPC  H15Y 4554   1.357   3.262   8.983 -1.6739 -0.6154  2.4309
   59SAPC  C316 4555   1.298   3.085   8.868  0.3456 -0.3921  0.5352
   59SAPC  H16X 4556   1.261   3.162   8.796 -1.0350  0.0828  1.7151
   59SAPC  H16Y 4557   1.205   3.049   8.917  0.7898 -1.1635  0.8292
   59SAPC  C317 4558   1.375   2.963   8.815  0.1223 -0.2666  0.1864
   59SAPC  H17X 4559   1.303   2.892   8.768 -0.2881  0.6814 -0.6473
   59SAPC  H17Y 4560   1.418   2.915   8.905  2.7475 -0.0803 -0.8738
   59SAPC  C318 4561   1.483   3.008   8.719 -0.0902 -0.0573  0.0745
   59SAPC  H18X 4562   1.540   2.924   8.673 -0.7712 -1.3260  1.4673
   59SAPC  H18Y 4563   1.560   3.075   8.761  0.4448  0.2654 -1.3654
   59SAPC  H18Z 4564   1.436   3.064   8.635 -0.7692  0.8540  1.0458
   60SAPC     N 4565   3.028   0.895  10.793 -0.1219  0.0900 -0.3751
   60SAPC   C12 4566   3.174   0.858  10.829 -0.5167 -0.4546  0.1257
   60SAPC  H12A 4567   3.207   0.785  10.758 -3.5366  0.3678 -2.3322
   60SAPC  H12B 4568   3.181   0.815  10.928  1.0655 -4.5671 -1.5813
   60SAPC   C13 4569   2.935   0.782  10.835  0.0232  0.6191 -0.3415
   60SAPC  H13A 4570   2.835   0.807  10.802 -0.6645 -0.6195  0.6789
   60SAPC  H13B 4571   2.958   0.684  10.795  1.8459  0.3250  1.2754
   60SAPC  H13C 4572   2.943   0.772  10.943  4.9580 -2.2495 -0.6638
   60SAPC   C14 4573   2.987   1.025  10.861 -0.2443 -0.3818  0.3727
   60SAPC  H14A 4574   2.970   1.012  10.967 -1.2673  1.8956  0.5542
   60SAPC  H14B 4575   3.064   1.095  10.833 -0.7790 -0.5204 -1.5503
   60SAPC  H14C 4576   2.890   1.054  10.824  0.3832 -0.0114 -1.0580
   60SAPC   C15 4577   3.006   0.912  10.646  0.6394 -0.3784  0.1574
   60SAPC  H15A 4578   3.041   0.823  10.594 -1.0336 -0.2293 -1.3043
   60SAPC  H15B 4579   2.909   0.928  10.602  1.6390  2.6402 -1.2213
   60SAPC  H15C 4580   3.066   0.998  10.619  0.4467  0.3553  1.9488
   60SAPC   C11 4581   3.285   0.972  10.822  0.4186 -0.0212 -0.1325
   60SAPC  H11A 4582   3.382   0.934  10.858  0.9121 -0.0713 -1.4512
   60SAPC  H11B 4583   3.251   1.050  10.893 -1.2302 -1.7832  1.1525
   60SAPC     P 4584   3.375   0.926  10.589  0.6177 -0.5010  0.2711
   60SAPC   O13 4585   3.511   0.903  10.643 -0.0569 -0.3400 -0.0541
   60SAPC   O14 4586   3.286   0.812  10.557 -0.0395 -0.2377  0.0093
   60SAPC   O12 4587   3.294   1.022  10.690  0.1885  0.1264 -0.1867
   60SAPC   O11 4588   3.391   1.018  10.455  0.5521 -0.2996 -0.6397
   60SAPC    C1 4589   3.278   1.092  10.409 -0.4668  0.7387  0.4534
   60SAPC    HA 4590   3.186   1.037  10.437 -1.1298  2.4521  1.8522
   60SAPC    HB 4591   3.276   1.194  10.455 -0.9533  0.8984  0.0839
   60SAPC    C2 4592   3.285   1.098  10.256  0.6195  0.0575 -0.8183
   60SAPC    HS 4593   3.298   0.996  10.214 -0.1788 -0.3485 -0.0951
   60SAPC   O21 4594   3.381   1.192  10.204  0.0737  0.8108 -0.5471
   60SAPC   C21 4595   3.428   1.165  10.091 -1.1607  0.6831  1.1845
   60SAPC   O22 4596   3.406   1.071  10.018 -0.9208 -0.1527  0.0623
   60SAPC   C22 4597   3.539   1.264  10.051 -0.2662 -0.4921  0.3056
   60SAPC   H2R 4598   3.531   1.355  10.114 -2.0736  0.5892 -1.3890
   60SAPC   H2S 4599   3.633   1.208  10.068 -1.6282 -2.7064  0.9676
   60SAPC    C3 4600   3.149   1.139  10.208  0.4542 -0.1461  0.3376
   60SAPC    HX 4601   3.128   1.231  10.267 -1.3072 -2.0203  2.8706
   60SAPC    HY 4602   3.064   1.076  10.245 -1.3575  1.7161 -0.4726
   60SAPC   O31 4603   3.145   1.156  10.067  0.4375 -0.4389 -0.3172
   60SAPC   C31 4604   3.114   1.044  10.006 -1.2553  0.3145 -0.4194
   60SAPC   O32 4605   3.109   0.937  10.056  0.5314  0.5630 -0.0950
   60SAPC   C32 4606   3.108   1.080   9.855 -0.2947 -0.1392 -0.4920
   60SAPC   H2X 4607   3.209   1.105   9.817 -0.0999  1.5476  0.9858
   60SAPC   H2Y 4608   3.044   1.170   9.841  1.0952  0.6966 -1.7308
   60SAPC   C23 4609   3.512   1.297   9.905 -0.2331  0.1651  0.2776
   60SAPC   H3R 4610   3.411   1.343   9.898 -0.1537  0.1631 -1.2769
   60SAPC   H3S 4611   3.518   1.206   9.842  0.1560  0.3078  0.1021
   60SAPC   C24 4612   3.617   1.393   9.844  0.3759  0.7463  0.1715
   60SAPC   H4R 4613   3.600   1.367   9.738 -0.0648  0.9023  0.2008
   60SAPC   H4S 4614   3.723   1.367   9.862  0.3454 -0.0234 -0.6841
   60SAPC   C25 4615   3.576   1.534   9.877 -0.1774  0.0441  0.1513
   60SAPC   H5R 4616   3.612   1.572   9.974  2.3095  0.9098 -1.0109
   60SAPC   C26 4617   3.515   1.625   9.798  0.2400  0.7387  0.6181
   60SAPC   H6R 4618   3.514   1.729   9.833  1.0345  1.5033 -1.4911
   60SAPC   C27 4619   3.468   1.612   9.654  0.6082 -0.5318  0.6080
   60SAPC   H7R 4620   3.456   1.504   9.633 -0.3925 -0.5840  1.3165
   60SAPC   H7S 4621   3.556   1.635   9.591  0.1678 -0.3959  0.0336
   60SAPC   C28 4622   3.338   1.673   9.614 -0.9268 -0.6892  0.4046
   60SAPC   H8R 4623   3.268   1.684   9.698  0.5420 -1.5806  1.8051
   60SAPC   C29 4624   3.296   1.722   9.492  0.2152 -0.5876  0.2587
   60SAPC   H9R 4625   3.190   1.752   9.489  0.5035  1.0391  3.0446
   60SAPC  C210 4626   3.376   1.730   9.365 -1.0170 -0.2660  0.7866
   60SAPC  H10R 4627   3.484   1.732   9.391 -0.9204 -1.5551  0.5968
   60SAPC  H10S 4628   3.361   1.829   9.318  2.5723 -0.0387 -0.2302
   60SAPC  C211 4629   3.335   1.613   9.276  0.3808 -0.2808 -0.3931
   60SAPC  H11R 4630   3.328   1.516   9.329 -1.9218 -0.5792 -1.1466
   60SAPC  C212 4631   3.300   1.624   9.150 -0.6627 -0.4901  0.6161
   60SAPC  H12R 4632   3.285   1.534   9.088  2.8778 -0.6397 -0.2448
   60SAPC  C213 4633   3.304   1.749   9.059  0.3817 -0.2094 -0.0539
   60SAPC  H13R 4634   3.387   1.822   9.063 -0.4948  0.9434 -1.4941
   60SAPC  H13S 4635   3.218   1.811   9.095  0.2782 -0.6368  0.4466
   60SAPC  C214 4636   3.291   1.716   8.914  0.1764 -0.2798 -0.0850
   60SAPC  H14R 4637   3.388   1.696   8.865 -0.1972 -2.8754  0.0746
   60SAPC  C215 4638   3.173   1.707   8.849 -0.5941  0.8250  0.3105
   60SAPC  H15R 4639   3.172   1.671   8.745  2.4201  0.8488  0.1654
   60SAPC  C216 4640   3.036   1.705   8.906  0.0621  0.2753  0.9008
   60SAPC  H16R 4641   2.971   1.775   8.851 -1.4845 -1.3398  0.6094
   60SAPC  H16S 4642   3.033   1.728   9.015  1.3211  0.0715  1.0004
   60SAPC  C217 4643   2.965   1.566   8.897 -0.0069 -0.5157 -0.4378
   60SAPC  H17R 4644   2.878   1.569   8.966 -1.2991 -1.3937 -1.9737
   60SAPC  H17S 4645   3.041   1.495   8.937  0.5478  0.7035  0.7613
   60SAPC  C218 4646   2.918   1.528   8.751 -0.1130 -0.4837 -0.3745
   60SAPC  H18R 4647   3.014   1.531   8.695  1.0174  0.0236  1.4912
   60SAPC  H18S 4648   2.861   1.613   8.708 -0.5328  0.8181  2.4794
   60SAPC  C219 4649   2.834   1.408   8.739  0.1314 -0.1511  0.0703
   60SAPC  H19R 4650   2.869   1.327   8.807 -2.8782 -1.2034  0.5240
   60SAPC  H19S 4651   2.841   1.389   8.629  3.8215  1.1820 -0.0311
   60SAPC  C220 4652   2.688   1.435   8.789  0.5412  1.3339 -0.4307
   60SAPC  H20R 4653   2.686   1.477   8.892  1.7115 -0.5277  0.4051
   60SAPC  H20S 4654   2.648   1.331   8.785  1.7101  0.9165 -2.2198
   60SAPC  H20T 4655   2.640   1.500   8.714  0.1873 -0.0498 -1.4349
   60SAPC   C33 4656   3.048   0.963   9.780 -0.0389  0.8492 -0.3111
   60SAPC   H3X 4657   2.967   0.918   9.842  0.1557 -0.1090 -0.7363
   60SAPC   H3Y 4658   3.128   0.887   9.774  0.1202  0.9563  0.4165
   60SAPC   C34 4659   2.990   1.012   9.648  0.2862  0.8189 -0.1752
   60SAPC   H4X 4660   3.074   1.050   9.587 -0.1243  0.0605 -1.2361
   60SAPC   H4Y 4661   2.928   1.102   9.665  1.1826  1.5503 -0.7178
   60SAPC   C35 4662   2.903   0.900   9.576 -0.1487  0.0771 -0.2131
   60SAPC   H5X 4663   2.814   0.945   9.526 -0.6430 -2.4964 -1.9093
   60SAPC   H5Y 4664   2.875   0.831   9.658  0.7699  0.3715  0.3521
   60SAPC   C36 4665   2.984   0.819   9.474 -0.0838  0.8692  0.3348
   60SAPC   H6X 4666   3.056   0.883   9.419  1.0012  0.7159  1.5253
   60SAPC   H6Y 4667   2.915   0.772   9.402  1.2865 -1.8933  0.6920
   60SAPC   C37 4668   3.064   0.700   9.537  0.3766 -0.2412 -0.7849
   60SAPC   H7X 4669   3.009   0.640   9.613  2.0815 -0.3124  0.4445
   60SAPC   H7Y 4670   3.142   0.750   9.597  0.5056 -2.0266  0.6336
   60SAPC   C38 4671   3.114   0.606   9.428  0.4105  0.5777  0.2990
   60SAPC   H8X 4672   3.034   0.536   9.396  0.6428  0.8255 -0.8882
   60SAPC   H8Y 4673   3.189   0.541   9.478 -0.7528 -0.0889  1.2105
   60SAPC   C39 4674   3.184   0.670   9.310 -0.2461 -0.0228 -0.1981
   60SAPC   H9X 4675   3.270   0.730   9.346  1.6849 -1.4967 -2.1345
   60SAPC   H9Y 4676   3.110   0.736   9.261  0.6128  1.2653  0.2023
   60SAPC  C310 4677   3.252   0.563   9.226  0.1840 -0.4418  0.0615
   60SAPC  H10X 4678   3.170   0.500   9.187  0.6716 -0.6462 -0.6577
   60SAPC  H10Y 4679   3.327   0.502   9.281  1.9946  1.1118 -0.5613
   60SAPC  C311 4680   3.341   0.630   9.119 -0.0393  0.3998  0.0755
   60SAPC  H11X 4681   3.440   0.655   9.162  1.5044 -2.5577 -1.4417
   60SAPC  H11Y 4682   3.290   0.720   9.078  1.4145  2.0869  1.7859
   60SAPC  C312 4683   3.379   0.526   9.008  0.1066  0.2358  0.2426
   60SAPC  H12X 4684   3.393   0.433   9.067  1.3558  0.2004 -0.0882
   60SAPC  H12Y 4685   3.478   0.547   8.963  0.1406 -1.2871 -0.4378
   60SAPC  C313 4686   3.284   0.518   8.894 -0.4640 -0.4698  0.0164
   60SAPC  H13X 4687   3.262   0.617   8.848  1.7947 -1.3033 -3.2861
   60SAPC  H13Y 4688   3.189   0.469   8.924 -1.8716  1.8426 -0.4373
   60SAPC  C314 4689   3.350   0.442   8.777 -0.0127  0.5414  0.3728
   60SAPC  H14X 4690   3.341   0.335   8.805 -1.0493  0.6589  0.5157
   60SAPC  H14Y 4691   3.458   0.467   8.773 -0.2603  1.9998  1.7442
   60SAPC  C315 4692   3.268   0.463   8.656  0.6680  0.2861 -0.9288
   60SAPC  H15X 4693   3.162   0.458   8.689  1.2484  0.1336  1.0279
   60SAPC  H15Y 4694   3.283   0.388   8.575 -2.1231  1.0016 -2.2450
   60SAPC  C316 4695   3.296   0.599   8.579  0.5464  0.6638  0.7881
   60SAPC  H16X 4696   3.402   0.607   8.547  1.1491 -2.9882  1.4145
   60SAPC  H16Y 4697   3.291   0.684   8.650  2.2206  2.8749 -1.5753
   60SAPC  C317 4698   3.215   0.634   8.455 -0.7209 -0.8003  0.1629
   60SAPC  H17X 4699   3.106   0.646   8.474 -0.3062  4.2440  0.6094
   60SAPC  H17Y 4700   3.218   0.549   8.383  0.6166 -1.4617  0.9459
   60SAPC  C318 4701   3.257   0.758   8.375 -0.0172  0.4028 -0.0935
   60SAPC  H18X 4702   3.274   0.843   8.444  1.5406 -0.6978  0.9432
   60SAPC  H18Y 4703   3.183   0.793   8.300 -2.0180 -0.1314  1.5351
   60SAPC  H18Z 4704   3.352   0.725   8.327  0.6741  0.9449  0.8726
   61SAPC     N 4705   3.800   5.805  10.820 -0.1343  0.4812  0.2411
   61SAPC   C12 4706   3.833   5.728  10.694 -0.6888 -0.2767 -0.2810
   61SAPC  H12A 4707   3.940   5.735  10.682 -0.7159 -0.9986 -1.0684
   61SAPC  H12B 4708   3.784   5.777  10.612 -2.3897 -2.4044 -0.6194
   61SAPC   C13 4709   3.848   5.950  10.810 -0.7742 -0.3648 -0.0831
   61SAPC  H13A 4710   3.793   6.010  10.739  1.0085  1.6016  0.1192
   61SAPC  H13B 4711   3.832   5.995  10.906  1.1646  0.7442 -0.2314
   61SAPC  H13C 4712   3.955   5.955  10.799 -0.7164 -2.6559 -1.2338
   61SAPC   C14 4713   3.648   5.804  10.843  0.3134 -0.3385  0.1952
   61SAPC  H14A 4714   3.612   5.704  10.829  0.3169 -0.4132  0.7084
   61SAPC  H14B 4715   3.626   5.848  10.939  1.7775  2.2570 -0.5650
   61SAPC  H14C 4716   3.595   5.871  10.776 -0.8302 -0.3576  1.0506
   61SAPC   C15 4717   3.855   5.733  10.941 -0.1146  0.4771  0.0765
   61SAPC  H15A 4718   3.836   5.629  10.919  1.6244 -0.1689  1.3319
   61SAPC  H15B 4719   3.962   5.723  10.955  0.1383  0.0451 -1.8254
   61SAPC  H15C 4720   3.796   5.759  11.028 -1.4028 -0.8851 -0.3502
   61SAPC   C11 4721   3.785   5.579  10.673  0.2225 -0.3418 -0.3768
   61SAPC  H11A 4722   3.826   5.568  10.570  1.7371 -2.7913  0.4206
   61SAPC  H11B 4723   3.674   5.576  10.669  0.2527 -1.3490 -0.7759
   61SAPC     P 4724   3.768   5.388  10.865 -0.2442  0.0501 -0.0335
   61SAPC   O13 4725   3.865   5.332  10.967  0.2251  0.2866  0.1764
   61SAPC   O14 4726   3.646   5.455  10.905 -0.0637  0.1578 -0.2897
   61SAPC   O12 4727   3.845   5.489  10.768 -0.1221  0.0833 -0.5934
   61SAPC   O11 4728   3.747   5.278  10.760 -0.0632  0.3636  0.6862
   61SAPC    C1 4729   3.849   5.219  10.683  0.4174 -0.3205  0.5358
   61SAPC    HA 4730   3.948   5.249  10.723  0.5273  0.3323 -0.2051
   61SAPC    HB 4731   3.842   5.110  10.700  0.7672 -0.0871  2.4568
   61SAPC    C2 4732   3.823   5.250  10.531 -0.6900 -0.0627 -0.0164
   61SAPC    HS 4733   3.826   5.361  10.535  0.9587 -0.1152  1.5130
   61SAPC   O21 4734   3.696   5.198  10.496  0.1552 -0.2844 -0.0629
   61SAPC   C21 4735   3.657   5.244  10.376  0.8323  0.2207 -0.0488
   61SAPC   O22 4736   3.720   5.326  10.313  0.1542  0.5337  0.8055
   61SAPC   C22 4737   3.522   5.191  10.342 -0.9166  0.8407 -0.8968
   61SAPC   H2R 4738   3.491   5.113  10.415 -1.5391  1.4108 -0.5472
   61SAPC   H2S 4739   3.438   5.263  10.336 -2.3776 -0.7356 -0.3375
   61SAPC    C3 4740   3.942   5.193  10.448 -0.3190  0.1046  0.1230
   61SAPC    HX 4741   4.039   5.223  10.491 -0.3077  1.7733 -0.9747
   61SAPC    HY 4742   3.941   5.233  10.344 -1.5399  0.1644  0.1419
   61SAPC   O31 4743   3.931   5.048  10.444 -0.2333 -0.0530 -0.1508
   61SAPC   C31 4744   4.044   4.974  10.416 -0.3412 -0.5147  0.2613
   61SAPC   O32 4745   4.155   5.018  10.390 -0.4538 -0.3819  0.4776
   61SAPC   C32 4746   4.008   4.827  10.413 -0.5159 -0.3636 -0.5522
   61SAPC   H2X 4747   3.925   4.795  10.480 -0.5281 -0.4990 -0.6325
   61SAPC   H2Y 4748   4.108   4.786  10.437 -1.2215 -1.4706  0.6047
   61SAPC   C23 4749   3.530   5.143  10.196 -0.7350  0.9726 -0.1638
   61SAPC   H3R 4750   3.487   5.041  10.189  1.3183 -0.1023  1.6059
   61SAPC   H3S 4751   3.637   5.126  10.172 -0.3047  1.7806  1.0821
   61SAPC   C24 4752   3.475   5.247  10.097 -0.7148 -0.1426  0.4543
   61SAPC   H4R 4753   3.541   5.247  10.007 -2.7906  0.8227 -1.1580
   61SAPC   H4S 4754   3.494   5.343  10.148  0.1878  0.0871 -0.2739
   61SAPC   C25 4755   3.337   5.204  10.060 -0.2963  0.4961  0.4281
   61SAPC   H5R 4756   3.282   5.175  10.150 -1.1400 -0.3716 -0.3487
   61SAPC   C26 4757   3.274   5.192   9.941 -0.4454  0.1156  0.3933
   61SAPC   H6R 4758   3.173   5.148   9.936 -0.1441 -0.4982 -0.6169
   61SAPC   C27 4759   3.350   5.222   9.813  1.2657 -0.7379  0.5821
   61SAPC   H7R 4760   3.301   5.163   9.732 -1.2584 -0.0349  1.5116
   61SAPC   H7S 4761   3.446   5.165   9.808  0.7341 -1.5979 -0.2919
   61SAPC   C28 4762   3.359   5.369   9.777 -0.4392  0.2105  0.3642
   61SAPC   H8R 4763   3.288   5.440   9.820 -1.9670  0.0958 -1.8169
   61SAPC   C29 4764   3.434   5.415   9.678  0.1513 -0.4962  0.1205
   61SAPC   H9R 4765   3.427   5.522   9.654  1.4009 -0.5448 -0.5401
   61SAPC  C210 4766   3.517   5.328   9.584  0.2076 -0.7184 -0.2298
   61SAPC  H10R 4767   3.451   5.243   9.560 -0.0797 -0.9950  1.3789
   61SAPC  H10S 4768   3.600   5.288   9.647 -0.4682  0.8401  1.7840
   61SAPC  C211 4769   3.583   5.386   9.463  0.6113 -0.3285 -0.3201
   61SAPC  H11R 4770   3.691   5.402   9.466  0.4854  0.4064  0.7198
   61SAPC  C212 4771   3.530   5.424   9.348  0.6800  0.1477 -0.6402
   61SAPC  H12R 4772   3.597   5.460   9.268  0.9897  0.1576 -0.3793
   61SAPC  C213 4773   3.383   5.426   9.311  0.1806  0.9338 -0.5037
   61SAPC  H13R 4774   3.354   5.533   9.298  0.3777  1.0188 -0.2565
   61SAPC  H13S 4775   3.317   5.389   9.392  1.5572  0.9145  0.6619
   61SAPC  C214 4776   3.370   5.343   9.188 -0.6327  0.2366  0.2650
   61SAPC  H14R 4777   3.387   5.235   9.196  1.3760  0.4690 -0.2901
   61SAPC  C215 4778   3.355   5.388   9.062 -0.2710  0.0466 -0.4634
   61SAPC  H15R 4779   3.358   5.315   8.979  2.5330  1.7781 -2.0548
   61SAPC  C216 4780   3.347   5.529   9.015  0.1135  0.7189  0.0085
   61SAPC  H16R 4781   3.393   5.540   8.914 -1.4583 -0.1767 -0.8509
   61SAPC  H16S 4782   3.385   5.595   9.096 -0.6658  1.7885 -0.4638
   61SAPC  C217 4783   3.206   5.568   8.982 -0.0962  0.0044 -0.1904
   61SAPC  H17R 4784   3.158   5.587   9.080 -0.9454 -3.0619  0.0799
   61SAPC  H17S 4785   3.157   5.495   8.914  0.0009  1.3560 -1.8002
   61SAPC  C218 4786   3.221   5.687   8.882  0.7190 -0.2269 -0.2906
   61SAPC  H18R 4787   3.257   5.651   8.783 -1.5320 -0.2945 -1.1321
   61SAPC  H18S 4788   3.296   5.746   8.940  0.5939 -0.0413 -0.3135
   61SAPC  C219 4789   3.091   5.762   8.861 -0.2092 -0.1796 -0.0103
   61SAPC  H19R 4790   3.059   5.803   8.959 -0.7898 -0.4335 -0.0926
   61SAPC  H19S 4791   3.021   5.695   8.806 -1.4329  2.2286 -1.5795
   61SAPC  C220 4792   3.114   5.896   8.788 -0.3679  0.2969  0.3747
   61SAPC  H20R 4793   3.128   5.871   8.680 -0.7410 -1.3566  0.6772
   61SAPC  H20S 4794   3.195   5.955   8.835  0.2659  0.3707 -0.7645
   61SAPC  H20T 4795   3.025   5.961   8.801 -0.7212 -0.0097 -0.4059
   61SAPC   C33 4796   3.969   4.780  10.273 -0.3640 -0.0726 -0.3360
   61SAPC   H3X 4797   3.972   4.669  10.281  1.5589 -0.1460 -1.6237
   61SAPC   H3Y 4798   4.045   4.807  10.197  4.1793 -1.0785  3.3408
   61SAPC   C34 4799   3.830   4.832  10.229  0.5656 -0.2079  0.6452
   61SAPC   H4X 4800   3.825   4.943  10.223  0.1596 -0.1660  1.6178
   61SAPC   H4Y 4801   3.753   4.811  10.307  0.0885  2.1098  0.8733
   61SAPC   C35 4802   3.771   4.756  10.103  0.4930  0.0484  0.0031
   61SAPC   H5X 4803   3.676   4.808  10.079  1.4360  3.0596  2.1505
   61SAPC   H5Y 4804   3.747   4.652  10.133  0.0130  0.3158  0.5722
   61SAPC   C36 4805   3.858   4.768   9.972 -0.2665  0.1401 -0.1846
   61SAPC   H6X 4806   3.804   4.719   9.889 -0.0511 -2.5260  1.1349
   61SAPC   H6Y 4807   3.950   4.708   9.992 -1.1507 -1.2883 -0.2247
   61SAPC   C37 4808   3.892   4.911   9.925  0.1182  0.7270 -0.6512
   61SAPC   H7X 4809   3.957   4.901   9.835  0.5574 -0.1692 -0.2504
   61SAPC   H7Y 4810   3.952   4.966  10.001 -0.4651  0.0730  0.3095
   61SAPC   C38 4811   3.766   4.992   9.888 -0.3263  0.5455 -0.0027
   61SAPC   H8X 4812   3.743   5.042   9.985  2.2619 -1.9117  2.0747
   61SAPC   H8Y 4813   3.688   4.927   9.842  1.2536 -1.4018 -0.0714
   61SAPC   C39 4814   3.787   5.109   9.793 -0.1939  0.3433 -0.5712
   61SAPC   H9X 4815   3.833   5.197   9.842 -1.8093  0.1474  1.4590
   61SAPC   H9Y 4816   3.684   5.138   9.761  0.1272  1.5554 -0.5802
   61SAPC  C310 4817   3.868   5.062   9.665  0.1859 -0.0067 -0.2917
   61SAPC  H10X 4818   3.841   4.961   9.627 -0.5031 -0.2171  0.7079
   61SAPC  H10Y 4819   3.975   5.072   9.693  0.3403 -1.5039 -0.2403
   61SAPC  C311 4820   3.849   5.154   9.541 -0.5562 -0.1415 -0.0059
   61SAPC  H11X 4821   3.883   5.258   9.562 -0.3745  0.1484 -1.6036
   61SAPC  H11Y 4822   3.742   5.146   9.510 -0.9667  0.4025  1.2194
   61SAPC  C312 4823   3.930   5.110   9.423 -0.3693 -0.0809  0.4234
   61SAPC  H12X 4824   3.911   5.004   9.394 -0.3895 -0.1378  0.6474
   61SAPC  H12Y 4825   4.036   5.134   9.446 -0.5136  0.5730  0.4324
   61SAPC  C313 4826   3.904   5.197   9.293  0.5582 -1.4427 -0.3704
   61SAPC  H13X 4827   3.955   5.295   9.300  2.0135 -2.2474  1.5177
   61SAPC  H13Y 4828   3.795   5.218   9.281  0.6379  0.7554  1.9492
   61SAPC  C314 4829   3.956   5.119   9.176 -0.6601  0.0212 -0.2004
   61SAPC  H14X 4830   3.884   5.037   9.155 -0.8260  0.1285 -0.0500
   61SAPC  H14Y 4831   4.058   5.078   9.188 -1.1781 -1.4666 -0.6170
   61SAPC  C315 4832   3.959   5.195   9.043  0.0165 -0.4917 -0.3297
   61SAPC  H15X 4833   3.993   5.121   8.968  0.6959 -0.5518  0.0342
   61SAPC  H15Y 4834   4.030   5.280   9.046 -0.2339 -0.2968  0.1948
   61SAPC  C316 4835   3.815   5.245   9.017 -0.2269 -0.2911 -0.1044
   61SAPC  H16X 4836   3.799   5.339   9.075 -1.0781  0.4919 -1.5343
   61SAPC  H16Y 4837   3.741   5.170   9.052  1.2014 -1.8111 -0.2535
   61SAPC  C317 4838   3.795   5.284   8.863 -0.4273  0.4665 -0.3155
   61SAPC  H17X 4839   3.799   5.186   8.810  1.6122  0.5007 -0.2834
   61SAPC  H17Y 4840   3.882   5.349   8.841  0.2352 -0.4301 -0.4253
   61SAPC  C318 4841   3.664   5.357   8.826 -0.1271 -0.4668 -0.4144
   61SAPC  H18X 4842   3.667   5.386   8.719 -0.6132 -1.2673 -0.6543
   61SAPC  H18Y 4843   3.654   5.441   8.897 -1.2915  0.8041 -2.0156
   61SAPC  H18Z 4844   3.584   5.279   8.830 -0.9877  0.4308  0.3367
   62SAPC     N 4845   3.425   5.111  10.896  0.1242  0.2046 -0.9386
   62SAPC   C12 4846   3.312   5.008  10.902  0.3534  0.2884  1.3915
   62SAPC  H12A 4847   3.214   5.053  10.910  0.2573  0.0129  1.8100
   62SAPC  H12B 4848   3.325   4.954  10.995 -1.6262 -2.4292  0.2442
   62SAPC   C13 4849   3.417   5.220  10.994  0.2093 -0.3942 -0.3799
   62SAPC  H13A 4850   3.439   5.179  11.092  0.2658  1.9686  0.6582
   62SAPC  H13B 4851   3.492   5.298  10.984  0.0354  0.2100  2.2356
   62SAPC  H13C 4852   3.319   5.264  11.003  1.1779  1.7670  0.2702
   62SAPC   C14 4853   3.557   5.052  10.899 -0.4072 -0.1106  0.4815
   62SAPC  H14A 4854   3.570   4.976  10.823 -2.0827  0.3267 -0.2982
   62SAPC  H14B 4855   3.636   5.126  10.900 -1.5589  1.1987 -0.7103
   62SAPC  H14C 4856   3.568   4.998  10.992  2.0105 -0.5008  0.0369
   62SAPC   C15 4857   3.428   5.183  10.768  0.3038 -0.7569 -0.1207
   62SAPC  H15A 4858   3.528   5.222  10.757  0.6755 -1.2525  1.2870
   62SAPC  H15B 4859   3.399   5.115  10.689  1.5707 -2.1842  0.6036
   62SAPC  H15C 4860   3.355   5.261  10.755  1.5976  0.6968  1.0458
   62SAPC   C11 4861   3.302   4.900  10.788 -0.4058  0.1555 -0.4191
   62SAPC  H11A 4862   3.241   4.816  10.828 -0.7489 -0.9923 -3.1608
   62SAPC  H11B 4863   3.407   4.868  10.771 -1.3854 -2.7694 -1.6005
   62SAPC     P 4864   3.093   4.978  10.659 -0.3364  0.0348  0.0304
   62SAPC   O13 4865   3.048   5.023  10.789  0.3143 -0.0488 -0.6813
   62SAPC   O14 4866   3.073   5.072  10.548  0.2084 -0.1136  0.1812
   62SAPC   O12 4867   3.252   4.947  10.665  0.6598  0.1809 -0.1517
   62SAPC   O11 4868   3.033   4.840  10.624 -0.4119  0.0437 -0.4138
   62SAPC    C1 4869   2.912   4.823  10.548  0.0108  0.3379  0.3900
   62SAPC    HA 4870   2.863   4.737  10.598  1.0160 -1.6226 -1.8233
   62SAPC    HB 4871   2.852   4.916  10.539 -0.7516 -0.1043  0.7878
   62SAPC    C2 4872   2.955   4.784  10.403 -0.4608 -0.3508  0.1687
   62SAPC    HS 4873   3.015   4.868  10.363 -2.8483  1.2349 -0.2262
   62SAPC   O21 4874   2.833   4.755  10.337  0.1314  0.4867  0.8745
   62SAPC   C21 4875   2.768   4.860  10.289 -0.4654 -0.2647 -0.2426
   62SAPC   O22 4876   2.821   4.969  10.263  0.3377 -0.8044 -0.0158
   62SAPC   C22 4877   2.615   4.829  10.278  0.2781 -0.5405 -0.2781
   62SAPC   H2R 4878   2.602   4.755  10.196  1.2653  0.1832 -1.1110
   62SAPC   H2S 4879   2.568   4.790  10.371 -0.6341  0.7490 -0.1819
   62SAPC    C3 4880   3.050   4.665  10.403  0.0854 -0.0103  0.0233
   62SAPC    HX 4881   2.994   4.579  10.446  2.5336 -0.1555  3.3569
   62SAPC    HY 4882   3.129   4.682  10.479  0.0831  1.3608 -0.2651
   62SAPC   O31 4883   3.109   4.627  10.277 -0.5985 -0.1710  0.0862
   62SAPC   C31 4884   3.223   4.687  10.243  0.1158  1.0320  0.5009
   62SAPC   O32 4885   3.293   4.765  10.306  0.0640  0.8999  0.5534
   62SAPC   C32 4886   3.269   4.640  10.104 -0.5928 -0.3417  0.3712
   62SAPC   H2X 4887   3.211   4.697  10.028 -0.2320  1.1568  1.1862
   62SAPC   H2Y 4888   3.255   4.530  10.099 -0.8230 -0.2991  0.0666
   62SAPC   C23 4889   2.538   4.957  10.244  0.1198 -0.1561  0.2663
   62SAPC   H3R 4890   2.573   5.006  10.150 -4.3614 -0.6992 -1.9810
   62SAPC   H3S 4891   2.560   5.030  10.325 -1.1532  0.7144 -0.1299
   62SAPC   C24 4892   2.388   4.946  10.248  0.2610  0.0790 -0.4256
   62SAPC   H4R 4893   2.359   4.917  10.351 -1.4794  0.9864 -0.6392
   62SAPC   H4S 4894   2.355   4.868  10.176  0.4030  0.4041 -0.8428
   62SAPC   C25 4895   2.322   5.078  10.204 -0.0079 -0.2819 -0.0196
   62SAPC   H5R 4896   2.279   5.138  10.286  0.7471 -0.3747  0.4570
   62SAPC   C26 4897   2.299   5.115  10.077 -0.3143 -0.5744 -0.4982
   62SAPC   H6R 4898   2.261   5.217  10.063 -1.0353 -0.5859  1.1837
   62SAPC   C27 4899   2.340   5.033   9.953 -0.3715  0.2798  0.5295
   62SAPC   H7R 4900   2.363   4.928   9.984 -0.0876  0.1355 -0.1514
   62SAPC   H7S 4901   2.432   5.089   9.925  0.4175 -1.7381 -1.2325
   62SAPC   C28 4902   2.235   5.030   9.845  0.1399 -0.1956  0.2828
   62SAPC   H8R 4903   2.144   4.972   9.866  0.2796 -1.1641 -1.5243
   62SAPC   C29 4904   2.229   5.106   9.738  0.9362  0.4761  0.4636
   62SAPC   H9R 4905   2.149   5.076   9.668  0.0497  1.6741  0.9216
   62SAPC  C210 4906   2.336   5.203   9.687  0.7409 -0.2345 -0.0823
   62SAPC  H10R 4907   2.377   5.261   9.772 -1.7246 -2.0823  2.5640
   62SAPC  H10S 4908   2.290   5.282   9.625 -1.9488 -0.8894  0.9541
   62SAPC  C211 4909   2.452   5.162   9.609  0.8428 -0.1495 -0.3627
   62SAPC  H11R 4910   2.548   5.172   9.662 -0.6346 -1.1835  2.7507
   62SAPC  C212 4911   2.452   5.110   9.485 -0.2089  0.2665  0.6350
   62SAPC  H12R 4912   2.546   5.081   9.436 -0.7600  2.6505 -2.0657
   62SAPC  C213 4913   2.333   5.076   9.397  0.4852  0.2892  0.4162
   62SAPC  H13R 4914   2.333   5.139   9.306  0.0673 -0.7766 -0.3519
   62SAPC  H13S 4915   2.236   5.098   9.448  0.4488 -1.4339  1.1636
   62SAPC  C214 4916   2.338   4.932   9.346  0.5947 -0.0152 -0.4836
   62SAPC  H14R 4917   2.311   4.863   9.427  0.9179  1.4177  0.9049
   62SAPC  C215 4918   2.382   4.882   9.233 -0.2254 -0.3608 -0.1601
   62SAPC  H15R 4919   2.388   4.774   9.215  0.9912 -0.3486  0.0687
   62SAPC  C216 4920   2.440   4.965   9.119  0.4765 -0.6123  0.0210
   62SAPC  H16R 4921   2.505   5.041   9.168 -0.0272 -1.2019  1.6502
   62SAPC  H16S 4922   2.364   5.033   9.073  1.2686  0.1343 -0.2191
   62SAPC  C217 4923   2.527   4.893   9.024  0.9269  0.0625  0.6411
   62SAPC  H17R 4924   2.458   4.823   8.972  0.4570  0.6129  0.5127
   62SAPC  H17S 4925   2.603   4.834   9.080 -0.2774  1.0310  3.4605
   62SAPC  C218 4926   2.582   4.982   8.911 -0.2628 -0.2259  0.4013
   62SAPC  H18R 4927   2.630   5.071   8.957  1.5752 -0.4866 -0.8675
   62SAPC  H18S 4928   2.494   5.012   8.851 -0.6145 -1.5878  0.2038
   62SAPC  C219 4929   2.685   4.904   8.834  0.2808  0.1562 -0.2033
   62SAPC  H19R 4930   2.635   4.813   8.795 -0.3673  0.7079 -0.6640
   62SAPC  H19S 4931   2.770   4.884   8.903  0.1065 -0.6841 -0.2210
   62SAPC  C220 4932   2.745   4.967   8.713  0.0597 -0.0607 -0.9059
   62SAPC  H20R 4933   2.793   5.058   8.755  3.8348 -2.7548  1.3731
   62SAPC  H20S 4934   2.669   4.995   8.637  1.1477 -1.1106 -2.4568
   62SAPC  H20T 4935   2.821   4.902   8.664 -0.3457 -0.4980 -0.9646
   62SAPC   C33 4936   3.417   4.674  10.071 -0.1431 -0.2840 -0.1120
   62SAPC   H3X 4937   3.495   4.614  10.122  1.6334  1.3407 -0.7810
   62SAPC   H3Y 4938   3.443   4.777  10.103 -0.9696 -0.5204  1.3867
   62SAPC   C34 4939   3.452   4.653   9.919 -0.1278 -0.3433 -0.3485
   62SAPC   H4X 4940   3.462   4.543   9.908  0.1081 -0.5717  1.6537
   62SAPC   H4Y 4941   3.554   4.688   9.895  0.1147  1.0094  2.2745
   62SAPC   C35 4942   3.360   4.712   9.812 -0.3787 -0.0291  0.3043
   62SAPC   H5X 4943   3.357   4.822   9.829 -4.2534 -0.0912  0.9767
   62SAPC   H5Y 4944   3.253   4.689   9.830 -0.1311 -1.2756  0.2564
   62SAPC   C36 4945   3.412   4.693   9.664  0.3518  0.6643 -0.2369
   62SAPC   H6X 4946   3.410   4.582   9.650 -4.3274  0.6612 -1.0441
   62SAPC   H6Y 4947   3.519   4.721   9.656  0.9429 -1.1723  0.6885
   62SAPC   C37 4948   3.345   4.765   9.556  0.2496 -0.6686 -0.9861
   62SAPC   H7X 4949   3.244   4.790   9.595  0.8806 -0.3196  0.5232
   62SAPC   H7Y 4950   3.340   4.724   9.453 -0.4291 -2.0067 -0.4435
   62SAPC   C38 4951   3.406   4.907   9.527  1.0053  0.3494 -0.1776
   62SAPC   H8X 4952   3.397   4.955   9.627 -0.7742  0.2059 -0.2303
   62SAPC   H8Y 4953   3.331   4.962   9.465 -0.6924 -0.6004  0.9525
   62SAPC   C39 4954   3.550   4.925   9.469  0.3257  0.1830  0.2962
   62SAPC   H9X 4955   3.623   4.875   9.536  0.4023  0.2745  0.2818
   62SAPC   H9Y 4956   3.564   5.035   9.460 -0.4795  0.2860  0.2163
   62SAPC  C310 4957   3.571   4.848   9.339  0.1515 -0.4774  0.7180
   62SAPC  H10X 4958   3.558   4.739   9.357 -0.4162 -0.7161 -0.9269
   62SAPC  H10Y 4959   3.676   4.867   9.308 -0.4111 -0.4909 -1.3519
   62SAPC  C311 4960   3.481   4.907   9.223 -0.3566  0.6689 -0.2415
   62SAPC  H11X 4961   3.481   5.015   9.247  0.2783  0.7756 -0.7245
   62SAPC  H11Y 4962   3.376   4.873   9.235 -0.0675 -0.8359 -1.6098
   62SAPC  C312 4963   3.525   4.885   9.077 -0.8304 -0.3615 -0.0254
   62SAPC  H12X 4964   3.514   4.778   9.053  1.2711 -0.1712 -2.1638
   62SAPC  H12Y 4965   3.634   4.902   9.066 -0.1997 -2.0618  2.6200
   62SAPC  C313 4966   3.451   4.975   8.982  0.6765  0.7059  0.0655
   62SAPC  H13X 4967   3.497   5.076   8.988  0.1919  0.9045  0.4635
   62SAPC  H13Y 4968   3.349   4.992   9.022 -0.2448 -0.8412 -1.4643
   62SAPC  C314 4969   3.448   4.921   8.846  1.0852  0.4194  0.1015
   62SAPC  H14X 4970   3.380   4.834   8.840  0.1474  1.0972  0.5348
   62SAPC  H14Y 4971   3.550   4.883   8.823  1.9196  1.1289  2.3470
   62SAPC  C315 4972   3.421   5.020   8.728  0.1324 -0.1930  0.6046
   62SAPC  H15X 4973   3.491   5.106   8.735 -2.0422  1.6156  1.0230
   62SAPC  H15Y 4974   3.317   5.057   8.735  0.1367  1.0949 -3.4945
   62SAPC  C316 4975   3.423   4.946   8.591  0.3902  0.1535  0.0715
   62SAPC  H16X 4976   3.332   4.883   8.599  0.7248 -0.5472 -1.3458
   62SAPC  H16Y 4977   3.516   4.885   8.589  0.5394  0.3939 -0.4264
   62SAPC  C317 4978   3.422   5.039   8.470 -0.3154  0.1592  0.5424
   62SAPC  H17X 4979   3.434   4.968   8.385  0.1590  0.4469  0.3681
   62SAPC  H17Y 4980   3.502   5.116   8.463 -2.4603  2.4232 -0.9074
   62SAPC  C318 4981   3.297   5.117   8.439 -0.8196  0.3514  0.7738
   62SAPC  H18X 4982   3.308   5.218   8.483  0.3340  0.3984  0.3910
   62SAPC  H18Y 4983   3.206   5.062   8.472  0.5703 -2.1867  0.6270
   62SAPC  H18Z 4984   3.288   5.141   8.331 -0.0853 -2.4269  0.0232
   63SAPC     N 4985   1.399   5.228   6.258 -0.2765 -0.5648  0.4360
   63SAPC   C12 4986   1.543   5.274   6.266 -0.2889  0.1732 -0.2966
   63SAPC  H12A 4987   1.559   5.376   6.234 -0.3471  0.8472  1.7334
   63SAPC  H12B 4988   1.600   5.210   6.200  0.6351  1.9900 -1.3252
   63SAPC   C13 4989   1.308   5.333   6.320 -0.2621 -0.2101 -0.0616
   63SAPC  H13A 4990   1.311   5.424   6.262 -0.4814 -0.0612  0.1576
   63SAPC  H13B 4991   1.206   5.300   6.315 -0.3361 -0.0445  0.3507
   63SAPC  H13C 4992   1.328   5.351   6.425 -1.0552 -0.5489  0.1589
   63SAPC   C14 4993   1.358   5.217   6.110 -0.1913  0.2500 -0.5739
   63SAPC  H14A 4994   1.374   5.307   6.054 -0.2572  0.1403 -0.7705
   63SAPC  H14B 4995   1.424   5.158   6.048 -0.0495 -0.4097  0.1907
   63SAPC  H14C 4996   1.260   5.174   6.096  0.3627 -0.8929 -1.1180
   63SAPC   C15 4997   1.374   5.092   6.319 -0.1163 -0.2449 -0.8268
   63SAPC  H15A 4998   1.416   5.014   6.258 -2.7002 -0.9797 -1.7736
   63SAPC  H15B 4999   1.413   5.086   6.419 -3.0538  0.1569  0.4160
   63SAPC  H15C 5000   1.270   5.066   6.331 -0.0763  0.5217  1.7751
   63SAPC   C11 5001   1.610   5.257   6.403 -0.2853  0.3868  0.0439
   63SAPC  H11A 5002   1.554   5.312   6.482  0.1889 -0.1509  0.7731
   63SAPC  H11B 5003   1.703   5.316   6.392  0.3688 -0.5933  0.1611
   63SAPC     P 5004   1.765   5.051   6.386  0.0715 -0.0420 -0.4055
   63SAPC   O13 5005   1.749   4.909   6.422  0.1060 -0.2945  0.1583
   63SAPC   O14 5006   1.774   5.079   6.241 -0.4904  0.0847 -0.1664
   63SAPC   O12 5007   1.639   5.124   6.445  0.0232  0.5930  0.8484
   63SAPC   O11 5008   1.883   5.116   6.465  0.3905 -0.1308  0.2033
   63SAPC    C1 5009   1.879   5.161   6.600  0.1678  0.1940  0.1065
   63SAPC    HA 5010   1.935   5.257   6.605  1.1145 -0.4129  2.7943
   63SAPC    HB 5011   1.775   5.193   6.625  0.2178  1.0445 -0.7115
   63SAPC    C2 5012   1.930   5.053   6.703  0.2230 -0.6978 -0.6841
   63SAPC    HS 5013   1.866   4.961   6.696 -0.0334 -0.4239 -2.8018
   63SAPC   O21 5014   1.926   5.108   6.832  0.6435  0.1405  0.1899
   63SAPC   C21 5015   1.806   5.116   6.892 -0.3493 -0.5062 -0.1515
   63SAPC   O22 5016   1.698   5.093   6.840 -0.2712 -0.5090  0.4062
   63SAPC   C22 5017   1.825   5.154   7.043 -0.1148  0.4991  0.1613
   63SAPC   H2R 5018   1.900   5.081   7.080 -0.5046 -0.4710 -0.8800
   63SAPC   H2S 5019   1.863   5.257   7.059 -2.6241  1.4675  0.2988
   63SAPC    C3 5020   2.076   5.006   6.668 -0.4365  0.0051 -0.6539
   63SAPC    HX 5021   2.138   5.094   6.640 -0.2953 -0.4386 -1.8168
   63SAPC    HY 5022   2.066   4.943   6.577 -0.0820  0.0331 -0.7156
   63SAPC   O31 5023   2.133   4.927   6.774 -0.0745 -0.6792 -0.4771
   63SAPC   C31 5024   2.097   4.798   6.788  0.2990  0.1273 -0.0664
   63SAPC   O32 5025   2.017   4.743   6.716 -0.4427 -0.4494  0.0992
   63SAPC   C32 5026   2.164   4.735   6.914  0.8627 -0.1066 -0.0722
   63SAPC   H2X 5027   2.273   4.755   6.902  1.5554 -1.6577  2.8318
   63SAPC   H2Y 5028   2.147   4.625   6.906 -3.6220  0.3106  0.9835
   63SAPC   C23 5029   1.701   5.142   7.124  0.2285  0.3363 -0.5788
   63SAPC   H3R 5030   1.656   5.041   7.111  0.8002  0.1274 -0.9935
   63SAPC   H3S 5031   1.629   5.218   7.087  1.7320  1.5560 -1.1193
   63SAPC   C24 5032   1.730   5.180   7.268 -0.0941 -0.3506  0.5497
   63SAPC   H4R 5033   1.635   5.223   7.308 -0.5813 -2.3068  1.6423
   63SAPC   H4S 5034   1.795   5.270   7.272 -1.0791  0.3805  0.5878
   63SAPC   C25 5035   1.773   5.072   7.358  0.4099  0.2393 -0.0407
   63SAPC   H5R 5036   1.825   4.988   7.310 -0.9823 -0.4408 -0.4231
   63SAPC   C26 5037   1.759   5.059   7.492 -0.1622 -1.1497  0.4359
   63SAPC   H6R 5038   1.791   4.963   7.536  0.2702 -1.1698  0.0941
   63SAPC   C27 5039   1.698   5.162   7.578  0.4581 -0.4452  0.1439
   63SAPC   H7R 5040   1.602   5.123   7.617  0.7616 -2.1644 -0.7087
   63SAPC   H7S 5041   1.672   5.252   7.518  0.7565  0.2191  0.9844
   63SAPC   C28 5042   1.788   5.211   7.687 -0.3382  0.0674  0.1687
   63SAPC   H8R 5043   1.835   5.306   7.657  1.4081 -0.4393  1.1835
   63SAPC   C29 5044   1.783   5.198   7.821  0.1800  0.2475  0.5225
   63SAPC   H9R 5045   1.859   5.235   7.891  1.4214 -0.5001 -0.3971
   63SAPC  C210 5046   1.684   5.117   7.902 -0.2805  0.1119  0.8740
   63SAPC  H10R 5047   1.724   5.017   7.927  2.4403  0.6229 -0.9391
   63SAPC  H10S 5048   1.586   5.106   7.851  0.1752 -2.1450  0.3807
   63SAPC  C211 5049   1.653   5.183   8.036  0.5058 -0.2750 -0.1167
   63SAPC  H11R 5050   1.553   5.227   8.046  0.3380 -0.1762 -1.9037
   63SAPC  C212 5051   1.727   5.180   8.152  0.2401  1.1184 -0.2218
   63SAPC  H12R 5052   1.703   5.231   8.246 -1.3147  1.1737 -0.6242
   63SAPC  C213 5053   1.863   5.105   8.169  0.0679  0.7306 -0.5825
   63SAPC  H13R 5054   1.917   5.088   8.074  1.7037 -0.2848  0.4834
   63SAPC  H13S 5055   1.849   4.998   8.197  0.9017  1.0973  1.4043
   63SAPC  C214 5056   1.943   5.178   8.276 -0.8430  0.1276  0.8980
   63SAPC  H14R 5057   1.980   5.278   8.249 -2.3355  0.2112 -1.0771
   63SAPC  C215 5058   1.966   5.134   8.403  0.2438 -0.0514 -0.3200
   63SAPC  H15R 5059   2.033   5.188   8.472 -1.8536 -0.9696  2.6132
   63SAPC  C216 5060   1.913   5.002   8.456 -0.2601 -0.3107  0.1867
   63SAPC  H16R 5061   1.983   4.966   8.534 -0.1275 -1.9871 -0.6593
   63SAPC  H16S 5062   1.904   4.922   8.379 -1.1784 -2.3362  2.2738
   63SAPC  C217 5063   1.767   5.023   8.509  0.1768 -0.3937 -0.6781
   63SAPC  H17R 5064   1.729   4.927   8.550 -4.0053  1.4942  0.4425
   63SAPC  H17S 5065   1.698   5.049   8.426 -1.7686  1.5937  1.4166
   63SAPC  C218 5066   1.754   5.119   8.627  0.6341  0.3585 -0.0843
   63SAPC  H18R 5067   1.646   5.128   8.650  0.6053  1.0846 -0.4993
   63SAPC  H18S 5068   1.779   5.219   8.586 -0.6835  0.6077 -0.3112
   63SAPC  C219 5069   1.824   5.081   8.750 -0.1344 -0.5262  0.2265
   63SAPC  H19R 5070   1.927   5.051   8.723  0.6041 -1.0280  3.1754
   63SAPC  H19S 5071   1.776   4.994   8.801  0.3046 -1.6680 -1.2383
   63SAPC  C220 5072   1.826   5.196   8.849 -0.1512  0.6645  0.6117
   63SAPC  H20R 5073   1.851   5.284   8.786 -0.6855 -1.1974 -2.3842
   63SAPC  H20S 5074   1.906   5.184   8.925  2.1909  0.6856 -1.6996
   63SAPC  H20T 5075   1.724   5.209   8.889  0.0459  2.6342  0.5641
   63SAPC   C33 5076   2.119   4.793   7.045 -0.5299  0.7607  0.2533
   63SAPC   H3X 5077   2.010   4.816   7.043 -0.4551  1.1237  0.3472
   63SAPC   H3Y 5078   2.170   4.890   7.057 -0.8950  0.9473  0.3132
   63SAPC   C34 5079   2.152   4.705   7.173  0.5231 -0.3568 -0.8393
   63SAPC   H4X 5080   2.261   4.709   7.191  0.6290  3.2455 -1.4791
   63SAPC   H4Y 5081   2.146   4.595   7.160 -0.7094 -0.7366  2.1928
   63SAPC   C35 5082   2.065   4.756   7.288 -0.5734 -0.8867 -0.3451
   63SAPC   H5X 5083   1.975   4.692   7.298 -0.9253 -0.7460 -2.1915
   63SAPC   H5Y 5084   2.020   4.855   7.262 -2.5341 -1.4827  0.6039
   63SAPC   C36 5085   2.136   4.758   7.422  0.1617  0.3316 -0.3041
   63SAPC   H6X 5086   2.241   4.793   7.411  0.6529 -0.7576  0.6707
   63SAPC   H6Y 5087   2.144   4.653   7.459  0.1187  1.1026  2.0388
   63SAPC   C37 5088   2.047   4.835   7.528 -0.6005  0.3312 -0.6484
   63SAPC   H7X 5089   1.957   4.780   7.562 -0.4635  0.5301  0.0447
   63SAPC   H7Y 5090   2.013   4.931   7.484  1.2198  1.3279  0.0193
   63SAPC   C38 5091   2.114   4.867   7.657  0.1629  0.4327  0.0017
   63SAPC   H8X 5092   2.211   4.921   7.650  2.5763 -3.3800  1.1039
   63SAPC   H8Y 5093   2.156   4.771   7.691  1.6092  0.5782 -1.2468
   63SAPC   C39 5094   2.022   4.922   7.764  0.2803 -0.3371  0.1418
   63SAPC   H9X 5095   1.940   4.857   7.801  0.7871 -1.6404 -0.9793
   63SAPC   H9Y 5096   1.967   5.007   7.718 -3.1345 -2.9527 -0.9667
   63SAPC  C310 5097   2.103   4.971   7.890  0.4043 -0.2431  0.0595
   63SAPC  H10X 5098   2.073   5.075   7.915  1.3940  0.3643 -1.1514
   63SAPC  H10Y 5099   2.208   4.984   7.857 -0.4837 -0.4013 -3.1848
   63SAPC  C311 5100   2.096   4.873   8.007  0.2250  0.6759  0.6690
   63SAPC  H11X 5101   2.130   4.777   7.964 -0.7584 -0.2078  1.8102
   63SAPC  H11Y 5102   1.993   4.852   8.044  1.0554 -1.0358  2.1057
   63SAPC  C312 5103   2.176   4.904   8.127  0.3627  0.0763 -0.0273
   63SAPC  H12X 5104   2.149   5.000   8.176 -0.3773  0.0755 -0.4127
   63SAPC  H12Y 5105   2.281   4.922   8.096  1.0469 -3.2829 -0.0211
   63SAPC  C313 5106   2.180   4.796   8.243  0.2729  0.3477  0.3277
   63SAPC  H13X 5107   2.071   4.787   8.265 -0.3225  3.0471 -1.1878
   63SAPC  H13Y 5108   2.227   4.834   8.337  0.8415  1.7712 -0.5078
   63SAPC  C314 5109   2.241   4.662   8.192  0.3888 -0.3754 -0.8893
   63SAPC  H14X 5110   2.342   4.679   8.146  1.1698 -1.5212  0.3370
   63SAPC  H14Y 5111   2.180   4.606   8.118  1.0620 -0.7933 -1.1399
   63SAPC  C315 5112   2.273   4.559   8.296  0.0049 -0.7928 -0.0283
   63SAPC  H15X 5113   2.345   4.596   8.373  1.0391 -1.7261 -0.5161
   63SAPC  H15Y 5114   2.331   4.477   8.248  2.8248  1.3625 -0.6063
   63SAPC  C316 5115   2.142   4.502   8.367 -0.2333 -0.1181 -0.2079
   63SAPC  H16X 5116   2.049   4.497   8.307 -0.9510  0.3971  0.8170
   63SAPC  H16Y 5117   2.117   4.575   8.447 -1.3651 -0.6092 -0.1015
   63SAPC  C317 5118   2.179   4.366   8.432 -0.3780 -0.1142  0.4008
   63SAPC  H17X 5119   2.281   4.381   8.473 -1.1676 -1.8233  3.2593
   63SAPC  H17Y 5120   2.176   4.299   8.343 -0.3284 -0.4823  0.6781
   63SAPC  C318 5121   2.090   4.321   8.543  0.2729  0.4469  0.8053
   63SAPC  H18X 5122   1.983   4.335   8.519 -0.1571 -1.4996  1.3801
   63SAPC  H18Y 5123   2.113   4.380   8.634 -0.2225  1.2812  0.3927
   63SAPC  H18Z 5124   2.108   4.212   8.560 -1.3136 -0.0802 -0.6021
   64SAPC     N 5125   4.397   1.422   5.986 -0.5243  0.5926 -0.8228
   64SAPC   C12 5126   4.405   1.267   6.014 -0.2805 -0.9270  0.3672
   64SAPC  H12A 5127   4.357   1.218   5.930  1.4256 -0.4763 -0.9440
   64SAPC  H12B 5128   4.329   1.243   6.087  0.5458  1.5994  2.2130
   64SAPC   C13 5129   4.423   1.502   6.112  0.3309  0.2371  0.3716
   64SAPC  H13A 5130   4.353   1.472   6.189  1.1418 -0.0054  1.0265
   64SAPC  H13B 5131   4.523   1.480   6.147  0.5417 -0.2280 -0.4887
   64SAPC  H13C 5132   4.407   1.607   6.094  1.5303  0.6552  1.6021
   64SAPC   C14 5133   4.495   1.448   5.877  0.4622  0.4145  0.4171
   64SAPC  H14A 5134   4.473   1.397   5.784  1.4387  1.8641 -0.6560
   64SAPC  H14B 5135   4.493   1.553   5.853  1.2520  0.4955  0.6633
   64SAPC  H14C 5136   4.595   1.424   5.912  0.4745 -0.4544 -0.1672
   64SAPC   C15 5137   4.258   1.450   5.930  0.3914  1.0955 -0.1725
   64SAPC  H15A 5138   4.187   1.430   6.009 -0.8062  0.7846 -1.2836
   64SAPC  H15B 5139   4.256   1.554   5.902 -0.5055  0.9212 -0.8115
   64SAPC  H15C 5140   4.233   1.394   5.841 -1.0196 -0.9254  1.3942
   64SAPC   C11 5141   4.545   1.197   6.032  0.0741 -0.8717  0.1734
   64SAPC  H11A 5142   4.535   1.093   6.070 -0.7338 -1.0278 -0.4391
   64SAPC  H11B 5143   4.594   1.255   6.113 -0.1050 -2.1833  1.2636
   64SAPC     P 5144   4.781   1.210   5.906 -0.1459  0.1463  0.2922
   64SAPC   O13 5145   4.852   1.150   5.791  0.2952  0.3258 -0.1525
   64SAPC   O14 5146   4.824   1.353   5.922  0.0752 -0.1707 -0.6391
   64SAPC   O12 5147   4.622   1.201   5.906 -0.2941  0.2369  0.9619
   64SAPC   O11 5148   4.825   1.142   6.041 -0.0471 -0.7538  0.0535
   64SAPC    C1 5149   4.837   1.003   6.032 -0.2687  0.6993  0.0093
   64SAPC    HA 5150   4.766   0.945   5.969 -0.0116 -1.1556  1.3364
   64SAPC    HB 5151   4.941   0.985   6.000 -0.3679  1.2044 -0.6010
   64SAPC    C2 5152   4.817   0.933   6.168  0.1160 -0.5522  0.1815
   64SAPC    HS 5153   4.708   0.913   6.178 -0.4628  1.2926 -1.5735
   64SAPC   O21 5154   4.874   1.018   6.273 -0.6524 -0.0895  0.0564
   64SAPC   C21 5155   4.788   1.100   6.328 -0.2034  0.0423 -0.7135
   64SAPC   O22 5156   4.674   1.111   6.294  0.8047 -0.4628 -0.7480
   64SAPC   C22 5157   4.849   1.173   6.443 -0.2940 -0.3590  0.5094
   64SAPC   H2R 5158   4.939   1.116   6.473 -0.0303  0.0020  0.4183
   64SAPC   H2S 5159   4.883   1.272   6.405 -0.9246 -0.1179  0.5549
   64SAPC    C3 5160   4.888   0.798   6.175  1.0571  0.6817  0.5185
   64SAPC    HX 5161   4.998   0.798   6.157  1.1525 -1.1218  0.8809
   64SAPC    HY 5162   4.855   0.733   6.091 -0.7257 -0.7022  2.2048
   64SAPC   O31 5163   4.869   0.728   6.300  0.5289  0.0397 -0.1728
   64SAPC   C31 5164   4.771   0.649   6.329 -0.2358  0.2411  0.4799
   64SAPC   O32 5165   4.683   0.624   6.254  0.6514  0.0488  0.0630
   64SAPC   C32 5166   4.789   0.585   6.468  0.3516 -0.0959  0.4711
   64SAPC   H2X 5167   4.793   0.662   6.548  1.7149 -1.9515  2.3110
   64SAPC   H2Y 5168   4.884   0.527   6.461  1.0413  1.0513 -0.0204
   64SAPC   C23 5169   4.755   1.191   6.562 -0.0271 -0.3101 -0.0022
   64SAPC   H3R 5170   4.731   1.087   6.594 -1.0171 -0.7767 -2.1022
   64SAPC   H3S 5171   4.662   1.244   6.532 -1.3653  0.7402  5.0365
   64SAPC   C24 5172   4.823   1.263   6.683 -0.3146  0.6926  0.0584
   64SAPC   H4R 5173   4.851   1.365   6.649 -1.1765  1.0101  0.2701
   64SAPC   H4S 5174   4.924   1.225   6.710 -0.1302  0.6842 -0.6089
   64SAPC   C25 5175   4.728   1.267   6.798 -0.1139 -0.9022  0.3104
   64SAPC   H5R 5176   4.622   1.283   6.774  0.3945  0.2179 -1.3307
   64SAPC   C26 5177   4.761   1.261   6.926 -1.0040 -0.1328  0.1685
   64SAPC   H6R 5178   4.677   1.278   6.996 -1.8021  0.0082 -0.7931
   64SAPC   C27 5179   4.899   1.257   6.984 -0.1228 -0.3348 -0.2841
   64SAPC   H7R 5180   4.924   1.362   7.013 -0.5400  0.1465 -1.6059
   64SAPC   H7S 5181   4.971   1.235   6.902  0.7734  0.9174  0.1188
   64SAPC   C28 5182   4.909   1.165   7.106  0.4749 -0.8431  0.8677
   64SAPC   H8R 5183   4.862   1.067   7.086 -1.1919  0.3362 -1.5528
   64SAPC   C29 5184   4.970   1.191   7.223 -0.0080 -0.3245  0.3881
   64SAPC   H9R 5185   4.976   1.119   7.306 -0.1944 -1.0577 -0.2268
   64SAPC  C210 5186   5.030   1.323   7.255 -0.3239 -0.1438 -0.5836
   64SAPC  H10R 5187   4.946   1.391   7.283 -0.2875  0.5386 -2.0749
   64SAPC  H10S 5188   5.085   1.367   7.169 -0.6806  0.2587 -0.6090
   64SAPC  C211 5189   5.112   1.332   7.377  0.5997 -0.0273  0.2379
   64SAPC  H11R 5190   5.158   1.234   7.397  0.6567  0.2393  1.5125
   64SAPC  C212 5191   5.124   1.433   7.464  0.4176 -0.7701 -0.0879
   64SAPC  H12R 5192   5.182   1.417   7.556 -0.7767  0.6212  0.9771
   64SAPC  C213 5193   5.065   1.574   7.455 -0.2967  0.3455 -0.1215
   64SAPC  H13R 5194   4.967   1.569   7.508 -0.9064 -3.7470 -1.2742
   64SAPC  H13S 5195   5.039   1.599   7.351  0.1068 -0.3978 -0.4146
   64SAPC  C214 5196   5.153   1.684   7.514 -0.6555  0.3446 -0.0366
   64SAPC  H14R 5197   5.219   1.727   7.437 -0.9709  1.3368  0.2318
   64SAPC  C215 5198   5.157   1.740   7.640  0.0498  0.1282  0.6075
   64SAPC  H15R 5199   5.228   1.818   7.669  0.0792 -0.4479  2.1859
   64SAPC  C216 5200   5.060   1.704   7.751  0.7580  0.2063  0.4065
   64SAPC  H16R 5201   4.990   1.624   7.719  0.2285  0.9984 -0.4519
   64SAPC  H16S 5202   5.000   1.798   7.753  2.3833  1.2876  0.5365
   64SAPC  C217 5203   5.116   1.667   7.885  0.2891 -0.0873 -0.0426
   64SAPC  H17R 5204   5.160   1.758   7.932 -2.1332  1.4612 -0.5588
   64SAPC  H17S 5205   5.195   1.591   7.866  0.2519 -0.1444  0.0310
   64SAPC  C218 5206   5.012   1.602   7.974 -0.6638  0.0340  0.0792
   64SAPC  H18R 5207   4.974   1.520   7.908 -0.3587 -0.4404  0.4836
   64SAPC  H18S 5208   4.925   1.667   7.996 -0.2927  0.4050  0.4600
   64SAPC  C219 5209   5.076   1.533   8.092  0.5192  0.1531 -0.5646
   64SAPC  H19R 5210   5.127   1.614   8.149  0.4195  1.1348 -1.8122
   64SAPC  H19S 5211   5.146   1.454   8.057 -1.8004 -0.6408 -3.7870
   64SAPC  C220 5212   4.978   1.470   8.184  0.4134 -0.1413  0.6119
   64SAPC  H20R 5213   4.920   1.392   8.131 -2.6710  1.6123  1.1907
   64SAPC  H20S 5214   4.913   1.549   8.228  0.6105 -0.9556  2.4804
   64SAPC  H20T 5215   5.029   1.417   8.267  0.3487 -0.1914  0.6194
   64SAPC   C33 5216   4.675   0.481   6.508 -0.4526 -0.0394 -0.5114
   64SAPC   H3X 5217   4.662   0.410   6.423 -0.2976  0.7098 -1.1720
   64SAPC   H3Y 5218   4.587   0.547   6.518  1.5747  2.7677 -0.1030
   64SAPC   C34 5219   4.702   0.416   6.651 -0.3839  0.7544 -0.0411
   64SAPC   H4X 5220   4.797   0.362   6.632 -0.9995  0.2247 -1.9006
   64SAPC   H4Y 5221   4.631   0.337   6.684 -3.0285  2.8018 -0.4444
   64SAPC   C35 5222   4.708   0.511   6.770 -0.2886 -0.7436  0.4552
   64SAPC   H5X 5223   4.609   0.559   6.782  0.1555  0.3724 -0.2109
   64SAPC   H5Y 5224   4.777   0.595   6.748  0.2592 -1.3343 -0.1596
   64SAPC   C36 5225   4.761   0.441   6.899  0.1867 -0.2892  0.2385
   64SAPC   H6X 5226   4.872   0.441   6.899  0.1986  0.6500  0.4453
   64SAPC   H6Y 5227   4.723   0.337   6.889  0.3593 -0.1867 -2.0518
   64SAPC   C37 5228   4.702   0.517   7.023 -0.6852  0.9480  0.2908
   64SAPC   H7X 5229   4.592   0.507   7.020 -0.5836 -0.3209 -2.1490
   64SAPC   H7Y 5230   4.738   0.622   7.023 -1.8474  1.3681 -0.2987
   64SAPC   C38 5231   4.758   0.448   7.149 -0.0133  0.3248 -0.7023
   64SAPC   H8X 5232   4.868   0.433   7.157 -0.0427  0.6886  0.8215
   64SAPC   H8Y 5233   4.709   0.348   7.149  2.0428 -0.8017  1.4549
   64SAPC   C39 5234   4.710   0.521   7.273 -0.0798 -0.2768 -0.6348
   64SAPC   H9X 5235   4.599   0.524   7.270 -0.1215  1.1644  0.9960
   64SAPC   H9Y 5236   4.746   0.625   7.266  1.0866 -0.7477 -2.1603
   64SAPC  C310 5237   4.753   0.463   7.411  0.8868 -0.1314  0.2814
   64SAPC  H10X 5238   4.864   0.460   7.414  0.8703 -0.9788  0.2844
   64SAPC  H10Y 5239   4.728   0.355   7.423  0.6635 -0.0317  0.7265
   64SAPC  C311 5240   4.713   0.552   7.528  0.3574 -0.6422 -0.2533
   64SAPC  H11X 5241   4.603   0.566   7.516  0.4638 -0.9610 -1.8147
   64SAPC  H11Y 5242   4.760   0.653   7.522 -2.0305  0.4898 -1.2835
   64SAPC  C312 5243   4.725   0.480   7.658  0.7928  0.7316  0.1205
   64SAPC  H12X 5244   4.828   0.459   7.692  1.5897  2.6554 -0.9187
   64SAPC  H12Y 5245   4.690   0.375   7.648 -0.8921  1.3088 -0.4481
   64SAPC  C313 5246   4.666   0.542   7.786  0.6399  0.0071 -0.0709
   64SAPC  H13X 5247   4.561   0.570   7.766  0.5149 -1.5772 -1.7536
   64SAPC  H13Y 5248   4.720   0.635   7.816 -0.1975  0.3741  0.3303
   64SAPC  C314 5249   4.678   0.456   7.906  0.0741  0.1794 -0.7865
   64SAPC  H14X 5250   4.785   0.423   7.906 -0.0278 -0.1907  0.1461
   64SAPC  H14Y 5251   4.622   0.360   7.903  1.7923 -0.9785  1.2152
   64SAPC  C315 5252   4.635   0.528   8.037  0.0663  0.0093  0.1143
   64SAPC  H15X 5253   4.531   0.564   8.027  0.0283  0.3825  1.6639
   64SAPC  H15Y 5254   4.697   0.619   8.051  0.2701  0.0939 -1.2048
   64SAPC  C316 5255   4.646   0.445   8.168 -0.5876 -0.2503  0.0893
   64SAPC  H16X 5256   4.716   0.361   8.151 -0.9101 -0.3224 -0.9461
   64SAPC  H16Y 5257   4.546   0.402   8.192 -0.5928 -1.5700 -2.0468
   64SAPC  C317 5258   4.699   0.523   8.288  0.1913 -0.4543 -0.6033
   64SAPC  H17X 5259   4.620   0.591   8.327  0.5730 -0.8402  0.8933
   64SAPC  H17Y 5260   4.784   0.589   8.259 -0.8715  1.9311  1.2806
   64SAPC  C318 5261   4.738   0.425   8.402  0.3160 -0.0240  0.3533
   64SAPC  H18X 5262   4.652   0.376   8.451 -0.2216  1.0606  0.5180
   64SAPC  H18Y 5263   4.789   0.472   8.490  0.4800  0.3256  0.0757
   64SAPC  H18Z 5264   4.804   0.348   8.357  0.6077  0.5795 -0.2598
   65SAPC     N 5265   4.017   0.494   6.123 -0.1960 -0.2265  0.4411
   65SAPC   C12 5266   4.062   0.354   6.098  0.0965  0.3359  0.4627
   65SAPC  H12A 5267   4.082   0.305   6.192 -0.5903  0.6531  0.7756
   65SAPC  H12B 5268   4.154   0.358   6.041 -0.7519 -1.4421 -1.1417
   65SAPC   C13 5269   4.127   0.566   6.198 -0.1250  0.2512  0.3515
   65SAPC  H13A 5270   4.098   0.668   6.221 -1.4080  0.1341 -0.6513
   65SAPC  H13B 5271   4.147   0.518   6.293 -2.3750  1.7150  1.6792
   65SAPC  H13C 5272   4.218   0.576   6.141  0.1677 -1.3824  0.4883
   65SAPC   C14 5273   3.981   0.573   6.002 -0.2765 -0.2330  1.0072
   65SAPC  H14A 5274   4.048   0.572   5.918 -1.2501  0.3850  0.1910
   65SAPC  H14B 5275   3.881   0.548   5.969  0.0391  0.1005 -0.2665
   65SAPC  H14C 5276   3.981   0.677   6.032 -0.5099 -0.5183  2.0539
   65SAPC   C15 5277   3.897   0.499   6.215 -0.7818  1.2359  0.0602
   65SAPC  H15A 5278   3.844   0.593   6.208 -0.8948  1.0665 -1.7364
   65SAPC  H15B 5279   3.832   0.418   6.187 -2.7179  2.5521  0.4657
   65SAPC  H15C 5280   3.925   0.473   6.316 -0.1672  1.0339 -0.1585
   65SAPC   C11 5281   3.969   0.257   6.018  0.1162 -0.3491 -0.1919
   65SAPC  H11A 5282   4.018   0.157   6.012 -0.9018 -0.8439 -0.4860
   65SAPC  H11B 5283   3.948   0.301   5.918  0.2569  0.3229  0.0709
   65SAPC     P 5284   3.816   0.126   6.181 -0.4785  0.3673 -0.3309
   65SAPC   O13 5285   3.688   0.143   6.249  0.6430  0.6147 -0.3325
   65SAPC   O14 5286   3.841  -0.004   6.108 -0.1961  0.0264 -0.0738
   65SAPC   O12 5287   3.837   0.243   6.084 -0.6792  1.1092  0.6643
   65SAPC   O11 5288   3.934   0.162   6.283  0.5849  0.4598  0.2738
   65SAPC    C1 5289   3.989   0.057   6.360  0.2550 -0.0321  0.2676
   65SAPC    HA 5290   4.033  -0.020   6.293  0.3506 -1.0486  1.4744
   65SAPC    HB 5291   4.076   0.094   6.418  0.6580 -0.2787 -0.1721
   65SAPC    C2 5292   3.893  -0.003   6.476  1.2050 -1.1598 -0.7300
   65SAPC    HS 5293   3.794  -0.022   6.431  1.0798 -0.2372 -0.8648
   65SAPC   O21 5294   3.888   0.100   6.581 -0.6371  0.8483  0.1241
   65SAPC   C21 5295   3.771   0.127   6.624  0.2393  0.7004 -0.0132
   65SAPC   O22 5296   3.660   0.080   6.592 -0.2977  0.2972 -0.0909
   65SAPC   C22 5297   3.792   0.236   6.727  0.3546  0.1569 -0.6089
   65SAPC   H2R 5298   3.898   0.236   6.760 -0.1474 -0.5270  1.1267
   65SAPC   H2S 5299   3.759   0.334   6.688  1.3297  0.8080  0.1582
   65SAPC    C3 5300   3.944  -0.141   6.524 -0.4536  0.7448 -0.2926
   65SAPC    HX 5301   4.040  -0.116   6.573 -0.1158 -0.0230 -0.5324
   65SAPC    HY 5302   3.964  -0.201   6.432  1.7588  3.1572 -1.5028
   65SAPC   O31 5303   3.864  -0.207   6.630 -0.5027  0.5730 -0.5200
   65SAPC   C31 5304   3.757  -0.255   6.576  0.1179 -0.5322 -0.3851
   65SAPC   O32 5305   3.739  -0.282   6.461  0.6910 -0.4779 -0.2786
   65SAPC   C32 5306   3.652  -0.284   6.685  0.1633  0.3968  0.2018
   65SAPC   H2X 5307   3.613  -0.388   6.681  0.6371  0.2292 -0.1311
   65SAPC   H2Y 5308   3.572  -0.210   6.665 -2.1098 -2.1613 -0.8326
   65SAPC   C23 5309   3.702   0.203   6.842  0.7098  0.3038  0.0054
   65SAPC   H3R 5310   3.727   0.098   6.871  0.2992  0.1524 -0.1740
   65SAPC   H3S 5311   3.597   0.212   6.807  0.8560  3.2016  0.0818
   65SAPC   C24 5312   3.735   0.300   6.958 -0.2613  0.5450  0.2889
   65SAPC   H4R 5313   3.659   0.275   7.036 -0.3904  0.2542  0.0759
   65SAPC   H4S 5314   3.713   0.402   6.921  0.1197  0.6301  0.2951
   65SAPC   C25 5315   3.874   0.281   7.022  0.5476 -0.1527  0.4323
   65SAPC   H5R 5316   3.944   0.357   6.983 -1.3329 -0.0369 -3.1354
   65SAPC   C26 5317   3.912   0.184   7.105 -0.4831 -0.4703 -0.5402
   65SAPC   H6R 5318   4.012   0.199   7.148  0.4141  0.6662 -2.8358
   65SAPC   C27 5319   3.834   0.068   7.151 -0.0780 -0.3270  0.0455
   65SAPC   H7R 5320   3.908  -0.016   7.160 -0.5796 -0.6661  1.1716
   65SAPC   H7S 5321   3.777   0.034   7.062  0.3904  0.3863 -0.5367
   65SAPC   C28 5322   3.747   0.083   7.267 -0.5149 -0.1259 -0.4704
   65SAPC   H8R 5323   3.642   0.086   7.235 -0.4980 -1.2314 -0.6926
   65SAPC   C29 5324   3.778   0.098   7.393  0.1868  0.1306 -0.3397
   65SAPC   H9R 5325   3.689   0.106   7.457 -0.5530 -0.6599 -1.2484
   65SAPC  C210 5326   3.907   0.102   7.463  0.2357 -0.7178 -0.6382
   65SAPC  H10R 5327   3.891   0.170   7.550 -0.8688 -0.9999 -0.6074
   65SAPC  H10S 5328   3.999   0.139   7.412  0.8378 -1.7670 -0.3585
   65SAPC  C211 5329   3.951  -0.033   7.526  0.5403  0.1846  0.2940
   65SAPC  H11R 5330   3.983  -0.105   7.450 -2.3382 -0.5094 -0.3698
   65SAPC  C212 5331   3.948  -0.075   7.659 -0.0722  0.6372  0.1772
   65SAPC  H12R 5332   3.991  -0.172   7.688  0.7718  1.0940  0.4910
   65SAPC  C213 5333   3.911   0.021   7.777  0.0651 -0.8556  0.3904
   65SAPC  H13R 5334   3.887  -0.045   7.863  0.5729 -2.1481 -0.4248
   65SAPC  H13S 5335   3.825   0.087   7.752  0.6462 -0.8369 -1.8222
   65SAPC  C214 5336   4.021   0.111   7.823 -0.3488  0.0372 -0.2247
   65SAPC  H14R 5337   4.025   0.208   7.771  1.5618 -0.1746 -0.5289
   65SAPC  C215 5338   4.118   0.087   7.919  0.3401 -0.2208  0.0219
   65SAPC  H15R 5339   4.192   0.165   7.941  1.9487 -1.2452 -1.4757
   65SAPC  C216 5340   4.137  -0.045   7.999 -0.1048  0.0627  0.6016
   65SAPC  H16R 5341   4.214  -0.117   7.965 -2.2944 -2.2821  0.2560
   65SAPC  H16S 5342   4.047  -0.107   7.978  0.4739 -0.5386 -0.1604
   65SAPC  C217 5343   4.139  -0.008   8.150 -0.6089  0.5297  0.7052
   65SAPC  H17R 5344   4.192   0.089   8.162 -0.1009  0.3888 -0.2448
   65SAPC  H17S 5345   4.206  -0.082   8.199  0.5680 -0.2705 -1.9297
   65SAPC  C218 5346   4.006  -0.012   8.208 -0.1016 -0.2601  1.6716
   65SAPC  H18R 5347   3.949  -0.106   8.189  0.1987  0.1213 -1.9179
   65SAPC  H18S 5348   3.940   0.065   8.161 -0.4443 -2.0032 -0.9782
   65SAPC  C219 5349   4.016  -0.006   8.352  0.8183  0.7468 -0.6405
   65SAPC  H19R 5350   4.050   0.096   8.378  0.0531  0.9313 -0.3384
   65SAPC  H19S 5351   4.092  -0.073   8.398 -0.7221  0.5188  1.7323
   65SAPC  C220 5352   3.885  -0.031   8.430 -0.0201 -0.4976 -0.4581
   65SAPC  H20R 5353   3.843  -0.130   8.403 -1.9673  0.6062 -1.6560
   65SAPC  H20S 5354   3.818   0.051   8.396  0.4618  0.0564 -0.1021
   65SAPC  H20T 5355   3.905  -0.025   8.539 -1.2983 -1.0499 -0.1826
   65SAPC   C33 5356   3.703  -0.269   6.829 -0.5885  0.9792 -0.4859
   65SAPC   H3X 5357   3.732  -0.164   6.852  2.0885 -0.3153  3.0383
   65SAPC   H3Y 5358   3.787  -0.340   6.841 -1.5679 -0.3636 -1.3251
   65SAPC   C34 5359   3.594  -0.314   6.927  0.5157 -0.2845  0.0930
   65SAPC   H4X 5360   3.593  -0.424   6.941 -0.8957 -0.1078  1.7670
   65SAPC   H4Y 5361   3.496  -0.282   6.888  2.0221  0.9868 -2.9677
   65SAPC   C35 5362   3.613  -0.245   7.072  0.2066 -0.7974  0.3662
   65SAPC   H5X 5363   3.624  -0.135   7.060  3.6937 -1.1365 -0.8338
   65SAPC   H5Y 5364   3.705  -0.276   7.127 -0.1794  0.8562  2.0650
   65SAPC   C36 5365   3.493  -0.266   7.162 -0.6287  0.2562  0.1712
   65SAPC   H6X 5366   3.519  -0.363   7.211 -0.5240  0.1643 -0.0668
   65SAPC   H6Y 5367   3.405  -0.279   7.096  0.1687 -3.3829 -0.4219
   65SAPC   C37 5368   3.474  -0.170   7.270 -0.4147 -0.8770 -1.1141
   65SAPC   H7X 5369   3.441  -0.070   7.235  3.4210  1.4561  1.2921
   65SAPC   H7Y 5370   3.563  -0.143   7.330 -1.8595  1.1098  0.2696
   65SAPC   C38 5371   3.359  -0.208   7.363 -0.2120 -0.4060  0.1545
   65SAPC   H8X 5372   3.386  -0.298   7.422 -1.2854 -1.7230 -1.2906
   65SAPC   H8Y 5373   3.269  -0.235   7.304 -0.5189  1.1746 -0.1487
   65SAPC   C39 5374   3.336  -0.091   7.454 -0.4822 -0.3999  0.2529
   65SAPC   H9X 5375   3.234  -0.091   7.499  0.7916 -1.3257  3.4131
   65SAPC   H9Y 5376   3.341  -0.001   7.388 -0.3839 -1.3558 -1.0731
   65SAPC  C310 5377   3.444  -0.078   7.567 -0.1025  0.3408 -0.7862
   65SAPC  H10X 5378   3.543  -0.113   7.532 -0.5598 -1.8120 -0.0920
   65SAPC  H10Y 5379   3.418  -0.152   7.646  1.2665  0.5204 -0.1452
   65SAPC  C311 5380   3.462   0.048   7.656  0.6086 -0.3309 -0.1719
   65SAPC  H11X 5381   3.364   0.098   7.669  1.1629  0.8366 -0.3377
   65SAPC  H11Y 5382   3.521   0.127   7.604 -0.0869  0.2104 -0.1563
   65SAPC  C312 5383   3.533   0.018   7.788 -0.7616  0.3214  0.1975
   65SAPC  H12X 5384   3.624  -0.041   7.763 -1.3259 -1.5827  2.3218
   65SAPC  H12Y 5385   3.469  -0.057   7.840  1.1094 -1.7039 -0.2821
   65SAPC  C313 5386   3.566   0.141   7.881 -0.3212  0.1838  0.1322
   65SAPC  H13X 5387   3.639   0.210   7.834  0.1299  1.1301  2.1577
   65SAPC  H13Y 5388   3.605   0.096   7.975 -0.3256 -1.4449 -0.6065
   65SAPC  C314 5389   3.443   0.230   7.905 -0.7494 -0.9639  0.8101
   65SAPC  H14X 5390   3.383   0.240   7.812 -0.5572 -1.5507  0.6161
   65SAPC  H14Y 5391   3.472   0.336   7.921 -0.2570 -0.6862 -1.5639
   65SAPC  C315 5392   3.356   0.194   8.028 -0.2019  0.8945  0.0748
   65SAPC  H15X 5393   3.411   0.186   8.125 -1.1551 -2.3445  0.4865
   65SAPC  H15Y 5394   3.311   0.097   7.997  1.4509  0.2718 -0.4734
   65SAPC  C316 5395   3.248   0.298   8.065  0.5198  0.2446 -0.3537
   65SAPC  H16X 5396   3.179   0.304   7.978  1.1037 -0.4936 -0.8819
   65SAPC  H16Y 5397   3.303   0.393   8.079  0.5748  0.1592  0.0146
   65SAPC  C317 5398   3.170   0.257   8.192  0.4153 -0.0223 -0.4243
   65SAPC  H17X 5399   3.246   0.249   8.273 -2.1058  0.3356  2.1037
   65SAPC  H17Y 5400   3.134   0.154   8.169 -1.1584  0.3703  0.1880
   65SAPC  C318 5401   3.049   0.339   8.225  0.1231 -0.5758  0.4346
   65SAPC  H18X 5402   2.980   0.342   8.138  3.7109  0.9838 -2.6467
   65SAPC  H18Y 5403   3.079   0.440   8.259  0.0304 -0.5782  0.5255
   65SAPC  H18Z 5404   2.991   0.292   8.308  0.8384  1.3162  2.0950
   66SAPC     N 5405   2.203   5.227   6.247  0.4412  0.5324 -0.5278
   66SAPC   C12 5406   2.051   5.247   6.222  0.1251  0.0363  0.1271
   66SAPC  H12A 5407   1.997   5.176   6.283  0.5255 -0.8155 -0.4926
   66SAPC  H12B 5408   2.023   5.216   6.122 -2.2950 -0.6887  0.9421
   66SAPC   C13 5409   2.235   5.262   6.391  0.5397  0.5628  0.1781
   66SAPC  H13A 5410   2.198   5.189   6.462 -1.2792 -1.1718 -2.3824
   66SAPC  H13B 5411   2.340   5.269   6.416 -0.3155  1.3012  4.2779
   66SAPC  H13C 5412   2.197   5.361   6.412  1.3176  1.2581 -1.4920
   66SAPC   C14 5413   2.250   5.080   6.218  0.6403 -0.3305 -0.5048
   66SAPC  H14A 5414   2.348   5.071   6.264  0.3659  1.7424  0.6017
   66SAPC  H14B 5415   2.196   5.002   6.269  1.7613  0.2684  1.7209
   66SAPC  H14C 5416   2.259   5.061   6.112  1.1891  0.4045 -0.5992
   66SAPC   C15 5417   2.278   5.324   6.152 -0.3263  0.0766  0.5006
   66SAPC  H15A 5418   2.239   5.422   6.177 -0.7088 -0.0494  0.4048
   66SAPC  H15B 5419   2.386   5.325   6.154 -0.2417  0.5849 -1.5847
   66SAPC  H15C 5420   2.249   5.303   6.050  1.4252 -0.1864  0.0234
   66SAPC   C11 5421   1.997   5.395   6.250 -0.7037  0.3840  0.1521
   66SAPC  H11A 5422   2.037   5.437   6.345 -2.4400  1.3668  0.5088
   66SAPC  H11B 5423   1.889   5.373   6.265 -0.8515  2.7312  3.7298
   66SAPC     P 5424   1.931   5.501   6.018  0.5716  0.4940  0.2417
   66SAPC   O13 5425   1.998   5.569   5.906  0.4636 -0.2418  0.2610
   66SAPC   O14 5426   1.877   5.366   5.990  0.0196  0.0681  0.3401
   66SAPC   O12 5427   2.030   5.486   6.142 -0.8673  0.1791  0.2403
   66SAPC   O11 5428   1.808   5.593   6.072  0.0396 -0.3528  0.1251
   66SAPC    C1 5429   1.837   5.734   6.095  0.4157  0.1713  0.5339
   66SAPC    HA 5430   1.925   5.775   6.042  0.1566  1.0604  0.7816
   66SAPC    HB 5431   1.745   5.793   6.074  0.4998 -0.0054 -0.3317
   66SAPC    C2 5432   1.874   5.767   6.246 -0.7284 -0.1623  0.3733
   66SAPC    HS 5433   1.975   5.723   6.259 -0.3301 -0.4140 -2.8153
   66SAPC   O21 5434   1.776   5.700   6.336 -0.0005 -0.1521 -0.1181
   66SAPC   C21 5435   1.827   5.661   6.448 -0.2210 -0.0339 -0.1809
   66SAPC   O22 5436   1.947   5.656   6.477  0.2624 -0.4050  0.2004
   66SAPC   C22 5437   1.707   5.607   6.529  0.2639 -0.1864  0.7319
   66SAPC   H2R 5438   1.639   5.693   6.546  1.3754  0.4785  1.9658
   66SAPC   H2S 5439   1.650   5.529   6.475 -0.4991 -0.0516  1.3146
   66SAPC    C3 5440   1.888   5.925   6.268 -0.5474  0.0490 -0.2117
   66SAPC    HX 5441   1.791   5.972   6.241 -1.2976 -1.0397  0.5159
   66SAPC    HY 5442   1.967   5.967   6.203  0.7265  0.7391  1.6894
   66SAPC   O31 5443   1.911   5.953   6.412 -0.7196 -0.3810  0.2546
   66SAPC   C31 5444   2.040   5.937   6.448 -0.0480  0.5368 -0.1673
   66SAPC   O32 5445   2.124   5.871   6.386  0.1840 -0.6766 -0.2075
   66SAPC   C32 5446   2.063   6.014   6.575 -0.1722 -0.2090  0.2783
   66SAPC   H2X 5447   2.020   5.962   6.663  0.2920  0.6766  1.0425
   66SAPC   H2Y 5448   2.023   6.118   6.576 -1.3226 -0.6348  1.3910
   66SAPC   C23 5449   1.745   5.543   6.662 -0.1139 -0.5446  0.7715
   66SAPC   H3R 5450   1.812   5.614   6.716  1.7145 -2.0277  0.5764
   66SAPC   H3S 5451   1.810   5.454   6.641  1.3660  0.8438 -0.8977
   66SAPC   C24 5452   1.629   5.503   6.749 -0.0592  0.0017 -0.5073
   66SAPC   H4R 5453   1.659   5.433   6.830 -1.5490  0.0652  0.1214
   66SAPC   H4S 5454   1.555   5.441   6.694 -2.6875 -1.1727  3.8229
   66SAPC   C25 5455   1.555   5.630   6.791  0.1943 -1.1276 -0.4936
   66SAPC   H5R 5456   1.496   5.688   6.718 -2.8010 -1.0053  1.8058
   66SAPC   C26 5457   1.555   5.682   6.914 -0.0022 -0.6246 -0.3621
   66SAPC   H6R 5458   1.522   5.787   6.921  2.9315  0.3371  0.5049
   66SAPC   C27 5459   1.627   5.623   7.036 -0.1674  0.6027  0.3965
   66SAPC   H7R 5460   1.676   5.708   7.088  0.2969  0.7142 -0.2208
   66SAPC   H7S 5461   1.712   5.557   7.008 -1.5345 -1.8764  1.7855
   66SAPC   C28 5462   1.536   5.542   7.130 -0.1816 -0.4790  0.5232
   66SAPC   H8R 5463   1.444   5.492   7.098 -0.3529 -0.6102  1.2164
   66SAPC   C29 5464   1.574   5.511   7.257 -0.0221 -0.5824  0.2093
   66SAPC   H9R 5465   1.502   5.450   7.313  1.7094  0.3718  3.7260
   66SAPC  C210 5466   1.696   5.546   7.334  0.7887  0.1109  0.2534
   66SAPC  H10R 5467   1.782   5.516   7.271 -0.3725 -0.3086 -1.2058
   66SAPC  H10S 5468   1.701   5.481   7.423 -1.9377 -0.7960 -0.1656
   66SAPC  C211 5469   1.701   5.691   7.375 -0.1307 -0.7349  0.3754
   66SAPC  H11R 5470   1.702   5.764   7.294 -0.1864 -1.2446 -0.0869
   66SAPC  C212 5471   1.717   5.745   7.499  0.3573  0.1862 -0.0744
   66SAPC  H12R 5472   1.727   5.854   7.510  0.4154  0.2710 -0.8796
   66SAPC  C213 5473   1.726   5.664   7.623  0.2988 -0.1380 -0.1060
   66SAPC  H13R 5474   1.664   5.572   7.612 -0.8699  0.6477 -0.3260
   66SAPC  H13S 5475   1.663   5.712   7.700 -1.0485 -2.0825  0.0674
   66SAPC  C214 5476   1.866   5.632   7.684 -0.4396 -0.0398  0.3867
   66SAPC  H14R 5477   1.954   5.651   7.622 -1.2672 -1.6454 -1.3755
   66SAPC  C215 5478   1.893   5.581   7.808 -0.4686 -0.0619 -0.6178
   66SAPC  H15R 5479   1.999   5.567   7.836 -0.4263  3.3565  1.4093
   66SAPC  C216 5480   1.801   5.551   7.917  0.3670  0.4735 -0.1639
   66SAPC  H16R 5481   1.822   5.444   7.940 -0.4584  0.0320 -1.3375
   66SAPC  H16S 5482   1.698   5.544   7.877 -0.3176  1.1837  1.4044
   66SAPC  C217 5483   1.832   5.629   8.045  0.2803 -0.1584  0.2299
   66SAPC  H17R 5484   1.794   5.732   8.026  0.4487 -0.5027 -2.2562
   66SAPC  H17S 5485   1.943   5.632   8.056  0.5175 -0.5989 -1.7108
   66SAPC  C218 5486   1.773   5.562   8.177  0.4820  0.3657  0.1111
   66SAPC  H18R 5487   1.821   5.463   8.195 -1.4211 -1.4727 -3.8616
   66SAPC  H18S 5488   1.662   5.562   8.173  0.4940 -1.0120 -0.7376
   66SAPC  C219 5489   1.798   5.644   8.308  0.3651  0.9251  0.3581
   66SAPC  H19R 5490   1.787   5.748   8.270  1.2778  0.6718 -0.6599
   66SAPC  H19S 5491   1.907   5.642   8.329  0.8796  3.0451 -1.6311
   66SAPC  C220 5492   1.712   5.587   8.422 -0.5951  0.4254  0.3747
   66SAPC  H20R 5493   1.610   5.567   8.382 -1.1224  2.0185  0.8062
   66SAPC  H20S 5494   1.709   5.647   8.515 -1.2469 -0.4979  0.9589
   66SAPC  H20T 5495   1.761   5.489   8.435  0.9498  0.7945 -1.9995
   66SAPC   C33 5496   2.212   6.023   6.608  0.5135 -0.0827  0.1633
   66SAPC   H3X 5497   2.262   6.069   6.520  0.2335 -0.3420 -0.1308
   66SAPC   H3Y 5498   2.256   5.921   6.615  2.0230  0.6335  2.3905
   66SAPC   C34 5499   2.235   6.081   6.747 -0.7522 -0.3070 -0.0342
   66SAPC   H4X 5500   2.190   6.182   6.751 -1.1517 -0.5226  1.8148
   66SAPC   H4Y 5501   2.344   6.097   6.757 -0.8486  0.6919 -0.4650
   66SAPC   C35 5502   2.180   6.007   6.871 -0.5643  0.3765  0.5109
   66SAPC   H5X 5503   2.242   5.915   6.875 -0.5028  0.4626  1.6913
   66SAPC   H5Y 5504   2.078   5.965   6.858 -0.4011  0.4426 -1.2559
   66SAPC   C36 5505   2.189   6.078   7.004 -0.4112  0.1597 -0.1142
   66SAPC   H6X 5506   2.149   6.179   6.984  0.7159  0.5759 -0.3297
   66SAPC   H6Y 5507   2.292   6.098   7.041 -0.0720 -1.1942 -0.2792
   66SAPC   C37 5508   2.111   6.010   7.115  0.1646  0.2928 -0.8367
   66SAPC   H7X 5509   2.170   5.919   7.143 -1.0919  0.5702  3.4430
   66SAPC   H7Y 5510   2.011   5.990   7.072 -0.5856  0.0520  0.9334
   66SAPC   C38 5511   2.096   6.078   7.250  0.3844 -0.1955  0.4287
   66SAPC   H8X 5512   2.039   6.171   7.234 -1.1622 -0.9982  1.0527
   66SAPC   H8Y 5513   2.198   6.104   7.287  1.3620 -1.4393 -1.2264
   66SAPC   C39 5514   2.007   6.000   7.346 -0.5556 -0.6255  0.7483
   66SAPC   H9X 5515   1.914   5.965   7.296 -1.4143 -0.2505  2.0221
   66SAPC   H9Y 5516   1.970   6.067   7.427 -2.6371 -0.1804 -0.4881
   66SAPC  C310 5517   2.068   5.879   7.426  0.1061 -0.0275  0.4797
   66SAPC  H10X 5518   2.099   5.817   7.339 -1.9830  1.6285 -1.5902
   66SAPC  H10Y 5519   1.987   5.824   7.477  0.5803 -1.2956 -0.0943
   66SAPC  C311 5520   2.176   5.926   7.524  0.0605  0.7052  0.0922
   66SAPC  H11X 5521   2.238   6.004   7.475 -2.1817  3.0474  0.7764
   66SAPC  H11Y 5522   2.233   5.832   7.543  1.6306  1.5787 -0.1061
   66SAPC  C312 5523   2.130   5.997   7.651 -0.1166 -0.0252 -0.2045
   66SAPC  H12X 5524   2.064   5.929   7.709  0.0451 -0.1528 -0.1710
   66SAPC  H12Y 5525   2.068   6.087   7.632 -0.2723  0.2711  1.4751
   66SAPC  C313 5526   2.254   6.050   7.727 -0.9089  0.0494  0.4258
   66SAPC  H13X 5527   2.292   6.132   7.663  1.2752 -0.6638  0.7211
   66SAPC  H13Y 5528   2.328   5.967   7.727 -2.2704 -1.2276  0.2050
   66SAPC  C314 5529   2.236   6.101   7.867 -0.4340  0.6810  0.2515
   66SAPC  H14X 5530   2.164   6.030   7.913 -1.5420  0.7099 -1.3773
   66SAPC  H14Y 5531   2.201   6.206   7.879  2.8508  1.7904  1.2464
   66SAPC  C315 5532   2.361   6.099   7.950  0.4208 -0.8003  0.1245
   66SAPC  H15X 5533   2.441   6.149   7.892  0.5536 -0.7203  0.3737
   66SAPC  H15Y 5534   2.403   5.998   7.966 -1.4596 -1.6203  0.1291
   66SAPC  C316 5535   2.350   6.167   8.082  0.1908 -1.1884  0.2298
   66SAPC  H16X 5536   2.257   6.134   8.133 -0.9478  0.0577 -0.9628
   66SAPC  H16Y 5537   2.330   6.275   8.072  0.9720 -0.9634  0.9468
   66SAPC  C317 5538   2.469   6.144   8.176  0.5922 -0.4482 -0.7007
   66SAPC  H17X 5539   2.491   6.035   8.183 -1.1395 -0.8618 -1.1068
   66SAPC  H17Y 5540   2.444   6.177   8.279  1.8855  1.4993 -0.9506
   66SAPC  C318 5541   2.594   6.221   8.127  0.0829  0.0276  0.8502
   66SAPC  H18X 5542   2.577   6.327   8.097 -2.0868 -0.7597 -0.9712
   66SAPC  H18Y 5543   2.625   6.181   8.028 -1.1761  0.7777  0.1291
   66SAPC  H18Z 5544   2.676   6.213   8.202 -1.2493 -2.3666  2.1736
   67SAPC     N 5545   3.968   3.988   6.102 -0.2974  0.4526 -0.0662
   67SAPC   C12 5546   3.947   3.837   6.082 -0.8217 -0.0021  0.0789
   67SAPC  H12A 5547   4.018   3.805   6.008 -0.3378 -0.8100  0.8647
   67SAPC  H12B 5548   3.845   3.820   6.050 -0.8295 -0.8234  0.5109
   67SAPC   C13 5549   3.903   4.064   5.993 -0.1388 -0.4355 -0.0376
   67SAPC  H13A 5550   3.919   4.020   5.896  0.3296 -0.1701 -0.0847
   67SAPC  H13B 5551   3.795   4.067   5.995 -0.1306 -0.7194  1.8615
   67SAPC  H13C 5552   3.944   4.164   5.994  1.4152 -0.9747 -1.8450
   67SAPC   C14 5553   3.916   4.033   6.238 -0.6066 -0.2860  0.4746
   67SAPC  H14A 5554   3.967   3.979   6.316  1.1978 -0.4675 -0.7545
   67SAPC  H14B 5555   3.933   4.138   6.258 -0.7107  0.1256 -1.4337
   67SAPC  H14C 5556   3.809   4.018   6.243 -0.7689  0.9686  1.0968
   67SAPC   C15 5557   4.116   4.003   6.101 -0.4746 -1.0262  0.1121
   67SAPC  H15A 5558   4.138   4.107   6.122  0.2706 -1.2267  0.3662
   67SAPC  H15B 5559   4.154   3.956   6.191  0.9993 -0.5354 -0.2190
   67SAPC  H15C 5560   4.174   3.963   6.019 -0.1255 -0.6797  0.1837
   67SAPC   C11 5561   3.968   3.740   6.206  0.3484  0.0396 -0.4232
   67SAPC  H11A 5562   3.941   3.634   6.187  2.0903 -0.2575 -1.4770
   67SAPC  H11B 5563   3.898   3.760   6.290 -1.0107 -2.6209 -0.7967
   67SAPC     P 5564   4.136   3.772   6.411  0.5859  0.0789  0.1144
   67SAPC   O13 5565   4.266   3.715   6.442 -0.1311  0.1116 -0.1740
   67SAPC   O14 5566   4.134   3.919   6.437  0.0725  0.0540  0.1474
   67SAPC   O12 5567   4.100   3.744   6.257 -0.1814  0.4060 -0.1518
   67SAPC   O11 5568   4.018   3.693   6.486  0.1852 -0.4213  0.7508
   67SAPC    C1 5569   4.028   3.550   6.517  0.4527  0.5858  0.0194
   67SAPC    HA 5570   3.930   3.506   6.491  0.7724 -2.2213  2.9320
   67SAPC    HB 5571   4.105   3.504   6.451 -0.4322 -1.1015  0.1330
   67SAPC    C2 5572   4.058   3.519   6.666 -0.9757 -0.4775  0.5098
   67SAPC    HS 5573   4.080   3.410   6.671 -0.6937 -0.4498 -0.1376
   67SAPC   O21 5574   3.953   3.561   6.753  0.3619  0.3094  0.2659
   67SAPC   C21 5575   3.846   3.481   6.744  0.2011  0.5201 -0.5032
   67SAPC   O22 5576   3.845   3.365   6.706 -0.1434 -1.1352  0.2901
   67SAPC   C22 5577   3.735   3.544   6.816  0.0242 -0.1484 -0.0908
   67SAPC   H2R 5578   3.720   3.648   6.779 -3.0647  0.0319  1.3126
   67SAPC   H2S 5579   3.642   3.483   6.806 -0.1190  0.3362 -2.3835
   67SAPC    C3 5580   4.199   3.586   6.711  0.3462  0.6604 -0.0324
   67SAPC    HX 5581   4.174   3.693   6.729 -1.3183  0.5505 -1.4174
   67SAPC    HY 5582   4.270   3.584   6.626 -0.7514 -0.2328 -0.9667
   67SAPC   O31 5583   4.257   3.523   6.826 -0.1102 -0.5526  0.1126
   67SAPC   C31 5584   4.353   3.598   6.882  0.6985  0.6092 -0.5344
   67SAPC   O32 5585   4.387   3.710   6.853  0.4188 -0.0849 -0.0711
   67SAPC   C32 5586   4.418   3.515   6.995  0.0298 -0.4232  0.4508
   67SAPC   H2X 5587   4.516   3.555   7.027 -0.8961  2.4884 -0.0072
   67SAPC   H2Y 5588   4.435   3.416   6.948 -2.6790 -1.4116  1.3687
   67SAPC   C23 5589   3.755   3.568   6.968 -0.0305  0.7073 -0.2657
   67SAPC   H3R 5590   3.674   3.630   7.014  1.5684  1.9667  0.9768
   67SAPC   H3S 5591   3.854   3.611   6.992 -0.7139  2.2781 -0.1238
   67SAPC   C24 5592   3.755   3.430   7.041  0.3513 -0.3268  0.5612
   67SAPC   H4R 5593   3.831   3.365   6.992  0.6032 -1.5253  2.4308
   67SAPC   H4S 5594   3.659   3.379   7.018  0.1147 -0.0202  0.8643
   67SAPC   C25 5595   3.786   3.443   7.186 -0.0934  0.0387 -0.0840
   67SAPC   H5R 5596   3.891   3.447   7.217  0.2258 -1.1602 -0.9187
   67SAPC   C26 5597   3.698   3.445   7.281  0.0612 -0.8026  0.0216
   67SAPC   H6R 5598   3.717   3.458   7.388 -0.5910  0.9869 -0.0391
   67SAPC   C27 5599   3.551   3.428   7.260 -0.1976 -0.9645 -0.2497
   67SAPC   H7R 5600   3.534   3.321   7.236 -1.0058 -0.8675 -0.1204
   67SAPC   H7S 5601   3.509   3.491   7.178 -0.0083  2.0317  1.7748
   67SAPC   C28 5602   3.472   3.454   7.384  0.4687 -0.5567  0.0655
   67SAPC   H8R 5603   3.408   3.542   7.369  0.8091 -0.3800 -0.3675
   67SAPC   C29 5604   3.466   3.377   7.489  0.7222 -0.0439 -0.8439
   67SAPC   H9R 5605   3.396   3.402   7.569  0.0282  1.1101 -1.7871
   67SAPC  C210 5606   3.540   3.250   7.516  0.1927 -0.1251 -0.1623
   67SAPC  H10R 5607   3.644   3.288   7.512  0.2170  0.3991  3.0757
   67SAPC  H10S 5608   3.507   3.178   7.438  1.6008 -0.0617 -0.8413
   67SAPC  C211 5609   3.511   3.187   7.653  0.2598 -0.3276  0.1427
   67SAPC  H11R 5610   3.419   3.233   7.692  0.1166  0.4870 -1.0845
   67SAPC  C212 5611   3.586   3.106   7.731  0.3812  0.2721  0.5877
   67SAPC  H12R 5612   3.520   3.061   7.807 -0.5057  1.4245  0.5275
   67SAPC  C213 5613   3.721   3.041   7.699  0.4337  0.5001  0.9628
   67SAPC  H13R 5614   3.803   3.105   7.738  1.1700  0.6187 -0.7041
   67SAPC  H13S 5615   3.743   3.036   7.591  1.0315  0.4794  1.0850
   67SAPC  C214 5616   3.737   2.899   7.744 -0.1578  0.6957  0.7438
   67SAPC  H14R 5617   3.765   2.828   7.664 -0.7909 -0.3851  1.4529
   67SAPC  C215 5618   3.725   2.852   7.868  0.3138  0.3354  0.4612
   67SAPC  H15R 5619   3.751   2.747   7.887 -0.3570 -0.0223 -0.5241
   67SAPC  C216 5620   3.688   2.924   7.992 -0.4473  0.1647 -0.4590
   67SAPC  H16R 5621   3.589   2.890   8.029  0.7797 -2.5415  0.6700
   67SAPC  H16S 5622   3.676   3.033   7.977 -1.0009  0.1536 -0.1440
   67SAPC  C217 5623   3.806   2.900   8.096  0.1561 -0.0065 -0.0211
   67SAPC  H17R 5624   3.902   2.938   8.055 -0.3395  0.8497 -0.4200
   67SAPC  H17S 5625   3.821   2.791   8.114 -0.8659 -0.1668 -0.0595
   67SAPC  C218 5626   3.779   2.961   8.233  0.9050  0.1091  0.1772
   67SAPC  H18R 5627   3.728   3.058   8.210  0.5452 -0.6542 -2.6003
   67SAPC  H18S 5628   3.880   2.984   8.272  2.2885  0.0421 -3.0526
   67SAPC  C219 5629   3.692   2.890   8.337  0.2425  0.1059  0.2129
   67SAPC  H19R 5630   3.600   2.844   8.294  1.3081 -1.4725 -0.4528
   67SAPC  H19S 5631   3.652   2.953   8.419 -1.8815 -1.9488  0.8989
   67SAPC  C220 5632   3.779   2.781   8.405  0.2157 -0.3988 -0.2352
   67SAPC  H20R 5633   3.735   2.734   8.495 -3.3888  2.0011 -0.5053
   67SAPC  H20S 5634   3.872   2.839   8.426  0.3620 -0.8157  0.2702
   67SAPC  H20T 5635   3.806   2.710   8.324 -0.0083  0.0895 -0.7435
   67SAPC   C33 5636   4.313   3.491   7.112 -0.3504 -0.4170 -0.0376
   67SAPC   H3X 5637   4.209   3.484   7.075 -1.7310 -1.5342  3.5527
   67SAPC   H3Y 5638   4.306   3.577   7.182 -2.4620 -1.4484  1.1192
   67SAPC   C34 5639   4.339   3.377   7.220 -0.0845 -0.8382 -0.4114
   67SAPC   H4X 5640   4.330   3.425   7.320  0.3268  1.3240 -1.3373
   67SAPC   H4Y 5641   4.441   3.335   7.206  0.4711 -0.9448  3.0878
   67SAPC   C35 5642   4.232   3.276   7.212  0.4959  0.2820 -0.3792
   67SAPC   H5X 5643   4.239   3.222   7.115  1.6642 -1.3730  0.5501
   67SAPC   H5Y 5644   4.140   3.334   7.233  1.2182  1.3331 -0.0053
   67SAPC   C36 5645   4.252   3.165   7.320  0.4576 -0.2317 -0.0730
   67SAPC   H6X 5646   4.353   3.120   7.316  0.5239 -0.0393 -0.6314
   67SAPC   H6Y 5647   4.174   3.092   7.292  0.1542 -1.1607  2.8507
   67SAPC   C37 5648   4.227   3.186   7.473  0.3309 -0.7738 -0.2610
   67SAPC   H7X 5649   4.288   3.262   7.526 -0.8649 -1.0517  1.5906
   67SAPC   H7Y 5650   4.258   3.085   7.509 -1.3635 -1.6809 -1.2399
   67SAPC   C38 5651   4.079   3.193   7.518 -1.2448 -1.1270 -0.4419
   67SAPC   H8X 5652   4.027   3.100   7.486 -2.6755  0.1122 -1.9192
   67SAPC   H8Y 5653   4.038   3.274   7.453  0.6197  0.4698  0.2604
   67SAPC   C39 5654   4.054   3.234   7.671  0.5705 -0.2890 -0.2680
   67SAPC   H9X 5655   3.945   3.253   7.681 -0.1106 -4.4530  4.5892
   67SAPC   H9Y 5656   4.118   3.322   7.693  1.5736 -0.7588 -1.2297
   67SAPC  C310 5657   4.094   3.125   7.776 -0.4502 -0.1669 -0.2681
   67SAPC  H10X 5658   4.199   3.097   7.752  0.0774 -0.1043  1.7478
   67SAPC  H10Y 5659   4.029   3.035   7.766  1.2426 -1.3307 -1.3470
   67SAPC  C311 5660   4.082   3.183   7.922 -0.0290  0.6715  0.7870
   67SAPC  H11X 5661   4.154   3.267   7.929  1.3811 -0.1159 -2.2254
   67SAPC  H11Y 5662   4.106   3.096   7.987 -1.3266  0.1700  0.6404
   67SAPC  C312 5663   3.944   3.232   7.967 -0.2347 -0.2628 -0.2942
   67SAPC  H12X 5664   3.881   3.141   7.976 -1.1146  0.4718  1.3831
   67SAPC  H12Y 5665   3.895   3.306   7.902  0.4138  0.6500  0.2273
   67SAPC  C313 5666   3.948   3.280   8.107  0.1682 -0.3353  0.7627
   67SAPC  H13X 5667   4.025   3.358   8.128 -1.5247  1.7963 -0.5712
   67SAPC  H13Y 5668   3.982   3.199   8.175  0.2756 -2.9881 -2.2056
   67SAPC  C314 5669   3.809   3.340   8.149  0.6361  0.4455 -0.3543
   67SAPC  H14X 5670   3.730   3.263   8.136  0.9806 -0.0746  0.5748
   67SAPC  H14Y 5671   3.792   3.432   8.089  1.0188  2.0114  1.8090
   67SAPC  C315 5672   3.817   3.382   8.292  0.5483  0.4925 -0.2698
   67SAPC  H15X 5673   3.898   3.457   8.280  0.2033  0.8806 -0.1801
   67SAPC  H15Y 5674   3.854   3.300   8.358 -0.2549 -1.1599 -1.8097
   67SAPC  C316 5675   3.685   3.436   8.355 -0.4315  0.2468 -0.2117
   67SAPC  H16X 5676   3.631   3.341   8.379 -1.2501  0.5865 -0.6818
   67SAPC  H16Y 5677   3.639   3.498   8.276  1.1508  0.8606 -0.6930
   67SAPC  C317 5678   3.708   3.515   8.489 -0.3355 -0.1764 -0.0472
   67SAPC  H17X 5679   3.772   3.462   8.564  2.2390  2.6731 -0.0412
   67SAPC  H17Y 5680   3.613   3.540   8.540  0.1372  1.3310  0.1370
   67SAPC  C318 5681   3.776   3.651   8.469 -0.6959 -0.4518 -0.0259
   67SAPC  H18X 5682   3.704   3.731   8.439 -0.4742  0.0797  0.8401
   67SAPC  H18Y 5683   3.859   3.646   8.395  1.2752 -1.1218  2.1151
   67SAPC  H18Z 5684   3.828   3.686   8.560 -2.0894  1.6944  0.0055
   68SAPC     N 5685   1.240   0.156   5.891 -0.0605 -0.2779 -0.4711
   68SAPC   C12 5686   1.366   0.205   5.967  0.6074 -0.0124 -0.0197
   68SAPC  H12A 5687   1.411   0.294   5.925  0.6066  0.2539  0.5434
   68SAPC  H12B 5688   1.440   0.127   5.959  0.6023 -0.3093  2.2961
   68SAPC   C13 5689   1.294   0.130   5.755 -1.4504  0.5364  0.3235
   68SAPC  H13A 5690   1.350   0.211   5.711  1.0789 -0.9481  0.5682
   68SAPC  H13B 5691   1.365   0.049   5.760 -0.8099  0.9214 -1.6682
   68SAPC  H13C 5692   1.222   0.095   5.683  0.8232 -0.0577 -1.8050
   68SAPC   C14 5693   1.182   0.040   5.959  0.0254  0.7300  0.6866
   68SAPC  H14A 5694   1.251  -0.042   5.976 -1.9209 -1.3219 -0.7802
   68SAPC  H14B 5695   1.138   0.068   6.054  2.6230  1.7702  1.6837
   68SAPC  H14C 5696   1.107  -0.004   5.895  3.2072  0.5622 -3.3366
   68SAPC   C15 5697   1.137   0.265   5.882  0.1208  0.6143 -0.5963
   68SAPC  H15A 5698   1.110   0.296   5.982  2.3360 -1.3534  0.6993
   68SAPC  H15B 5699   1.183   0.350   5.834  0.6228 -0.1596 -1.5082
   68SAPC  H15C 5700   1.047   0.243   5.825 -0.2172 -0.5036  0.3385
   68SAPC   C11 5701   1.353   0.241   6.113  0.2844 -0.6286  0.0329
   68SAPC  H11A 5702   1.459   0.254   6.146 -0.0473  2.6696  0.1581
   68SAPC  H11B 5703   1.324   0.145   6.161 -0.1780 -0.7373 -0.4519
   68SAPC     P 5704   1.302   0.493   6.133 -0.0673  0.4079 -0.0928
   68SAPC   O13 5705   1.401   0.504   6.026  0.0108  0.2638  0.2245
   68SAPC   O14 5706   1.185   0.583   6.130  0.6213 -0.1279 -0.0900
   68SAPC   O12 5707   1.262   0.343   6.138  0.0930  0.2266 -0.0726
   68SAPC   O11 5708   1.383   0.508   6.274  0.1539 -0.4983  0.1353
   68SAPC    C1 5709   1.296   0.522   6.391 -0.3012  0.4619  0.2772
   68SAPC    HA 5710   1.241   0.615   6.368  1.5731  1.0601 -2.2840
   68SAPC    HB 5711   1.225   0.437   6.390  0.5928 -0.3458 -2.3782
   68SAPC    C2 5712   1.369   0.506   6.524 -0.4596  0.4592  0.3659
   68SAPC    HS 5713   1.298   0.502   6.609  1.6008  0.8598  2.1972
   68SAPC   O21 5714   1.460   0.612   6.545 -0.9192  0.5643  0.1086
   68SAPC   C21 5715   1.401   0.723   6.586  0.7689 -0.6035 -0.5496
   68SAPC   O22 5716   1.277   0.736   6.579 -0.1642  1.0946  0.4411
   68SAPC   C22 5717   1.499   0.829   6.642 -0.2840 -0.3481  0.4015
   68SAPC   H2R 5718   1.578   0.844   6.566 -2.7475 -0.2152 -2.2955
   68SAPC   H2S 5719   1.448   0.928   6.645 -1.6884 -1.0326  0.3778
   68SAPC    C3 5720   1.455   0.376   6.533 -0.3290  0.7438 -0.4543
   68SAPC    HX 5721   1.542   0.376   6.464 -1.2294  1.0142 -1.6323
   68SAPC    HY 5722   1.394   0.287   6.503 -1.6784  1.3341  0.4235
   68SAPC   O31 5723   1.506   0.349   6.665  0.0421 -0.6505  0.0247
   68SAPC   C31 5724   1.412   0.292   6.744 -0.7226 -0.0420 -0.7689
   68SAPC   O32 5725   1.305   0.248   6.710  0.3217 -0.8732 -0.4827
   68SAPC   C32 5726   1.467   0.301   6.896  0.3214 -0.4864 -0.1343
   68SAPC   H2X 5727   1.475   0.408   6.926 -2.4036 -0.5221  1.0496
   68SAPC   H2Y 5728   1.564   0.247   6.902  0.8826  0.5941  0.8378
   68SAPC   C23 5729   1.563   0.784   6.778 -0.2858 -0.1845  0.3446
   68SAPC   H3R 5730   1.646   0.853   6.804  0.4798 -1.6818  2.0475
   68SAPC   H3S 5731   1.621   0.692   6.759  1.3211  1.0637 -1.1927
   68SAPC   C24 5732   1.453   0.763   6.883  0.4214  0.0545 -0.4166
   68SAPC   H4R 5733   1.504   0.753   6.981 -0.7231  0.6217  0.2585
   68SAPC   H4S 5734   1.404   0.663   6.871 -1.6658  1.2607 -2.9963
   68SAPC   C25 5735   1.347   0.871   6.881  0.3297 -0.1218  0.1800
   68SAPC   H5R 5736   1.278   0.858   6.797 -0.7773  0.1663  1.0211
   68SAPC   C26 5737   1.315   0.946   6.987 -0.2128  0.5901 -0.9854
   68SAPC   H6R 5738   1.232   1.017   6.973 -0.6192  0.6088  1.2396
   68SAPC   C27 5739   1.385   0.938   7.129  0.9401 -0.1045 -0.1887
   68SAPC   H7R 5740   1.478   0.878   7.139  0.9987  0.3205  2.3236
   68SAPC   H7S 5741   1.307   0.903   7.200  0.2145  1.8355  0.0541
   68SAPC   C28 5742   1.403   1.073   7.183 -0.4272  0.4245  0.9344
   68SAPC   H8R 5743   1.402   1.161   7.118 -0.9864  0.0449  0.4226
   68SAPC   C29 5744   1.447   1.083   7.311  0.0252 -0.4020 -1.0236
   68SAPC   H9R 5745   1.456   1.180   7.361 -1.8932 -0.6897 -0.0368
   68SAPC  C210 5746   1.468   0.964   7.404 -0.7266 -0.3397 -0.1705
   68SAPC  H10R 5747   1.568   0.921   7.382 -0.7926  0.7783 -3.0543
   68SAPC  H10S 5748   1.392   0.883   7.391 -1.1178 -0.2850  1.4891
   68SAPC  C211 5749   1.472   1.004   7.548 -0.1308  0.5954  1.0287
   68SAPC  H11R 5750   1.540   1.089   7.566  0.8382 -0.1652  1.0773
   68SAPC  C212 5751   1.428   0.934   7.650  1.0867  0.0246 -0.5501
   68SAPC  H12R 5752   1.440   0.978   7.750  0.4844 -1.1676  0.0641
   68SAPC  C213 5753   1.348   0.807   7.643 -0.4304 -0.8358  0.4356
   68SAPC  H13R 5754   1.348   0.754   7.545 -0.2619 -2.0636  1.0722
   68SAPC  H13S 5755   1.243   0.834   7.667  0.5363  1.9601  1.9933
   68SAPC  C214 5756   1.386   0.693   7.741  0.4222  0.1144 -0.7891
   68SAPC  H14R 5757   1.460   0.620   7.704  2.2143 -0.1488  2.8909
   68SAPC  C215 5758   1.337   0.675   7.867  0.1093  0.3956  0.1689
   68SAPC  H15R 5759   1.365   0.584   7.921  0.1274 -0.1184 -0.6788
   68SAPC  C216 5760   1.227   0.758   7.932  0.0683  0.0907 -0.0816
   68SAPC  H16R 5761   1.184   0.848   7.884 -0.7140  0.0251  0.4640
   68SAPC  H16S 5762   1.258   0.767   8.038  1.4217 -2.7541 -0.1494
   68SAPC  C217 5763   1.098   0.664   7.931 -0.3600 -0.3657 -0.3395
   68SAPC  H17R 5764   1.120   0.556   7.948 -2.2977 -0.5137  1.7976
   68SAPC  H17S 5765   1.062   0.673   7.826 -1.6606 -2.1287 -0.1054
   68SAPC  C218 5766   0.986   0.706   8.027 -0.2827 -0.0679 -0.5945
   68SAPC  H18R 5767   0.896   0.645   8.005 -0.8125  0.1858  0.7056
   68SAPC  H18S 5768   0.971   0.815   8.009  2.3313  0.7263  1.3526
   68SAPC  C219 5769   1.027   0.682   8.173 -0.1395  0.6345 -0.0214
   68SAPC  H19R 5770   0.935   0.706   8.230  0.2162 -0.7704  1.2026
   68SAPC  H19S 5771   1.093   0.760   8.217  1.3814 -0.0254 -1.0535
   68SAPC  C220 5772   1.079   0.547   8.216  0.8116 -0.5646 -0.0588
   68SAPC  H20R 5773   1.132   0.572   8.310  1.6366  1.2693 -0.9647
   68SAPC  H20S 5774   1.150   0.513   8.137 -2.3035  0.5264 -3.6011
   68SAPC  H20T 5775   0.993   0.477   8.222  1.0309 -0.8484 -0.2349
   68SAPC   C33 5776   1.370   0.229   6.994  0.1691  0.6233  0.3234
   68SAPC   H3X 5777   1.383   0.119   6.979  0.2792  0.1398  3.3741
   68SAPC   H3Y 5778   1.264   0.257   6.979  0.3826  1.6877  0.6953
   68SAPC   C34 5779   1.405   0.262   7.142 -0.2709  0.1024 -0.6359
   68SAPC   H4X 5780   1.322   0.324   7.182 -0.7790 -0.9137 -0.0971
   68SAPC   H4Y 5781   1.502   0.315   7.157 -1.3449  1.6615  1.2048
   68SAPC   C35 5782   1.413   0.131   7.217  0.1248 -0.6304 -0.7952
   68SAPC   H5X 5783   1.490   0.065   7.173  1.4759  0.9563 -0.9070
   68SAPC   H5Y 5784   1.315   0.083   7.198 -0.2700 -1.4926  2.6440
   68SAPC   C36 5785   1.442   0.157   7.367  0.5673 -0.2449  0.3859
   68SAPC   H6X 5786   1.415   0.070   7.430  0.6335 -1.2579 -0.9478
   68SAPC   H6Y 5787   1.395   0.250   7.408  2.6765  0.3212  1.6529
   68SAPC   C37 5788   1.598   0.177   7.383 -0.2475  0.1530  0.4093
   68SAPC   H7X 5789   1.643   0.205   7.285 -0.9394  1.2062  0.3691
   68SAPC   H7Y 5790   1.643   0.082   7.417 -3.2898 -0.6197  2.7605
   68SAPC   C38 5791   1.637   0.285   7.476  0.8652 -0.2505  0.1772
   68SAPC   H8X 5792   1.593   0.382   7.443 -0.4227 -0.7973  0.2127
   68SAPC   H8Y 5793   1.743   0.314   7.462  0.9146 -0.7369 -0.5258
   68SAPC   C39 5794   1.616   0.240   7.623  0.1766 -0.3547  0.4263
   68SAPC   H9X 5795   1.696   0.165   7.639 -0.2215 -0.6206  1.2300
   68SAPC   H9Y 5796   1.508   0.218   7.636 -0.6030  1.9807 -1.2981
   68SAPC  C310 5797   1.623   0.359   7.717  0.4002  0.5706  0.0225
   68SAPC  H10X 5798   1.546   0.436   7.693  0.5908  1.7318  2.7031
   68SAPC  H10Y 5799   1.722   0.409   7.710  0.8807 -0.4740 -0.7663
   68SAPC  C311 5800   1.611   0.302   7.861 -0.6254 -0.1941  0.5339
   68SAPC  H11X 5801   1.688   0.229   7.894  1.3717  1.7491  0.3803
   68SAPC  H11Y 5802   1.509   0.258   7.849 -0.0295 -1.7806  0.9377
   68SAPC  C312 5803   1.603   0.413   7.969  0.3534  0.1211 -0.1264
   68SAPC  H12X 5804   1.552   0.504   7.932 -0.7919  0.0770  1.2487
   68SAPC  H12Y 5805   1.704   0.441   8.007  0.2766 -0.9054  0.8918
   68SAPC  C313 5806   1.512   0.372   8.087 -0.6126  0.1317  0.0915
   68SAPC  H13X 5807   1.542   0.276   8.134  0.1295 -0.6448 -1.8905
   68SAPC  H13Y 5808   1.409   0.353   8.050 -0.1509 -1.7433 -0.3321
   68SAPC  C314 5809   1.526   0.476   8.205  0.4665  0.2885 -0.0104
   68SAPC  H14X 5810   1.632   0.489   8.234 -0.0037 -0.4551  2.1939
   68SAPC  H14Y 5811   1.470   0.431   8.290  0.7436 -0.9895 -0.4758
   68SAPC  C315 5812   1.468   0.615   8.177 -0.8220 -0.4938 -0.7683
   68SAPC  H15X 5813   1.361   0.610   8.148 -1.2175 -2.2920  0.7922
   68SAPC  H15Y 5814   1.509   0.673   8.091 -2.3293  1.8291  0.0058
   68SAPC  C316 5815   1.481   0.703   8.302 -0.1517 -0.0594 -0.1749
   68SAPC  H16X 5816   1.579   0.684   8.351  0.4335  0.9555 -0.9193
   68SAPC  H16Y 5817   1.406   0.677   8.379 -0.3371 -0.1393 -0.3821
   68SAPC  C317 5818   1.467   0.849   8.271 -0.0746 -0.2001  0.4081
   68SAPC  H17X 5819   1.392   0.869   8.191 -0.3623 -2.1121  0.1591
   68SAPC  H17Y 5820   1.563   0.894   8.240 -1.0420  2.9207  1.5438
   68SAPC  C318 5821   1.429   0.917   8.404 -0.4129  0.0982  0.4350
   68SAPC  H18X 5822   1.338   0.872   8.448 -0.4337  2.1285  2.7153
   68SAPC  H18Y 5823   1.411   1.024   8.377 -1.4634  0.1057  1.1060
   68SAPC  H18Z 5824   1.503   0.912   8.486 -0.7831 -1.5977  0.7021
   69SLPC     N 5825   0.744   3.121  11.395 -0.4134  0.2138 -0.3325
   69SLPC   C13 5826   0.676   2.987  11.406 -0.3091 -0.7592  0.8013
   69SLPC  H13A 5827   0.735   2.914  11.459 -2.1965 -3.6110 -0.8098
   69SLPC  H13B 5828   0.580   2.991  11.456 -0.1784 -0.8755  1.0614
   69SLPC  H13C 5829   0.651   2.956  11.306  0.0050  0.6369  0.2674
   69SLPC   C14 5830   0.782   3.166  11.533 -0.0206 -0.7204  0.5386
   69SLPC  H14A 5831   0.806   3.271  11.529 -0.5788 -0.6295 -1.9527
   69SLPC  H14B 5832   0.700   3.163  11.603  0.0568 -0.0135  0.6598
   69SLPC  H14C 5833   0.865   3.113  11.577  0.4025 -0.5386 -0.0278
   69SLPC   C15 5834   0.633   3.218  11.345  0.2668  0.2940  0.2478
   69SLPC  H15A 5835   0.679   3.315  11.350 -0.0680  0.3856  2.2546
   69SLPC  H15B 5836   0.608   3.194  11.242 -2.5293 -1.2006  1.1719
   69SLPC  H15C 5837   0.545   3.215  11.407  0.5824 -0.5435  0.6708
   69SLPC   C12 5838   0.862   3.128  11.297  0.0431  0.6570 -0.8533
   69SLPC  H12A 5839   0.941   3.079  11.351 -1.1427 -0.0229  0.3398
   69SLPC  H12B 5840   0.891   3.232  11.300 -3.1603  1.6926  3.0081
   69SLPC   C11 5841   0.857   3.068  11.152 -0.2567 -0.3306  0.0773
   69SLPC  H11A 5842   0.825   2.961  11.159 -0.3073 -0.3952 -0.9455
   69SLPC  H11B 5843   0.965   3.076  11.125  0.1188 -1.0968  1.2659
   69SLPC     P 5844   0.708   3.090  10.944  0.1724 -0.2817  0.3909
   69SLPC   O13 5845   0.622   2.978  10.993  0.0653 -0.1615 -0.4018
   69SLPC   O14 5846   0.642   3.200  10.872  0.3682 -0.0685 -0.0270
   69SLPC   O12 5847   0.782   3.151  11.068 -0.7284  0.4042 -0.4488
   69SLPC   O11 5848   0.818   3.027  10.846  0.0199  0.0450  0.2011
   69SLPC    C1 5849   0.933   3.099  10.799 -0.0533  0.0778 -0.2678
   69SLPC    HA 5850   0.933   3.204  10.835  1.8966  0.0625 -0.1123
   69SLPC    HB 5851   1.029   3.059  10.837  0.4304  0.7821 -0.7263
   69SLPC    C2 5852   0.943   3.115  10.643  0.3431 -0.3103 -0.1010
   69SLPC    HS 5853   1.025   3.185  10.617 -0.8149  1.1325 -0.0155
   69SLPC   O21 5854   0.810   3.157  10.599 -0.4436  0.4077 -0.4260
   69SLPC   C21 5855   0.774   3.275  10.639  0.2141 -0.3349  0.4945
   69SLPC   O22 5856   0.844   3.358  10.689 -0.8649 -0.2392  0.9087
   69SLPC   C22 5857   0.636   3.309  10.602  0.4271 -0.3121  0.2658
   69SLPC   H2R 5858   0.581   3.216  10.577  1.3897 -1.2572  1.5367
   69SLPC   H2S 5859   0.593   3.357  10.692  2.4392  0.4381  0.8636
   69SLPC    C3 5860   0.979   2.983  10.579  0.3437  0.1182  0.0063
   69SLPC    HX 5861   0.897   2.911  10.602  1.6392 -0.3970  3.7545
   69SLPC    HY 5862   1.068   2.954  10.639  1.1922 -0.4315 -1.4722
   69SLPC   O31 5863   1.015   2.985  10.440  0.6276  0.1324 -0.0511
   69SLPC   C31 5864   1.064   2.864  10.389 -0.4648 -0.0582  0.3223
   69SLPC   O32 5865   1.077   2.759  10.446 -0.1169  0.2867 -0.3087
   69SLPC   C32 5866   1.119   2.878  10.249 -0.2855  0.5580  0.1207
   69SLPC   H2X 5867   1.209   2.814  10.251  0.4894  1.6456  1.2113
   69SLPC   H2Y 5868   1.156   2.983  10.248  2.8574 -0.4339  1.8752
   69SLPC   C23 5869   0.643   3.411  10.486 -0.2993 -0.0490  0.1152
   69SLPC   H3R 5870   0.714   3.493  10.511  2.6663 -2.7125  1.0191
   69SLPC   H3S 5871   0.540   3.451  10.476  0.4172  1.6203 -1.0525
   69SLPC   C24 5872   0.680   3.352  10.344  0.3248  0.0618  0.0229
   69SLPC   H4R 5873   0.779   3.301  10.347  1.5079  2.1695 -0.9895
   69SLPC   H4S 5874   0.694   3.429  10.265  1.2532  1.3036  1.3500
   69SLPC   C25 5875   0.573   3.250  10.296 -0.0560 -0.0378  0.0253
   69SLPC   H5R 5876   0.479   3.296  10.332  0.7532  1.0033  0.8877
   69SLPC   H5S 5877   0.592   3.148  10.335  0.0829  0.0966  0.3081
   69SLPC   C26 5878   0.573   3.245  10.147  1.0216  0.7159  0.3811
   69SLPC   H6R 5879   0.536   3.346  10.121 -1.3954 -0.5641 -1.5581
   69SLPC   H6S 5880   0.499   3.174  10.104  1.2953  2.2649 -2.9359
   69SLPC   C27 5881   0.696   3.211  10.061 -0.1628 -0.3214  0.1260
   69SLPC   H7R 5882   0.723   3.107  10.088 -0.1982 -0.7023 -1.2143
   69SLPC   H7S 5883   0.781   3.274  10.095 -0.5422  0.0042  0.4926
   69SLPC   C28 5884   0.665   3.233   9.905  0.4981 -0.0868  0.0458
   69SLPC   H8R 5885   0.560   3.202   9.888  1.1665 -1.7768 -1.1559
   69SLPC   H8S 5886   0.738   3.173   9.847 -0.2162 -0.0891 -0.8671
   69SLPC   C29 5887   0.679   3.371   9.865  0.0284  0.9769 -0.1869
   69SLPC   H9R 5888   0.658   3.444   9.945 -0.5102  1.3839 -0.6878
   69SLPC  C210 5889   0.716   3.412   9.741 -0.1359  0.1557  0.2704
   69SLPC  H10R 5890   0.722   3.519   9.715 -0.1804  0.9225  3.0377
   69SLPC  C211 5891   0.731   3.314   9.622 -0.0939  0.0511  0.1870
   69SLPC  H11R 5892   0.677   3.217   9.632 -2.4332  0.8932 -2.8594
   69SLPC  H11S 5893   0.834   3.286   9.593  0.0742  0.5862  0.2700
   69SLPC  C212 5894   0.678   3.380   9.495 -0.1738  0.2770  0.0200
   69SLPC  H12R 5895   0.583   3.435   9.500 -0.1971  0.4293 -1.5950
   69SLPC  C213 5896   0.727   3.388   9.370  0.4906  0.0487  0.7433
   69SLPC  H13R 5897   0.668   3.433   9.290  1.8839  0.1822 -0.2417
   69SLPC  C214 5898   0.856   3.328   9.308 -0.2615 -0.2322 -0.3174
   69SLPC  H14R 5899   0.858   3.220   9.334  0.5311  0.3628  2.4055
   69SLPC  H14S 5900   0.948   3.370   9.355 -1.2014  2.4019 -0.6614
   69SLPC  C215 5901   0.863   3.348   9.157 -0.0868 -0.0337 -0.7790
   69SLPC  H15R 5902   0.867   3.457   9.136  1.1247  0.2751  0.8547
   69SLPC  H15S 5903   0.766   3.317   9.113 -1.4437  1.9767  0.6755
   69SLPC  C216 5904   0.995   3.289   9.094  0.7023  0.9417  0.1208
   69SLPC  H16R 5905   0.993   3.179   9.105 -1.4449  0.9387  0.1593
   69SLPC  H16S 5906   1.092   3.326   9.134  0.7957  0.7417  0.0826
   69SLPC  C217 5907   0.996   3.320   8.950  0.3841  0.5536  0.1675
   69SLPC  H17R 5908   1.101   3.310   8.916  0.0083 -1.6338 -0.4853
   69SLPC  H17S 5909   0.956   3.423   8.935  0.4581  0.4594 -0.7467
   69SLPC  C218 5910   0.910   3.238   8.854  0.6600 -0.3378  0.2929
   69SLPC  H18R 5911   0.948   3.133   8.849 -2.8383 -1.7576  0.7304
   69SLPC  H18S 5912   0.898   3.288   8.756 -0.4893 -0.0145  0.5823
   69SLPC  H18T 5913   0.809   3.235   8.899  0.4855  0.9310  0.0304
   69SLPC   C33 5914   1.011   2.865  10.138 -0.4886  0.5091 -0.7124
   69SLPC   H3X 5915   0.928   2.936  10.157  1.2703  2.0280  1.9165
   69SLPC   H3Y 5916   0.969   2.763  10.130  0.1325  0.2223 -0.4237
   69SLPC   C34 5917   1.063   2.889   9.998 -1.1161 -0.2040  0.3139
   69SLPC   H4X 5918   1.147   2.821   9.971  0.5025  2.6733 -2.7404
   69SLPC   H4Y 5919   1.115   2.987  10.007 -0.0555 -0.4743 -2.0342
   69SLPC   C35 5920   0.954   2.895   9.893 -0.1613 -0.6214  0.6437
   69SLPC   H5X 5921   0.890   2.981   9.920  0.4379  0.5665 -1.4548
   69SLPC   H5Y 5922   0.903   2.797   9.887 -0.3807 -0.4599 -0.3232
   69SLPC   C36 5923   1.017   2.931   9.757  0.3478  0.1511  0.0211
   69SLPC   H6X 5924   1.111   2.872   9.748 -0.6515 -1.5585  0.2857
   69SLPC   H6Y 5925   1.042   3.039   9.758  0.5794  0.1329 -1.5137
   69SLPC   C37 5926   0.923   2.882   9.642 -0.7801 -0.5279  0.1042
   69SLPC   H7X 5927   0.848   2.963   9.635 -1.5466 -1.2609 -0.3839
   69SLPC   H7Y 5928   0.882   2.784   9.674 -1.5301  0.5346  2.6457
   69SLPC   C38 5929   0.992   2.873   9.504  0.1029 -0.2032  0.0621
   69SLPC   H8X 5930   1.069   2.793   9.512  0.6171 -0.0109 -2.3156
   69SLPC   H8Y 5931   1.040   2.969   9.476 -1.3024  0.4839 -0.0983
   69SLPC   C39 5932   0.886   2.850   9.391  0.6635 -0.0971  0.0617
   69SLPC   H9X 5933   0.798   2.917   9.400  1.1554  0.6089 -0.3273
   69SLPC   H9Y 5934   0.838   2.751   9.409  3.5166 -1.0607  3.2626
   69SLPC  C310 5935   0.927   2.858   9.244  0.6549 -0.4200  0.2855
   69SLPC  H10X 5936   1.018   2.793   9.242  0.7889 -0.2300 -1.3212
   69SLPC  H10Y 5937   0.958   2.962   9.220  0.2544 -0.4008 -0.1564
   69SLPC  C311 5938   0.828   2.804   9.140  0.2325 -0.0942  0.0433
   69SLPC  H11X 5939   0.727   2.850   9.150 -1.9432 -4.4278  0.2805
   69SLPC  H11Y 5940   0.814   2.695   9.154  1.1397 -0.4960 -1.8600
   69SLPC  C312 5941   0.860   2.828   8.988 -0.9031  0.3415 -0.0660
   69SLPC  H12X 5942   0.870   2.938   8.972 -0.1280  0.2740 -0.1018
   69SLPC  H12Y 5943   0.778   2.791   8.923 -1.6270  1.5419  0.1346
   69SLPC  C313 5944   0.992   2.767   8.942 -0.1742  0.2115 -0.0398
   69SLPC  H13X 5945   1.054   2.755   9.034  0.4520  1.4442 -0.2711
   69SLPC  H13Y 5946   1.057   2.833   8.881 -1.1310 -0.8080 -2.2499
   69SLPC  C314 5947   0.955   2.645   8.849 -0.1582  0.3050  0.0683
   69SLPC  H14X 5948   0.892   2.691   8.771 -0.4315  0.4441  0.3668
   69SLPC  H14Y 5949   0.891   2.576   8.908 -0.7283  0.7806  0.0148
   69SLPC  C315 5950   1.084   2.564   8.809  0.3329 -0.7931  0.0238
   69SLPC  H15X 5951   1.143   2.632   8.744 -1.1713  2.2678  1.6151
   69SLPC  H15Y 5952   1.045   2.474   8.758  1.5153 -0.7107 -1.0668
   69SLPC  C316 5953   1.160   2.507   8.934  0.6694  0.4276 -0.1851
   69SLPC  H16X 5954   1.092   2.508   9.022  0.9532 -0.2956  0.0455
   69SLPC  H16Y 5955   1.240   2.582   8.952  0.7743 -0.3307  3.1492
   69SLPC  C317 5956   1.223   2.371   8.910 -0.0353 -0.7062 -0.0873
   69SLPC  H17X 5957   1.142   2.297   8.897 -1.0115  0.4973 -1.0254
   69SLPC  H17Y 5958   1.277   2.337   9.001  1.3241  2.3314  0.3849
   69SLPC  C318 5959   1.316   2.382   8.787 -0.0267 -0.5576 -1.0515
   69SLPC  H18X 5960   1.377   2.474   8.796 -1.6292  0.3977  0.7458
   69SLPC  H18Y 5961   1.273   2.381   8.684 -0.2511 -1.7486 -0.9605
   69SLPC  H18Z 5962   1.392   2.301   8.780  1.8028  1.1187 -1.3663
   70SLPC     N 5963   1.722   1.731  10.636  0.1142 -0.0763  0.2343
   70SLPC   C13 5964   1.826   1.826  10.669  0.2575 -0.1952  0.5058
   70SLPC  H13A 5965   1.870   1.866  10.579 -1.0320 -2.1246 -1.0396
   70SLPC  H13B 5966   1.794   1.908  10.732 -0.7919 -0.4224  0.2765
   70SLPC  H13C 5967   1.910   1.774  10.712  0.3890 -0.6895 -0.3422
   70SLPC   C14 5968   1.766   1.641  10.520 -0.5017 -0.1524  0.2172
   70SLPC  H14A 5969   1.678   1.594  10.479  0.0305 -0.7299 -0.2769
   70SLPC  H14B 5970   1.819   1.705  10.451 -2.4796  2.8981  1.2984
   70SLPC  H14C 5971   1.828   1.557  10.546  0.3189  0.0109 -1.1111
   70SLPC   C15 5972   1.598   1.809  10.588  0.3570 -0.2880 -0.1561
   70SLPC  H15A 5973   1.623   1.878  10.508 -1.6193  1.2722  0.4861
   70SLPC  H15B 5974   1.531   1.732  10.551 -1.1310  0.2721  1.2696
   70SLPC  H15C 5975   1.556   1.866  10.669  0.7278 -0.5598  0.2264
   70SLPC   C12 5976   1.679   1.649  10.753  0.9245 -0.4675 -0.3109
   70SLPC  H12A 5977   1.662   1.721  10.831  3.4695  0.4603 -0.4978
   70SLPC  H12B 5978   1.769   1.597  10.782  1.5357 -0.5298 -2.1711
   70SLPC   C11 5979   1.557   1.562  10.755  0.2138  0.5216 -0.7386
   70SLPC  H11A 5980   1.558   1.517  10.856 -0.3751 -1.3061 -1.4994
   70SLPC  H11B 5981   1.558   1.488  10.672  0.5693 -0.1144 -0.1797
   70SLPC     P 5982   1.297   1.594  10.783  0.1650  0.1956  0.1592
   70SLPC   O13 5983   1.300   1.516  10.911  0.1952  0.2887 -0.0478
   70SLPC   O14 5984   1.199   1.705  10.782  0.0442  0.1621 -0.1296
   70SLPC   O12 5985   1.440   1.652  10.742 -0.3997 -0.1093  0.3598
   70SLPC   O11 5986   1.264   1.492  10.666  0.2845 -0.4922 -0.9600
   70SLPC    C1 5987   1.288   1.519  10.531 -0.2295 -0.1463  0.7106
   70SLPC    HA 5988   1.370   1.592  10.518 -1.0108  1.1092  2.4220
   70SLPC    HB 5989   1.321   1.421  10.490 -0.9854 -0.9698  1.9780
   70SLPC    C2 5990   1.163   1.573  10.451 -0.5864 -0.0258  0.0801
   70SLPC    HS 5991   1.129   1.664  10.504  1.2172  0.5395  0.3464
   70SLPC   O21 5992   1.056   1.468  10.447  0.3181  0.1948 -0.0326
   70SLPC   C21 5993   0.935   1.515  10.414  0.4822 -0.0219  0.8573
   70SLPC   O22 5994   0.913   1.637  10.404  0.1035  0.3325  0.0834
   70SLPC   C22 5995   0.837   1.405  10.389  0.6667  0.2693  0.4859
   70SLPC   H2R 5996   0.858   1.315  10.450  0.6446  0.6633  1.0854
   70SLPC   H2S 5997   0.739   1.446  10.421 -0.8520 -1.3950 -1.7295
   70SLPC    C3 5998   1.206   1.615  10.307  0.6614 -0.4850  0.4138
   70SLPC    HX 5999   1.114   1.639  10.249  2.2054  2.4021 -1.1006
   70SLPC    HY 6000   1.250   1.528  10.253 -0.9500  0.8427 -3.4036
   70SLPC   O31 6001   1.302   1.717  10.305  0.0023  0.4282 -0.2775
   70SLPC   C31 6002   1.266   1.840  10.263 -0.1969  0.7311  0.5974
   70SLPC   O32 6003   1.158   1.867  10.212  0.1894 -0.2269  0.3027
   70SLPC   C32 6004   1.373   1.947  10.276 -0.1125  0.9749  0.7771
   70SLPC   H2X 6005   1.466   1.897  10.310  0.1103  0.0962 -0.9933
   70SLPC   H2Y 6006   1.338   2.008  10.362 -1.2630 -0.0002  1.0373
   70SLPC   C23 6007   0.820   1.363  10.242 -0.0428 -0.1542 -0.8980
   70SLPC   H3R 6008   0.801   1.454  10.180 -1.1450 -0.3301 -0.8382
   70SLPC   H3S 6009   0.736   1.293  10.225  0.6620 -0.7359 -2.1412
   70SLPC   C24 6010   0.947   1.287  10.182  0.2356  0.4375 -0.0781
   70SLPC   H4R 6011   0.950   1.179  10.209 -0.2602  0.5903  0.5964
   70SLPC   H4S 6012   1.034   1.318  10.245 -0.6452  1.3901  0.7035
   70SLPC   C25 6013   0.975   1.319  10.037  0.0008  0.5045 -0.2572
   70SLPC   H5R 6014   1.066   1.262  10.010  0.5768  1.7258 -0.9951
   70SLPC   H5S 6015   1.000   1.427  10.026 -3.4923  1.4467 -0.3092
   70SLPC   C26 6016   0.865   1.298   9.929 -0.1973 -0.8209 -0.2250
   70SLPC   H6R 6017   0.781   1.360   9.966  0.9835 -0.9199  2.9269
   70SLPC   H6S 6018   0.833   1.192   9.935 -2.0547 -0.2164  1.0969
   70SLPC   C27 6019   0.920   1.344   9.787  0.1146  0.9691  0.3584
   70SLPC   H7R 6020   1.009   1.281   9.765 -0.2718  0.2691  0.7886
   70SLPC   H7S 6021   0.942   1.452   9.771 -2.4191  1.2364 -2.1579
   70SLPC   C28 6022   0.808   1.306   9.679  0.1196  0.1848  0.7435
   70SLPC   H8R 6023   0.722   1.373   9.699 -1.2732 -1.4511  0.5209
   70SLPC   H8S 6024   0.770   1.204   9.705  0.9882 -0.9538 -2.0660
   70SLPC   C29 6025   0.847   1.321   9.533 -0.5869 -0.1331 -0.5469
   70SLPC   H9R 6026   0.935   1.379   9.501 -2.6373  1.3081 -4.1926
   70SLPC  C210 6027   0.779   1.265   9.441  0.3394  0.0237  0.3588
   70SLPC  H10R 6028   0.815   1.275   9.338 -0.7263 -1.5748 -0.2054
   70SLPC  C211 6029   0.662   1.171   9.464  0.4511 -0.2669  0.1670
   70SLPC  H11R 6030   0.565   1.215   9.434 -0.1823 -2.5315 -1.4080
   70SLPC  H11S 6031   0.644   1.143   9.570 -2.3128 -3.8959 -1.0243
   70SLPC  C212 6032   0.684   1.046   9.380 -0.9198 -0.9114  0.0758
   70SLPC  H12R 6033   0.757   0.977   9.424  0.4364  0.1924 -0.3956
   70SLPC  C213 6034   0.644   1.026   9.257 -0.1563  0.5487  0.7029
   70SLPC  H13R 6035   0.678   0.935   9.206  0.5495  1.1927 -0.0031
   70SLPC  C214 6036   0.558   1.110   9.164  0.0229 -0.0654 -0.2041
   70SLPC  H14R 6037   0.454   1.111   9.202  0.9020 -2.8072  2.7565
   70SLPC  H14S 6038   0.545   1.057   9.066 -4.1711 -1.4082  0.8630
   70SLPC  C215 6039   0.604   1.246   9.127  0.4513 -0.4170 -0.9949
   70SLPC  H15R 6040   0.614   1.311   9.216  2.3148  1.3785 -2.4169
   70SLPC  H15S 6041   0.535   1.296   9.056 -1.9526  0.9626  2.0722
   70SLPC  C216 6042   0.748   1.232   9.064 -0.3128  0.0489  0.8498
   70SLPC  H16R 6043   0.743   1.152   8.987  1.5227 -0.9845  1.7485
   70SLPC  H16S 6044   0.815   1.202   9.147  0.0809 -0.2192  0.4400
   70SLPC  C217 6045   0.809   1.360   9.004 -0.1815  0.7559 -0.4074
   70SLPC  H17R 6046   0.915   1.361   9.036  0.1083  1.0243 -1.3563
   70SLPC  H17S 6047   0.766   1.452   9.050  2.5230  2.9517 -1.9982
   70SLPC  C218 6048   0.812   1.374   8.849  0.2283  0.0937 -0.1496
   70SLPC  H18R 6049   0.706   1.392   8.821  0.4714  0.0816 -1.1315
   70SLPC  H18S 6050   0.854   1.283   8.799 -1.2388 -1.3315  1.0987
   70SLPC  H18T 6051   0.856   1.473   8.825 -2.2973  1.0976 -1.0165
   70SLPC   C33 6052   1.388   2.035  10.156  0.3884  0.6257 -0.8361
   70SLPC   H3X 6053   1.393   1.973  10.064 -0.7954  1.9529 -1.8523
   70SLPC   H3Y 6054   1.493   2.069  10.168  1.3550 -2.0801 -1.0077
   70SLPC   C34 6055   1.300   2.154  10.132 -0.2432 -0.1233 -0.1198
   70SLPC   H4X 6056   1.290   2.203  10.231 -1.8166 -0.2014 -0.2214
   70SLPC   H4Y 6057   1.197   2.115  10.120  0.1878 -1.6972  1.0296
   70SLPC   C35 6058   1.341   2.229  10.004  0.8137 -0.0329  0.6105
   70SLPC   H5X 6059   1.451   2.227   9.988  0.9408 -2.9395  1.3674
   70SLPC   H5Y 6060   1.321   2.338  10.003  1.2329  0.0692 -1.5700
   70SLPC   C36 6061   1.284   2.167   9.875  0.1859  0.3504 -0.4160
   70SLPC   H6X 6062   1.173   2.172   9.874  0.1779  1.5362  1.4251
   70SLPC   H6Y 6063   1.311   2.060   9.877  0.4149  0.3836  2.3246
   70SLPC   C37 6064   1.340   2.235   9.747  0.5253  0.3971 -0.3873
   70SLPC   H7X 6065   1.447   2.260   9.763  0.9584 -2.1947  1.2884
   70SLPC   H7Y 6066   1.275   2.322   9.723 -2.6791 -2.1464 -1.7144
   70SLPC   C38 6067   1.331   2.147   9.622  0.0141  0.0141  0.6748
   70SLPC   H8X 6068   1.224   2.131   9.598 -0.0147 -0.7798  1.2794
   70SLPC   H8Y 6069   1.379   2.047   9.633 -1.7217 -0.9081  0.2256
   70SLPC   C39 6070   1.394   2.207   9.493  0.0687  0.1357  0.0764
   70SLPC   H9X 6071   1.503   2.210   9.515 -0.1379 -1.9372  1.7819
   70SLPC   H9Y 6072   1.364   2.313   9.481  0.9138  0.1493 -2.6545
   70SLPC  C310 6073   1.356   2.121   9.374  0.2203  0.5378  0.0222
   70SLPC  H10X 6074   1.247   2.132   9.353  0.2492 -0.4056 -0.7446
   70SLPC  H10Y 6075   1.374   2.018   9.411 -0.5839  0.0177 -0.9775
   70SLPC  C311 6076   1.440   2.141   9.245 -0.1727 -0.2786  0.3086
   70SLPC  H11X 6077   1.543   2.112   9.273 -0.0770  0.8641  1.2034
   70SLPC  H11Y 6078   1.438   2.248   9.214  1.1994  0.1959  1.7223
   70SLPC  C312 6079   1.401   2.052   9.125 -0.4155 -0.5727 -0.8255
   70SLPC  H12X 6080   1.293   2.067   9.105  0.1017  1.0921 -2.7791
   70SLPC  H12Y 6081   1.421   1.944   9.146 -0.1675 -0.2398  0.7504
   70SLPC  C313 6082   1.490   2.083   9.000  0.5598 -0.3517 -0.5744
   70SLPC  H13X 6083   1.597   2.100   9.023  0.6923 -1.7661 -0.0461
   70SLPC  H13Y 6084   1.440   2.173   8.957 -0.9106 -0.8447  0.0382
   70SLPC  C314 6085   1.496   1.976   8.891  0.4364 -0.1383  0.4169
   70SLPC  H14X 6086   1.554   1.886   8.922  2.3708  1.4986  1.8306
   70SLPC  H14Y 6087   1.532   2.015   8.793 -2.0640 -1.3546 -1.0849
   70SLPC  C315 6088   1.355   1.915   8.852  0.0099 -0.4086 -0.1746
   70SLPC  H15X 6089   1.305   2.001   8.802  0.2902  0.3787  0.8632
   70SLPC  H15Y 6090   1.308   1.882   8.947  2.6779 -1.8884  0.7226
   70SLPC  C316 6091   1.365   1.796   8.757  0.1559  0.0063 -0.4896
   70SLPC  H16X 6092   1.259   1.762   8.748  0.1784 -0.1094 -0.3034
   70SLPC  H16Y 6093   1.424   1.720   8.812  1.6939  0.8580 -0.8932
   70SLPC  C317 6094   1.423   1.827   8.614 -0.2191 -1.2123  0.4540
   70SLPC  H17X 6095   1.435   1.722   8.579  2.9060 -1.6716  2.5084
   70SLPC  H17Y 6096   1.522   1.877   8.621 -0.0347 -1.4510 -0.3266
   70SLPC  C318 6097   1.342   1.924   8.533 -0.0770 -0.2894 -0.1786
   70SLPC  H18X 6098   1.382   1.937   8.430  1.1294 -0.2895  0.2821
   70SLPC  H18Y 6099   1.353   2.027   8.573 -2.6683 -0.2530  0.6730
   70SLPC  H18Z 6100   1.232   1.904   8.529 -0.3128  0.8074  0.3806
   71SLPC     N 6101   5.876   1.192  10.683 -0.1044 -0.1822 -0.2857
   71SLPC   C13 6102   5.983   1.279  10.631 -0.0708  0.6451  0.3882
   71SLPC  H13A 6103   5.973   1.341  10.543  0.9386 -1.2567 -1.1326
   71SLPC  H13B 6104   6.010   1.344  10.713 -2.4812 -0.6902  2.3936
   71SLPC  H13C 6105   6.073   1.221  10.618 -0.1405  0.4976  0.5635
   71SLPC   C14 6106   5.914   1.151  10.819  0.7821 -0.2156  0.1520
   71SLPC  H14A 6107   5.918   1.232  10.889  1.5576  0.0953 -0.2423
   71SLPC  H14B 6108   5.845   1.083  10.868  0.8128 -0.6091 -0.3321
   71SLPC  H14C 6109   6.007   1.097  10.831 -0.6480 -2.6990  0.9813
   71SLPC   C15 6110   5.856   1.073  10.599  0.4845 -0.6486  0.0518
   71SLPC  H15A 6111   5.946   1.013  10.586  0.7098  0.0301 -1.9190
   71SLPC  H15B 6112   5.777   1.016  10.644 -1.0724  0.8331 -0.6937
   71SLPC  H15C 6113   5.816   1.096  10.501 -0.5955 -0.8623  0.4288
   71SLPC   C12 6114   5.747   1.271  10.701 -0.9254 -0.7612 -0.5557
   71SLPC  H12A 6115   5.778   1.364  10.746  0.7565 -1.6572  0.2528
   71SLPC  H12B 6116   5.692   1.201  10.762 -0.9759 -0.3765 -0.1638
   71SLPC   C11 6117   5.662   1.298  10.580 -0.4910 -1.3995 -0.3790
   71SLPC  H11A 6118   5.725   1.340  10.498 -0.2056  1.7413  1.3017
   71SLPC  H11B 6119   5.590   1.380  10.603  0.1761 -0.2561 -2.1326
   71SLPC     P 6120   5.459   1.129  10.620  0.0444 -0.5832  0.0427
   71SLPC   O13 6121   5.409   1.006  10.561 -0.0140 -0.1468 -0.0778
   71SLPC   O14 6122   5.488   1.127  10.768  0.1334  0.0983 -0.4699
   71SLPC   O12 6123   5.597   1.179  10.543 -0.3881 -0.1915  0.4978
   71SLPC   O11 6124   5.364   1.253  10.596 -0.1200 -0.4786 -0.2362
   71SLPC    C1 6125   5.268   1.250  10.488  0.1714  0.1639 -0.4206
   71SLPC    HA 6126   5.195   1.167  10.502  0.1613  0.1110 -0.7802
   71SLPC    HB 6127   5.209   1.344  10.486  0.7276  0.5149 -0.7775
   71SLPC    C2 6128   5.324   1.239  10.337 -0.1559  0.2970  0.1528
   71SLPC    HS 6129   5.356   1.134  10.324  1.7714  1.0414 -1.6470
   71SLPC   O21 6130   5.424   1.332  10.310 -0.1303 -0.1141 -0.3543
   71SLPC   C21 6131   5.522   1.293  10.235 -0.3832  0.4512  0.5554
   71SLPC   O22 6132   5.538   1.183  10.178  1.0192  0.4518 -0.0471
   71SLPC   C22 6133   5.629   1.403  10.232  0.3289 -0.4642 -0.3642
   71SLPC   H2R 6134   5.628   1.456  10.330  2.2342  0.0707 -0.5988
   71SLPC   H2S 6135   5.723   1.344  10.223  0.3021 -0.8163  1.4232
   71SLPC    C3 6136   5.212   1.284  10.238 -0.2229 -0.5818 -0.3047
   71SLPC    HX 6137   5.176   1.384  10.268 -0.6276 -0.9921  0.6386
   71SLPC    HY 6138   5.122   1.221  10.256  0.2912 -1.4246 -0.6163
   71SLPC   O31 6139   5.255   1.281  10.099  0.1766 -0.6465 -0.1737
   71SLPC   C31 6140   5.159   1.292  10.011  0.5313  0.2721  0.9774
   71SLPC   O32 6141   5.038   1.294  10.028  0.0991  0.9325  0.8570
   71SLPC   C32 6142   5.225   1.297   9.870  0.1825  0.3212  0.8245
   71SLPC   H2X 6143   5.296   1.213   9.854 -0.8836 -0.5199  0.3871
   71SLPC   H2Y 6144   5.285   1.390   9.862  0.8844 -0.2659 -1.4070
   71SLPC   C23 6145   5.603   1.495  10.113  0.1142 -0.4594 -0.1742
   71SLPC   H3R 6146   5.661   1.589  10.121 -0.0286 -0.4289  0.5172
   71SLPC   H3S 6147   5.498   1.524  10.134 -0.0320 -0.9598 -0.1883
   71SLPC   C24 6148   5.611   1.429   9.975 -0.0255 -0.4588  0.4936
   71SLPC   H4R 6149   5.531   1.355   9.956 -0.7944  0.2412  0.9422
   71SLPC   H4S 6150   5.706   1.373   9.958  0.3418 -0.2531  1.7680
   71SLPC   C25 6151   5.594   1.541   9.868  0.8010 -0.2647  0.2567
   71SLPC   H5R 6152   5.667   1.625   9.877 -0.1705  0.9823 -2.4395
   71SLPC   H5S 6153   5.492   1.583   9.881  0.2279  0.0507 -3.8456
   71SLPC   C26 6154   5.596   1.486   9.722  0.5585 -0.4808 -0.8174
   71SLPC   H6R 6155   5.543   1.389   9.720  0.2197 -0.3291  0.3614
   71SLPC   H6S 6156   5.694   1.459   9.677  0.1589 -3.0686 -0.2848
   71SLPC   C27 6157   5.529   1.590   9.622  0.2766 -0.2440  0.4446
   71SLPC   H7R 6158   5.602   1.674   9.620 -0.3571  0.3020 -0.9817
   71SLPC   H7S 6159   5.427   1.623   9.650 -0.0885 -0.1626 -0.9296
   71SLPC   C28 6160   5.511   1.518   9.491 -0.4702 -0.0049  0.3987
   71SLPC   H8R 6161   5.435   1.437   9.496 -0.3258 -0.0843  1.3636
   71SLPC   H8S 6162   5.610   1.477   9.459 -0.0206  1.6980 -0.4837
   71SLPC   C29 6163   5.462   1.613   9.383 -0.2629 -0.1602  0.8831
   71SLPC   H9R 6164   5.352   1.611   9.373 -0.3154 -1.3951  1.5792
   71SLPC  C210 6165   5.547   1.680   9.302 -0.4880 -0.8643  0.9384
   71SLPC  H10R 6166   5.512   1.733   9.212  0.9059 -1.2692  0.1290
   71SLPC  C211 6167   5.702   1.681   9.308  0.9298 -0.0102 -0.7061
   71SLPC  H11R 6168   5.743   1.579   9.289 -0.3918 -0.9016  0.9702
   71SLPC  H11S 6169   5.728   1.705   9.413 -1.8424  1.4523 -0.2592
   71SLPC  C212 6170   5.760   1.788   9.215 -0.2698  0.7050  0.4260
   71SLPC  H12R 6171   5.683   1.847   9.163 -0.7417 -0.1183  0.1625
   71SLPC  C213 6172   5.891   1.813   9.211  0.2226 -0.3191 -0.3019
   71SLPC  H13R 6173   5.925   1.898   9.149 -1.6719  0.5317 -0.2404
   71SLPC  C214 6174   5.997   1.735   9.285  0.2147  0.0669 -0.0499
   71SLPC  H14R 6175   5.953   1.635   9.306 -0.6651 -0.0030 -2.0242
   71SLPC  H14S 6176   6.029   1.772   9.385 -0.7257 -0.6041  0.5150
   71SLPC  C215 6177   6.125   1.708   9.199 -0.2272  0.4705 -0.3241
   71SLPC  H15R 6178   6.183   1.636   9.260 -1.9033 -0.9250 -0.3197
   71SLPC  H15S 6179   6.172   1.809   9.194 -2.3444  1.5636  0.5882
   71SLPC  C216 6180   6.112   1.640   9.062  0.1082 -0.0501 -0.0239
   71SLPC  H16R 6181   6.045   1.717   9.019  1.1171  0.5514 -0.5340
   71SLPC  H16S 6182   6.058   1.543   9.075 -0.8754  0.8101  3.3159
   71SLPC  C217 6183   6.242   1.614   8.994 -0.8396  0.0306  0.3659
   71SLPC  H17R 6184   6.302   1.540   9.052 -2.4354 -2.2905 -0.7741
   71SLPC  H17S 6185   6.305   1.704   8.982 -0.3117 -0.6429 -2.5795
   71SLPC  C218 6186   6.220   1.553   8.855 -0.3737 -0.4192 -0.1270
   71SLPC  H18R 6187   6.322   1.534   8.815  0.3297  0.9661  0.9560
   71SLPC  H18S 6188   6.169   1.631   8.794  1.5234  1.3280  0.4084
   71SLPC  H18T 6189   6.172   1.453   8.858  0.7445 -1.1977 -3.5559
   71SLPC   C33 6190   5.128   1.294   9.751  0.2449 -0.7698  0.2031
   71SLPC   H3X 6191   5.066   1.386   9.758 -1.3825 -1.7153 -1.0036
   71SLPC   H3Y 6192   5.066   1.203   9.767 -0.0562 -0.3199  1.6553
   71SLPC   C34 6193   5.206   1.287   9.622 -0.9743 -0.1414  0.6792
   71SLPC   H4X 6194   5.242   1.186   9.591  1.3448  1.1727 -1.1855
   71SLPC   H4Y 6195   5.301   1.342   9.634  0.3962 -1.9657 -1.0049
   71SLPC   C35 6196   5.121   1.325   9.503 -0.1607 -0.0913  0.0678
   71SLPC   H5X 6197   5.184   1.358   9.417 -1.0472 -1.6779 -1.2538
   71SLPC   H5Y 6198   5.052   1.407   9.532 -0.4914 -0.5896  0.6970
   71SLPC   C36 6199   5.027   1.202   9.463 -0.1951 -0.3878 -0.0116
   71SLPC   H6X 6200   4.964   1.167   9.548 -2.0555  1.9824 -0.3007
   71SLPC   H6Y 6201   5.087   1.113   9.437  2.1822  0.3492  2.4455
   71SLPC   C37 6202   4.938   1.236   9.348  0.0048 -0.2423 -0.0181
   71SLPC   H7X 6203   4.889   1.334   9.366  1.3839  0.2807  1.0950
   71SLPC   H7Y 6204   4.840   1.185   9.356 -0.7532  1.4622  4.1778
   71SLPC   C38 6205   5.004   1.223   9.212 -0.1000  0.1284  0.5589
   71SLPC   H8X 6206   5.001   1.117   9.179  0.0214  0.3995 -0.3619
   71SLPC   H8Y 6207   5.107   1.261   9.231 -1.0657  3.2794  0.0726
   71SLPC   C39 6208   4.935   1.296   9.095 -0.5390  0.4342 -0.0074
   71SLPC   H9X 6209   4.923   1.398   9.138  2.2082  0.5867  0.5830
   71SLPC   H9Y 6210   4.827   1.281   9.075 -0.9342 -0.2497  2.4005
   71SLPC  C310 6211   5.025   1.314   8.973  0.9962 -0.4592 -0.8267
   71SLPC  H10X 6212   5.049   1.213   8.932 -0.5359 -1.1139 -0.1700
   71SLPC  H10Y 6213   5.129   1.348   8.990  1.6147 -1.4324 -2.3803
   71SLPC  C311 6214   4.952   1.405   8.868  0.2926  0.3700  0.4500
   71SLPC  H11X 6215   4.865   1.347   8.830  1.7309 -0.7447 -1.2595
   71SLPC  H11Y 6216   5.031   1.418   8.791  0.8328 -0.3560  0.8861
   71SLPC  C312 6217   4.906   1.545   8.917 -0.5995 -0.5300 -0.0944
   71SLPC  H12X 6218   4.985   1.608   8.963 -0.8847  0.4223 -0.8958
   71SLPC  H12Y 6219   4.820   1.536   8.988  1.1815 -2.5974  1.9609
   71SLPC  C313 6220   4.853   1.635   8.808  0.5012 -0.5674  0.6176
   71SLPC  H13X 6221   4.936   1.658   8.738 -0.3029 -0.5540 -0.3599
   71SLPC  H13Y 6222   4.828   1.733   8.854  0.6767 -1.0356  1.7233
   71SLPC  C314 6223   4.735   1.580   8.728  0.0713  0.0847 -0.3391
   71SLPC  H14X 6224   4.654   1.550   8.798  2.1652 -2.6722  1.1066
   71SLPC  H14Y 6225   4.780   1.482   8.699  0.7226  0.3257 -0.1584
   71SLPC  C315 6226   4.687   1.679   8.618  0.5406  0.1312 -0.1154
   71SLPC  H15X 6227   4.658   1.771   8.674 -1.7281 -0.0651 -0.8567
   71SLPC  H15Y 6228   4.590   1.636   8.583  0.6114 -0.1137 -0.0141
   71SLPC  C316 6229   4.786   1.718   8.501 -0.1213  0.3135 -0.1207
   71SLPC  H16X 6230   4.811   1.620   8.454 -0.5282  0.4312 -0.5813
   71SLPC  H16Y 6231   4.874   1.770   8.544 -1.8451  3.6041 -0.2854
   71SLPC  C317 6232   4.732   1.799   8.385  0.8863 -0.7880 -1.1903
   71SLPC  H17X 6233   4.691   1.893   8.429  2.5767 -1.3095  1.8228
   71SLPC  H17Y 6234   4.651   1.738   8.342 -1.2675  1.6991 -0.9097
   71SLPC  C318 6235   4.830   1.841   8.267  0.6916 -0.2224 -0.5088
   71SLPC  H18X 6236   4.909   1.905   8.312  1.4718 -1.7248  0.3363
   71SLPC  H18Y 6237   4.785   1.896   8.181  0.6406  0.9679  0.2462
   71SLPC  H18Z 6238   4.882   1.756   8.219  0.3146 -0.1670 -1.0243
   72SLPC     N 6239   0.450   1.108  10.800 -0.1979 -0.2236  0.7647
   72SLPC   C13 6240   0.309   1.128  10.765  0.1534 -0.1267 -0.9454
   72SLPC  H13A 6241   0.303   1.143  10.658  0.2714 -2.9038 -1.4203
   72SLPC  H13B 6242   0.250   1.038  10.777 -1.0892  0.6581 -0.9686
   72SLPC  H13C 6243   0.263   1.213  10.812  1.0733 -1.1840  2.0906
   72SLPC   C14 6244   0.440   1.053  10.943 -0.2738 -0.0436  0.7255
   72SLPC  H14A 6245   0.391   0.957  10.935  0.8382 -0.4775 -2.0715
   72SLPC  H14B 6246   0.537   1.043  10.991  0.5106  0.1417 -0.7514
   72SLPC  H14C 6247   0.382   1.127  10.995 -2.5060 -0.0622 -1.5304
   72SLPC   C15 6248   0.517   1.242  10.794  0.0582  0.0424  0.1192
   72SLPC  H15A 6249   0.618   1.239  10.832 -0.2338  0.2357  0.9306
   72SLPC  H15B 6250   0.518   1.299  10.702  3.5858  4.3320  2.4321
   72SLPC  H15C 6251   0.472   1.313  10.862  2.8682 -0.1305  2.3500
   72SLPC   C12 6252   0.515   1.016  10.707 -0.3225 -0.7405 -0.6718
   72SLPC  H12A 6253   0.473   0.919  10.734 -0.6917 -0.0545  1.3877
   72SLPC  H12B 6254   0.618   1.004  10.737 -0.3244 -0.4642 -0.5575
   72SLPC   C11 6255   0.504   1.042  10.550  0.1632 -0.0540  0.0307
   72SLPC  H11A 6256   0.565   0.965  10.499 -1.1652  0.0891 -1.8619
   72SLPC  H11B 6257   0.547   1.142  10.532 -1.2356  0.6361  0.3582
   72SLPC     P 6258   0.293   0.893  10.501 -0.4909  0.0147 -0.5687
   72SLPC   O13 6259   0.335   0.813  10.614 -0.3800  0.6286 -0.3709
   72SLPC   O14 6260   0.142   0.901  10.496 -0.5207 -0.3061 -0.1073
   72SLPC   O12 6261   0.368   1.032  10.500 -0.1077  0.3132  0.1747
   72SLPC   O11 6262   0.345   0.830  10.366 -0.0559  0.6139  0.8287
   72SLPC    C1 6263   0.314   0.889  10.241 -0.6124  0.0003  0.0659
   72SLPC    HA 6264   0.262   0.986  10.259  0.7146  0.6719  0.4051
   72SLPC    HB 6265   0.411   0.906  10.189  0.5584  1.4338  2.5404
   72SLPC    C2 6266   0.235   0.788  10.159  0.2386  0.8885  0.0217
   72SLPC    HS 6267   0.167   0.743  10.233 -1.4264  2.7097 -0.2978
   72SLPC   O21 6268   0.334   0.703  10.091  0.6124  0.1876 -0.4677
   72SLPC   C21 6269   0.303   0.577  10.080  0.4533 -0.0101 -0.1710
   72SLPC   O22 6270   0.211   0.522  10.143 -0.0724  0.1120  0.1893
   72SLPC   C22 6271   0.397   0.504   9.989  0.3393 -0.3855 -0.2958
   72SLPC   H2R 6272   0.452   0.580   9.930  0.2944  0.1567  0.3533
   72SLPC   H2S 6273   0.465   0.445  10.054  0.4273  0.8470  0.7720
   72SLPC    C3 6274   0.151   0.861  10.054  0.0650 -0.0489 -0.6011
   72SLPC    HX 6275   0.228   0.891   9.980  1.4435 -0.7344  0.5285
   72SLPC    HY 6276   0.098   0.945  10.103 -0.5830 -0.7084 -0.1396
   72SLPC   O31 6277   0.059   0.767   9.997 -0.4744  0.3870  0.3896
   72SLPC   C31 6278  -0.055   0.798   9.936  0.1400 -0.5187 -0.1270
   72SLPC   O32 6279  -0.086   0.911   9.899 -0.3798 -0.0772 -0.4753
   72SLPC   C32 6280  -0.116   0.672   9.892 -0.2331 -0.1109  0.1873
   72SLPC   H2X 6281  -0.167   0.628   9.981  0.9538  1.5414  1.7551
   72SLPC   H2Y 6282  -0.031   0.605   9.868  1.7050  2.9794 -2.4005
   72SLPC   C23 6283   0.326   0.399   9.901  0.2904 -0.0072 -0.7615
   72SLPC   H3R 6284   0.249   0.345   9.961  1.5493 -1.4928 -0.4137
   72SLPC   H3S 6285   0.399   0.319   9.877  2.8298  1.8403  0.3524
   72SLPC   C24 6286   0.269   0.453   9.764 -0.4501 -0.2735 -0.1498
   72SLPC   H4R 6287   0.349   0.484   9.693 -1.6371 -0.0570 -1.4164
   72SLPC   H4S 6288   0.183   0.522   9.774 -1.4716 -1.6131  0.7464
   72SLPC   C25 6289   0.206   0.341   9.681  0.3836 -0.1971 -0.0093
   72SLPC   H5R 6290   0.125   0.296   9.742 -0.6549  2.3827  0.6370
   72SLPC   H5S 6291   0.276   0.255   9.675  0.0878 -0.4785  0.5641
   72SLPC   C26 6292   0.159   0.402   9.549  0.1618  0.1435  0.1582
   72SLPC   H6R 6293   0.177   0.510   9.530 -0.1959 -0.0469 -1.4277
   72SLPC   H6S 6294   0.049   0.393   9.562 -0.3737  2.2547 -2.0970
   72SLPC   C27 6295   0.208   0.315   9.432 -0.5544  1.0929  0.0370
   72SLPC   H7R 6296   0.182   0.215   9.470 -0.7572  1.1913  0.1602
   72SLPC   H7S 6297   0.317   0.333   9.434 -0.7206  2.1655  0.1999
   72SLPC   C28 6298   0.140   0.352   9.303 -0.2198  0.4779 -0.4297
   72SLPC   H8R 6299   0.177   0.453   9.274  2.7428 -0.5788 -0.7056
   72SLPC   H8S 6300   0.029   0.351   9.308 -0.2310 -0.0576 -0.7029
   72SLPC   C29 6301   0.159   0.265   9.184 -0.4677  0.1354 -0.0160
   72SLPC   H9R 6302   0.147   0.160   9.217 -0.3294  1.0089  3.2203
   72SLPC  C210 6303   0.211   0.291   9.059  0.5051  0.1475 -1.1083
   72SLPC  H10R 6304   0.214   0.209   8.985  0.7817  0.8085 -1.8412
   72SLPC  C211 6305   0.258   0.431   9.012 -0.3184  0.3185 -0.1716
   72SLPC  H11R 6306   0.332   0.468   9.086 -1.3224  0.4806  0.7764
   72SLPC  H11S 6307   0.172   0.501   9.010 -0.3482  0.2789 -0.3922
   72SLPC  C212 6308   0.322   0.423   8.879 -0.0273  0.4434 -0.0133
   72SLPC  H12R 6309   0.374   0.327   8.867  0.9896  0.6103  2.5165
   72SLPC  C213 6310   0.328   0.517   8.794 -0.0015  0.1597  0.2954
   72SLPC  H13R 6311   0.392   0.494   8.707  1.1673  0.3989  1.0631
   72SLPC  C214 6312   0.280   0.667   8.796 -0.0283  0.5194 -0.5981
   72SLPC  H14R 6313   0.236   0.697   8.893  1.3934 -0.5547  0.4292
   72SLPC  H14S 6314   0.195   0.684   8.726 -1.5591  0.7142  1.2187
   72SLPC  C215 6315   0.398   0.755   8.760  0.2514 -0.5589 -0.7535
   72SLPC  H15R 6316   0.367   0.861   8.753 -0.5241 -0.8681 -4.1046
   72SLPC  H15S 6317   0.426   0.727   8.656  2.3246 -0.0306 -0.3833
   72SLPC  C216 6318   0.522   0.758   8.857  0.3582 -0.2112  0.1271
   72SLPC  H16R 6319   0.560   0.654   8.867 -0.5850 -0.4484  1.7960
   72SLPC  H16S 6320   0.486   0.789   8.958 -1.6727  1.7884 -1.1269
   72SLPC  C217 6321   0.622   0.862   8.816 -0.4859  0.4629 -0.4085
   72SLPC  H17R 6322   0.563   0.956   8.813  0.5169  1.0961 -1.9629
   72SLPC  H17S 6323   0.636   0.838   8.708  0.0003 -3.6320  0.3942
   72SLPC  C218 6324   0.750   0.869   8.896 -0.1314 -0.0344  0.3587
   72SLPC  H18R 6325   0.715   0.876   9.002  0.4631  0.7681  0.5106
   72SLPC  H18S 6326   0.817   0.951   8.865  3.2569 -1.6685  2.7544
   72SLPC  H18T 6327   0.816   0.780   8.890 -0.7311 -0.4862  0.2618
   72SLPC   C33 6328  -0.198   0.690   9.761  0.2272 -0.3870 -0.1021
   72SLPC   H3X 6329  -0.228   0.797   9.757  1.4487  0.0538  1.5245
   72SLPC   H3Y 6330  -0.296   0.637   9.768  0.5438 -1.0466 -0.5763
   72SLPC   C34 6331  -0.135   0.635   9.634 -0.1106  0.0107  0.6056
   72SLPC   H4X 6332  -0.123   0.525   9.638  0.2890 -0.0390 -1.0748
   72SLPC   H4Y 6333  -0.032   0.678   9.637 -0.1841  0.3076 -0.6330
   72SLPC   C35 6334  -0.208   0.683   9.513  0.1129 -0.3666 -0.8182
   72SLPC   H5X 6335  -0.212   0.794   9.518  0.3219 -0.4106  0.7434
   72SLPC   H5Y 6336  -0.312   0.644   9.506  1.1598 -4.0126  1.2230
   72SLPC   C36 6337  -0.131   0.655   9.385 -0.2934 -0.5519  0.7793
   72SLPC   H6X 6338  -0.094   0.550   9.395 -0.0613 -0.6391 -0.7822
   72SLPC   H6Y 6339  -0.044   0.725   9.388  0.2266 -1.1169 -0.5143
   72SLPC   C37 6340  -0.212   0.666   9.254 -0.2128  0.3582 -0.3146
   72SLPC   H7X 6341  -0.260   0.766   9.245 -0.0104  0.4232 -0.6858
   72SLPC   H7Y 6342  -0.297   0.596   9.271  0.5288 -0.0364  2.3148
   72SLPC   C38 6343  -0.120   0.637   9.136  0.2545 -0.1304 -0.1988
   72SLPC   H8X 6344  -0.087   0.531   9.148  0.1836 -0.1201  0.1081
   72SLPC   H8Y 6345  -0.026   0.693   9.152 -1.1492  2.2885 -0.0359
   72SLPC   C39 6346  -0.176   0.669   9.002 -0.7944 -0.3303 -0.5678
   72SLPC   H9X 6347  -0.158   0.776   8.980  1.4615 -0.1952  1.5202
   72SLPC   H9Y 6348  -0.282   0.635   8.996 -0.2387 -1.9809 -1.8383
   72SLPC  C310 6349  -0.108   0.601   8.874 -0.3504 -0.7241  0.0655
   72SLPC  H10X 6350  -0.122   0.493   8.899 -1.2979 -1.1624 -2.1751
   72SLPC  H10Y 6351  -0.000   0.619   8.854 -0.7333 -1.5575 -3.3426
   72SLPC  C311 6352  -0.187   0.623   8.749  0.9262 -0.8286  0.2515
   72SLPC  H11X 6353  -0.209   0.730   8.728 -0.7880 -0.9185  1.4258
   72SLPC  H11Y 6354  -0.290   0.581   8.751  1.2081 -1.6659 -1.2500
   72SLPC  C312 6355  -0.119   0.555   8.627 -0.5217  0.6707 -0.6004
   72SLPC  H12X 6356  -0.100   0.449   8.654  2.1639  1.8266  2.6479
   72SLPC  H12Y 6357  -0.021   0.606   8.622  0.8062 -1.5010  1.2370
   72SLPC  C313 6358  -0.187   0.573   8.492  0.6183 -0.0999 -0.6589
   72SLPC  H13X 6359  -0.199   0.683   8.484  1.1006 -0.0531 -0.7911
   72SLPC  H13Y 6360  -0.290   0.532   8.493  0.4754  0.2514  0.6714
   72SLPC  C314 6361  -0.106   0.524   8.371  0.7900  0.1873  0.1094
   72SLPC  H14X 6362  -0.087   0.415   8.362 -3.1127 -0.6981  0.8035
   72SLPC  H14Y 6363  -0.003   0.566   8.372  1.4769 -1.4010  0.1828
   72SLPC  C315 6364  -0.193   0.560   8.250 -0.8228 -0.1584  0.6997
   72SLPC  H15X 6365  -0.204   0.669   8.233  0.4280 -0.2976 -1.1441
   72SLPC  H15Y 6366  -0.293   0.512   8.262 -0.2567 -1.6431 -0.3674
   72SLPC  C316 6367  -0.125   0.508   8.112 -0.1644  0.0116 -0.5119
   72SLPC  H16X 6368  -0.119   0.398   8.115 -1.8387 -0.0970  0.3948
   72SLPC  H16Y 6369  -0.028   0.560   8.129 -0.6121  0.2432  1.5397
   72SLPC  C317 6370  -0.201   0.548   7.984  0.2771  0.6366  0.6220
   72SLPC  H17X 6371  -0.126   0.586   7.913 -0.9978 -0.3431 -1.3488
   72SLPC  H17Y 6372  -0.268   0.633   8.011  1.8968  1.8216  1.0469
   72SLPC  C318 6373  -0.278   0.430   7.920  0.0656 -1.2033 -0.0603
   72SLPC  H18X 6374  -0.217   0.339   7.901  0.7284 -0.9998  1.0118
   72SLPC  H18Y 6375  -0.318   0.463   7.822 -0.2235  0.5562  0.6127
   72SLPC  H18Z 6376  -0.369   0.403   7.977  0.8905 -3.5739  0.2753
   73SLPC     N 6377   2.125   4.397  10.866  0.1618 -0.0327  0.3810
   73SLPC   C13 6378   2.235   4.300  10.826 -0.2235 -0.6783  0.2947
   73SLPC  H13A 6379   2.329   4.343  10.857 -0.5297  0.9100 -0.8619
   73SLPC  H13B 6380   2.235   4.210  10.884  1.5375 -0.0063  1.4090
   73SLPC  H13C 6381   2.235   4.277  10.720 -1.5332 -0.9137  0.3266
   73SLPC   C14 6382   2.138   4.406  11.004 -0.7362 -0.1014 -0.5211
   73SLPC  H14A 6383   2.227   4.463  11.029 -2.0179  2.4188 -1.3141
   73SLPC  H14B 6384   2.057   4.464  11.044 -1.4867 -1.1796 -0.4663
   73SLPC  H14C 6385   2.133   4.306  11.042 -2.5023  0.8142  1.8470
   73SLPC   C15 6386   1.993   4.329  10.830  0.0218 -0.7709  0.8153
   73SLPC  H15A 6387   2.009   4.231  10.873 -1.6859 -0.7970  1.4658
   73SLPC  H15B 6388   1.905   4.372  10.876 -1.2157  0.3643 -2.3242
   73SLPC  H15C 6389   1.976   4.311  10.725 -1.1384  0.1080  0.8290
   73SLPC   C12 6390   2.137   4.529  10.799 -0.0381 -1.3704 -0.2181
   73SLPC  H12A 6391   2.119   4.527  10.692  3.1857  2.0709 -1.0026
   73SLPC  H12B 6392   2.241   4.555  10.802  0.0512 -1.6607 -0.6459
   73SLPC   C11 6393   2.040   4.652  10.850 -0.4690  0.2737 -0.4147
   73SLPC  H11A 6394   2.068   4.749  10.804  0.5451 -0.4275 -1.3359
   73SLPC  H11B 6395   2.062   4.660  10.959 -0.7851  0.9064 -0.3963
   73SLPC     P 6396   1.832   4.658  10.697 -0.2413  0.1451 -0.3839
   73SLPC   O13 6397   1.797   4.796  10.712 -0.6463  0.3630  0.0197
   73SLPC   O14 6398   1.924   4.621  10.584  0.3019 -0.1938 -0.2612
   73SLPC   O12 6399   1.903   4.621  10.834  0.1651 -0.4464 -0.0563
   73SLPC   O11 6400   1.698   4.572  10.697  0.2743  0.0930 -0.1082
   73SLPC    C1 6401   1.684   4.443  10.632  0.0030  0.4632 -0.8140
   73SLPC    HA 6402   1.780   4.410  10.586 -0.6654  0.0663 -1.9837
   73SLPC    HB 6403   1.655   4.364  10.703  0.4636  0.0861 -1.0396
   73SLPC    C2 6404   1.572   4.450  10.520 -0.9111  0.3716  0.6463
   73SLPC    HS 6405   1.557   4.352  10.470  0.4498  0.8309 -0.7388
   73SLPC   O21 6406   1.611   4.540  10.420  0.2428 -0.9748  0.7303
   73SLPC   C21 6407   1.721   4.522  10.353  0.1204 -0.4674  0.5895
   73SLPC   O22 6408   1.792   4.421  10.357 -0.3145  0.2048  0.0838
   73SLPC   C22 6409   1.726   4.643  10.257 -0.1648  0.6268  0.3831
   73SLPC   H2R 6410   1.632   4.703  10.264  0.3509  1.6168 -0.8015
   73SLPC   H2S 6411   1.814   4.708  10.276 -0.8562  1.7273 -0.0534
   73SLPC    C3 6412   1.437   4.492  10.575  0.6843  0.0699 -0.0620
   73SLPC    HX 6413   1.441   4.598  10.607  0.8056 -0.3005  1.1880
   73SLPC    HY 6414   1.413   4.433  10.666  0.1825  2.6851  1.6229
   73SLPC   O31 6415   1.335   4.484  10.474  0.9313  0.0055  0.2633
   73SLPC   C31 6416   1.256   4.376  10.473  0.7371  0.4016  0.5601
   73SLPC   O32 6417   1.267   4.284  10.549 -0.4384  0.3309 -0.1401
   73SLPC   C32 6418   1.169   4.376  10.344 -0.3555  0.0928 -0.0498
   73SLPC   H2X 6419   1.071   4.413  10.381 -0.4424 -0.3543  0.1763
   73SLPC   H2Y 6420   1.151   4.271  10.314 -0.2607  0.2783 -0.7560
   73SLPC   C23 6421   1.737   4.587  10.114  0.5029  0.0081  0.7521
   73SLPC   H3R 6422   1.803   4.498  10.105  0.1086 -0.1503 -1.0448
   73SLPC   H3S 6423   1.803   4.660  10.062  1.5851 -1.1113  0.5043
   73SLPC   C24 6424   1.602   4.566  10.042  0.3046  0.2323 -0.0754
   73SLPC   H4R 6425   1.533   4.650  10.065 -0.7427 -0.7824  0.5795
   73SLPC   H4S 6426   1.560   4.470  10.078  0.0050  0.7798  1.0718
   73SLPC   C25 6427   1.617   4.564   9.895  0.2346 -0.3049  0.0612
   73SLPC   H5R 6428   1.515   4.553   9.854  0.7471 -0.1897 -1.2695
   73SLPC   H5S 6429   1.672   4.476   9.853 -0.4247 -0.2449 -0.9486
   73SLPC   C26 6430   1.668   4.696   9.833  0.1653  0.5762  0.3452
   73SLPC   H6R 6431   1.656   4.763   9.921  1.2016 -1.3247  2.0209
   73SLPC   H6S 6432   1.620   4.729   9.738  1.9716  1.7984 -0.2093
   73SLPC   C27 6433   1.815   4.700   9.788 -0.1593  0.2831  0.2164
   73SLPC   H7R 6434   1.839   4.621   9.715 -0.2556 -0.2693  0.7750
   73SLPC   H7S 6435   1.880   4.681   9.876 -0.6322 -1.9204  0.1497
   73SLPC   C28 6436   1.845   4.838   9.727 -0.2054  0.3199 -0.0048
   73SLPC   H8R 6437   1.847   4.917   9.806 -0.7625  1.6075 -1.2360
   73SLPC   H8S 6438   1.763   4.862   9.656 -1.1223 -1.0285  0.5519
   73SLPC   C29 6439   1.977   4.832   9.643  0.2650  0.2454 -0.4175
   73SLPC   H9R 6440   2.071   4.812   9.697  0.6974  0.8923 -0.9145
   73SLPC  C210 6441   1.991   4.870   9.517  0.4580  0.0093 -0.4494
   73SLPC  H10R 6442   2.095   4.869   9.481  0.0082 -1.2560 -1.8366
   73SLPC  C211 6443   1.894   4.922   9.418  0.1702  0.0775  0.3469
   73SLPC  H11R 6444   1.939   5.015   9.377 -0.6861  1.9164  3.2150
   73SLPC  H11S 6445   1.804   4.957   9.473  0.8683  0.7639  1.0879
   73SLPC  C212 6446   1.858   4.808   9.326 -0.1356 -0.2402  0.2947
   73SLPC  H12R 6447   1.787   4.735   9.369 -2.7938  0.1898 -2.9995
   73SLPC  C213 6448   1.892   4.799   9.197 -0.4283  0.2143 -0.6223
   73SLPC  H13R 6449   1.852   4.717   9.137 -0.5676 -1.1444  1.2474
   73SLPC  C214 6450   1.974   4.915   9.128 -0.3025  0.0316  0.1801
   73SLPC  H14R 6451   2.051   4.963   9.192 -0.0025  0.8274 -0.7353
   73SLPC  H14S 6452   1.908   4.998   9.094  0.8982  0.2919 -1.7155
   73SLPC  C215 6453   2.051   4.879   8.996  0.2089 -0.1384 -0.0414
   73SLPC  H15R 6454   2.109   4.971   8.976  0.2516  0.0575  0.9233
   73SLPC  H15S 6455   1.971   4.881   8.919  0.0221 -0.6682  0.1368
   73SLPC  C216 6456   2.127   4.741   8.990 -0.3519 -0.5121  0.0973
   73SLPC  H16R 6457   2.052   4.659   8.997 -1.1147 -0.0205 -1.6290
   73SLPC  H16S 6458   2.197   4.725   9.074  0.6983  0.6899 -0.5088
   73SLPC  C217 6459   2.214   4.738   8.862  0.0701  0.0169  0.7064
   73SLPC  H17R 6460   2.283   4.652   8.877  0.1257  0.2180  1.6261
   73SLPC  H17S 6461   2.277   4.829   8.854  0.1828 -0.0845  0.4218
   73SLPC  C218 6462   2.137   4.716   8.733 -0.4166  0.1132 -0.1887
   73SLPC  H18R 6463   2.080   4.622   8.748 -0.8560  0.6092  1.4224
   73SLPC  H18S 6464   2.207   4.693   8.649 -2.0593  0.1037 -1.6034
   73SLPC  H18T 6465   2.066   4.793   8.697 -1.5372 -0.8082 -0.0216
   73SLPC   C33 6466   1.223   4.464  10.222  0.4261  0.3336  0.9735
   73SLPC   H3X 6467   1.296   4.395  10.176  1.4842  1.3334  1.1148
   73SLPC   H3Y 6468   1.275   4.555  10.258 -2.7441  2.9328 -0.4981
   73SLPC   C34 6469   1.112   4.509  10.120 -0.0325 -0.4230 -0.7714
   73SLPC   H4X 6470   1.029   4.564  10.168 -0.0042  1.1771 -2.4488
   73SLPC   H4Y 6471   1.066   4.416  10.081  1.4744 -1.4075 -0.2980
   73SLPC   C35 6472   1.167   4.593  10.009  0.4849  0.0194 -0.0234
   73SLPC   H5X 6473   1.257   4.544   9.965  1.4297 -0.0715  1.8853
   73SLPC   H5Y 6474   1.209   4.688  10.049 -1.7296  1.1222 -0.1779
   73SLPC   C36 6475   1.065   4.616   9.897 -0.4922  0.0770 -0.9526
   73SLPC   H6X 6476   0.969   4.625   9.951  1.1933 -0.4975  2.3792
   73SLPC   H6Y 6477   1.056   4.517   9.847  1.7796  1.6037 -4.8692
   73SLPC   C37 6478   1.109   4.729   9.803  0.1193 -0.2956 -0.9034
   73SLPC   H7X 6479   1.150   4.817   9.856 -3.0315  0.3759  0.6708
   73SLPC   H7Y 6480   1.026   4.760   9.736  1.2629  1.9780 -1.3655
   73SLPC   C38 6481   1.236   4.667   9.724 -0.3725  0.4228  0.4359
   73SLPC   H8X 6482   1.216   4.567   9.681  2.7832 -0.0351 -0.2316
   73SLPC   H8Y 6483   1.326   4.663   9.789 -0.0733  1.4234  0.1096
   73SLPC   C39 6484   1.286   4.752   9.613 -0.2048 -0.2389 -0.2190
   73SLPC   H9X 6485   1.331   4.846   9.652  1.5254 -1.3054  0.4350
   73SLPC   H9Y 6486   1.201   4.784   9.548  0.1387  0.5116 -0.3113
   73SLPC  C310 6487   1.391   4.676   9.526 -0.3212  0.6632 -1.2489
   73SLPC  H10X 6488   1.339   4.622   9.444  0.8494 -0.1834 -1.4663
   73SLPC  H10Y 6489   1.462   4.617   9.589  0.5459  2.6627 -0.2413
   73SLPC  C311 6490   1.471   4.785   9.443  0.7596  0.3104  0.9426
   73SLPC  H11X 6491   1.535   4.834   9.520  0.8034  0.1749  0.9926
   73SLPC  H11Y 6492   1.403   4.866   9.409  1.1825  0.3200  0.1012
   73SLPC  C312 6493   1.537   4.752   9.314 -0.5469  0.0095  0.2521
   73SLPC  H12X 6494   1.606   4.667   9.328 -1.3082 -0.2139  3.4364
   73SLPC  H12Y 6495   1.599   4.836   9.275 -0.8972 -0.6896 -1.9744
   73SLPC  C313 6496   1.441   4.702   9.201  0.1167  0.2033 -0.5207
   73SLPC  H13X 6497   1.359   4.777   9.199  1.1198  1.3252 -1.1898
   73SLPC  H13Y 6498   1.402   4.603   9.233  0.3381  0.4480  0.5186
   73SLPC  C314 6499   1.510   4.697   9.065  0.2152  0.4552  0.3133
   73SLPC  H14X 6500   1.430   4.651   9.002  1.9983  1.7181 -3.1182
   73SLPC  H14Y 6501   1.602   4.635   9.059 -0.6510 -0.8176 -0.2789
   73SLPC  C315 6502   1.537   4.829   8.998  0.5155  0.5356  0.4780
   73SLPC  H15X 6503   1.583   4.830   8.896  3.3392  3.0845  1.6356
   73SLPC  H15Y 6504   1.614   4.875   9.064 -1.4528 -0.9252  4.0182
   73SLPC  C316 6505   1.414   4.925   8.990 -0.2273  0.5155 -0.5178
   73SLPC  H16X 6506   1.376   4.937   9.093  0.6153  1.6410 -0.3211
   73SLPC  H16Y 6507   1.345   4.878   8.917 -2.4618  1.9696  0.5510
   73SLPC  C317 6508   1.456   5.060   8.929 -0.6005  0.0483  0.5462
   73SLPC  H17X 6509   1.503   5.056   8.829  0.9701 -0.9176  1.2952
   73SLPC  H17Y 6510   1.525   5.104   9.003 -0.0757 -0.5691  0.4309
   73SLPC  C318 6511   1.335   5.159   8.909 -0.7552  0.2010 -0.8637
   73SLPC  H18X 6512   1.386   5.254   8.885  2.2957 -0.9819  0.4704
   73SLPC  H18Y 6513   1.282   5.180   9.005  1.3876  1.2891  0.1493
   73SLPC  H18Z 6514   1.266   5.127   8.827  0.1473  0.9827 -1.9522
   74SLPC     N 6515   3.290   1.955  10.539  0.0112  0.0314 -0.0502
   74SLPC   C13 6516   3.166   1.941  10.618 -0.6999 -0.1104 -0.5094
   74SLPC  H13A 6517   3.079   1.974  10.563 -1.4555  1.5668  1.5726
   74SLPC  H13B 6518   3.144   1.841  10.653  3.0274 -0.7148  0.4842
   74SLPC  H13C 6519   3.172   2.009  10.701 -2.3670 -1.0088  0.4098
   74SLPC   C14 6520   3.296   1.838  10.438  0.3625 -0.1657  0.3798
   74SLPC  H14A 6521   3.281   1.739  10.478  0.1046  0.1983  1.2243
   74SLPC  H14B 6522   3.217   1.847  10.365 -0.9009  0.0625  1.7179
   74SLPC  H14C 6523   3.388   1.839  10.382  0.4260  0.3309  0.4822
   74SLPC   C15 6524   3.409   1.939  10.628  0.0073 -0.3667  0.2734
   74SLPC  H15A 6525   3.411   1.845  10.682  1.7484  0.0518  0.9865
   74SLPC  H15B 6526   3.502   1.959  10.576 -1.5435  0.8315 -2.2248
   74SLPC  H15C 6527   3.403   2.011  10.708 -0.1174 -1.8859  1.6809
   74SLPC   C12 6528   3.291   2.086  10.461 -0.8181  0.5483 -0.5968
   74SLPC  H12A 6529   3.223   2.095  10.378  0.8058  2.1708 -1.8354
   74SLPC  H12B 6530   3.389   2.086  10.417  0.9714  1.6408  3.0073
   74SLPC   C11 6531   3.290   2.219  10.537 -0.1920 -0.8761 -0.0993
   74SLPC  H11A 6532   3.350   2.299  10.488  0.0424 -0.3911  0.9396
   74SLPC  H11B 6533   3.342   2.216  10.635 -1.4236 -0.1491  0.6046
   74SLPC     P 6534   3.061   2.324  10.455  0.0104 -0.5349  0.3092
   74SLPC   O13 6535   2.926   2.353  10.512 -0.0135  0.2701 -0.1791
   74SLPC   O14 6536   3.115   2.445  10.392 -0.0875  0.7149 -0.3593
   74SLPC   O12 6537   3.157   2.263  10.569  0.4791 -0.1291  0.4733
   74SLPC   O11 6538   3.063   2.207  10.349 -0.7164  0.0198  0.3413
   74SLPC    C1 6539   2.954   2.116  10.321 -0.5646  0.1234  0.2351
   74SLPC    HA 6540   2.909   2.074  10.414  2.6177 -2.7646  0.6383
   74SLPC    HB 6541   2.880   2.181  10.268  1.3433  2.1168 -0.1329
   74SLPC    C2 6542   3.001   2.004  10.226  0.6848  0.2168  0.4009
   74SLPC    HS 6543   3.099   1.956  10.250 -0.0434 -2.0845 -0.9348
   74SLPC   O21 6544   2.996   2.067  10.097  0.1558 -0.9332  0.5420
   74SLPC   C21 6545   3.074   2.007  10.008 -0.3729  0.5122  0.2200
   74SLPC   O22 6546   3.164   1.929  10.039 -0.1072  0.1162  0.2293
   74SLPC   C22 6547   3.029   2.050   9.861 -0.9243 -0.4486 -0.1549
   74SLPC   H2R 6548   2.920   2.032   9.854 -0.8735 -0.3406 -1.5420
   74SLPC   H2S 6549   3.045   2.159   9.854  2.2867 -0.7730  0.3945
   74SLPC    C3 6550   2.891   1.900  10.227  0.2245  0.1229  0.9812
   74SLPC    HX 6551   2.795   1.943  10.191  0.2792 -0.2374  0.3897
   74SLPC    HY 6552   2.878   1.861  10.331  0.9177  0.6583  1.2789
   74SLPC   O31 6553   2.926   1.796  10.133 -0.3703  0.4955  0.4320
   74SLPC   C31 6554   2.996   1.692  10.185  0.0898  0.0000 -0.5279
   74SLPC   O32 6555   3.045   1.685  10.295  0.1501 -0.1990  0.1353
   74SLPC   C32 6556   3.006   1.579  10.077  0.3902 -0.8081  0.4118
   74SLPC   H2X 6557   2.908   1.584  10.024 -1.4256 -1.1446  3.4985
   74SLPC   H2Y 6558   3.010   1.484  10.134 -2.4302 -0.5466  1.1934
   74SLPC   C23 6559   3.103   1.968   9.759  0.3545  0.3203  0.3088
   74SLPC   H3R 6560   3.064   1.865   9.746 -1.5148  0.6646  2.6466
   74SLPC   H3S 6561   3.210   1.967   9.792  0.5644  0.9331 -0.3211
   74SLPC   C24 6562   3.101   2.037   9.618  0.1531 -0.5685 -0.3614
   74SLPC   H4R 6563   3.186   1.998   9.558 -0.2419 -0.9461 -0.6806
   74SLPC   H4S 6564   3.098   2.148   9.623 -1.1945 -0.6228  0.2529
   74SLPC   C25 6565   2.965   2.013   9.538  0.1211 -0.1782 -0.0644
   74SLPC   H5R 6566   2.888   2.047   9.610 -1.2970  0.5567 -1.8306
   74SLPC   H5S 6567   2.955   1.905   9.514 -0.4078 -0.2045  0.2596
   74SLPC   C26 6568   2.967   2.102   9.415 -0.6283 -0.0683  0.0148
   74SLPC   H6R 6569   3.017   2.197   9.443  0.2358 -1.0423  1.9837
   74SLPC   H6S 6570   2.860   2.119   9.391 -0.7876 -2.0097 -0.8325
   74SLPC   C27 6571   3.049   2.038   9.304  0.4132  0.1433 -0.1042
   74SLPC   H7R 6572   3.078   1.931   9.315 -3.6655 -1.6137 -3.6283
   74SLPC   H7S 6573   3.146   2.087   9.283  0.6440 -0.8417 -1.5256
   74SLPC   C28 6574   2.975   2.044   9.166 -0.5165 -0.2397 -0.5038
   74SLPC   H8R 6575   2.875   1.997   9.181 -0.5173 -0.0667  0.0784
   74SLPC   H8S 6576   3.024   1.975   9.094  2.5050  3.0131 -1.8582
   74SLPC   C29 6577   2.963   2.180   9.112  0.6990 -0.2537  0.5903
   74SLPC   H9R 6578   2.944   2.258   9.187 -2.3337  0.4129 -0.7323
   74SLPC  C210 6579   2.974   2.212   8.975 -0.3223  0.2746 -0.2712
   74SLPC  H10R 6580   2.942   2.314   8.948 -0.8695  0.5030  1.1584
   74SLPC  C211 6581   3.016   2.121   8.855 -0.6803 -1.1006  0.1347
   74SLPC  H11R 6582   3.089   2.047   8.893  1.5215  1.8587  2.0795
   74SLPC  H11S 6583   3.063   2.181   8.774 -0.3373 -0.4666  0.7858
   74SLPC  C212 6584   2.897   2.043   8.801 -0.6745 -0.0983  0.1131
   74SLPC  H12R 6585   2.838   1.982   8.870 -2.3012 -0.3127 -1.3824
   74SLPC  C213 6586   2.859   2.025   8.675  0.5011  0.8145  0.4502
   74SLPC  H13R 6587   2.769   1.966   8.653 -0.3000  2.0136  0.3851
   74SLPC  C214 6588   2.928   2.086   8.552  0.3312  0.0578  0.4150
   74SLPC  H14R 6589   3.036   2.109   8.565  0.3249  1.2486 -1.2098
   74SLPC  H14S 6590   2.887   2.187   8.529  0.8742  0.0591 -0.6165
   74SLPC  C215 6591   2.914   1.997   8.418 -0.6114 -0.1552 -0.6118
   74SLPC  H15R 6592   2.808   1.977   8.393 -1.0525  1.0778  0.1624
   74SLPC  H15S 6593   2.960   1.901   8.449  2.0170  0.6189 -1.8500
   74SLPC  C216 6594   2.983   2.053   8.303 -0.7685 -0.4716  0.5645
   74SLPC  H16R 6595   3.093   2.046   8.315 -0.7991 -0.5637  0.8018
   74SLPC  H16S 6596   2.949   2.158   8.285  0.0160 -0.2393  0.3939
   74SLPC  C217 6597   2.949   1.973   8.175 -0.2576 -0.5903 -0.1741
   74SLPC  H17R 6598   2.840   1.956   8.179 -0.4663  0.7489  0.5726
   74SLPC  H17S 6599   2.993   1.871   8.179 -0.5147 -0.6865  0.2145
   74SLPC  C218 6600   2.975   2.044   8.041  0.1360  0.4346 -0.3860
   74SLPC  H18R 6601   2.947   2.150   8.055  0.1827  0.3155  0.7014
   74SLPC  H18S 6602   2.909   1.996   7.967 -0.1422 -2.0340  1.3351
   74SLPC  H18T 6603   3.083   2.028   8.020  0.7171  0.9432  1.9053
   74SLPC   C33 6604   3.135   1.602   9.978  0.9085 -0.4354 -0.1493
   74SLPC   H3X 6605   3.221   1.618  10.048  0.4232  1.5327  0.0679
   74SLPC   H3Y 6606   3.119   1.708   9.948  1.1134  0.3761  2.3062
   74SLPC   C34 6607   3.152   1.497   9.882 -0.0015  0.2094 -0.4747
   74SLPC   H4X 6608   3.154   1.397   9.931 -0.2598  0.8924  0.9832
   74SLPC   H4Y 6609   3.254   1.495   9.838 -0.2478 -2.7448 -1.0773
   74SLPC   C35 6610   3.050   1.509   9.768  0.3428  0.5488  0.7148
   74SLPC   H5X 6611   3.060   1.612   9.727 -0.4469  0.9025  1.3729
   74SLPC   H5Y 6612   2.943   1.501   9.798  0.0126  0.3573 -0.4767
   74SLPC   C36 6613   3.086   1.407   9.652  0.3190 -0.3402 -0.6797
   74SLPC   H6X 6614   3.064   1.306   9.694  2.8479 -2.1321 -3.2742
   74SLPC   H6Y 6615   3.195   1.409   9.630  0.7533 -2.2482  0.9903
   74SLPC   C37 6616   2.999   1.433   9.529  0.1081 -0.3078  0.0987
   74SLPC   H7X 6617   3.015   1.539   9.500 -0.5226  0.1471  1.3258
   74SLPC   H7Y 6618   2.890   1.442   9.551  0.2227  1.7695  0.0388
   74SLPC   C38 6619   3.055   1.349   9.415  0.1678 -0.6514  0.2015
   74SLPC   H8X 6620   3.047   1.239   9.429 -3.3414 -0.4858  0.3112
   74SLPC   H8Y 6621   3.162   1.374   9.401  0.1945  0.7533  2.4421
   74SLPC   C39 6622   2.986   1.368   9.275  0.8832 -0.7093  0.4081
   74SLPC   H9X 6623   2.999   1.474   9.243  5.0887 -1.1783  0.0782
   74SLPC   H9Y 6624   2.876   1.358   9.285  0.2732  1.7356 -2.3498
   74SLPC  C310 6625   3.041   1.282   9.166 -0.1946 -0.0623 -0.7831
   74SLPC  H10X 6626   3.151   1.290   9.156 -0.1680  0.3457 -0.2083
   74SLPC  H10Y 6627   3.010   1.322   9.067 -0.9773  0.5327 -0.3091
   74SLPC  C311 6628   2.988   1.138   9.183  0.2175  0.4053 -0.2370
   74SLPC  H11X 6629   2.878   1.137   9.169 -0.1103  3.7727  1.1884
   74SLPC  H11Y 6630   2.998   1.102   9.288  1.0281  0.5094 -0.2696
   74SLPC  C312 6631   3.061   1.018   9.109  0.0107 -0.4061  0.3533
   74SLPC  H12X 6632   2.990   0.935   9.091  0.0374 -0.2534 -0.5370
   74SLPC  H12Y 6633   3.151   0.986   9.166 -0.4791 -0.3067  1.1939
   74SLPC  C313 6634   3.083   1.059   8.960 -0.1368  0.2879  0.1280
   74SLPC  H13X 6635   3.128   1.159   8.947 -1.2626  0.9665  1.2219
   74SLPC  H13Y 6636   2.981   1.075   8.919 -1.0943 -0.8754  1.9210
   74SLPC  C314 6637   3.151   0.952   8.875  0.2806 -0.0551  1.0165
   74SLPC  H14X 6638   3.105   0.851   8.881 -2.4729  0.7157 -3.1334
   74SLPC  H14Y 6639   3.256   0.955   8.911 -0.8301  1.4790  4.5457
   74SLPC  C315 6640   3.144   0.982   8.727  0.1931  0.2165 -0.5967
   74SLPC  H15X 6641   3.205   0.909   8.669  1.8712 -0.5828  2.0100
   74SLPC  H15Y 6642   3.179   1.082   8.696  0.9633 -0.3441 -1.6120
   74SLPC  C316 6643   3.002   0.953   8.673 -0.1030  0.6394 -1.0279
   74SLPC  H16X 6644   2.927   1.012   8.730  0.0689  2.1455 -2.3028
   74SLPC  H16Y 6645   2.984   0.844   8.682 -1.3470  0.9315  0.3410
   74SLPC  C317 6646   2.978   0.977   8.523  0.0806 -0.1966 -0.4732
   74SLPC  H17X 6647   2.872   0.957   8.498  0.5706 -0.3921 -2.5826
   74SLPC  H17Y 6648   3.034   0.908   8.456  2.2093  0.4601  0.5397
   74SLPC  C318 6649   3.005   1.119   8.477  0.4675 -0.0021  0.2357
   74SLPC  H18X 6650   3.114   1.133   8.458  0.8618 -1.6978  1.0638
   74SLPC  H18Y 6651   2.975   1.191   8.555  0.9682  0.4473  0.0230
   74SLPC  H18Z 6652   2.935   1.142   8.394  0.8407  2.9202  0.6026
   75SLPC     N 6653   5.627   6.125   6.071 -0.6240 -0.3467 -0.7956
   75SLPC   C13 6654   5.593   6.258   6.011  0.5021 -0.2948 -0.9251
   75SLPC  H13A 6655   5.491   6.291   6.004  0.2428 -0.9160 -0.1686
   75SLPC  H13B 6656   5.641   6.334   6.071  2.1008 -0.7209 -1.6005
   75SLPC  H13C 6657   5.635   6.272   5.912  0.4288 -0.4760 -0.9823
   75SLPC   C14 6658   5.776   6.115   6.056  0.0933  0.5978 -0.6000
   75SLPC  H14A 6659   5.820   6.028   6.103  1.3511  1.4989 -0.0582
   75SLPC  H14B 6660   5.806   6.112   5.953 -0.0460 -0.5765 -0.6177
   75SLPC  H14C 6661   5.831   6.199   6.095  0.7841 -0.0288 -0.2037
   75SLPC   C15 6662   5.550   6.014   6.002 -0.4789 -0.8780 -0.9953
   75SLPC  H15A 6663   5.561   6.013   5.894 -1.0428  0.5726 -1.0936
   75SLPC  H15B 6664   5.591   5.917   6.026  1.9818  0.1210 -0.8585
   75SLPC  H15C 6665   5.446   6.038   6.019  0.1975  2.4289 -0.7243
   75SLPC   C12 6666   5.599   6.119   6.220  0.1388 -0.0202 -0.2230
   75SLPC  H12A 6667   5.667   6.192   6.262 -0.8079  1.7997 -1.7314
   75SLPC  H12B 6668   5.626   6.023   6.264  2.2663  0.3564 -0.5883
   75SLPC   C11 6669   5.461   6.169   6.278 -0.4125 -0.1380  0.3796
   75SLPC  H11A 6670   5.447   6.272   6.238 -0.6980 -0.4059 -0.2053
   75SLPC  H11B 6671   5.480   6.189   6.386  2.8522  1.4669 -0.3600
   75SLPC     P 6672   5.370   5.926   6.300  0.1082  0.2175  0.0629
   75SLPC   O13 6673   5.360   5.837   6.181 -0.2353 -0.2697 -0.0434
   75SLPC   O14 6674   5.485   5.898   6.388  0.2503 -0.1316  0.2838
   75SLPC   O12 6675   5.359   6.074   6.249 -0.1146  0.3445 -0.0527
   75SLPC   O11 6676   5.251   5.902   6.391 -0.2754  0.0239  0.2245
   75SLPC    C1 6677   5.207   5.991   6.489 -0.4107  0.4925 -0.4852
   75SLPC    HA 6678   5.279   6.052   6.547 -1.2858 -0.4714  1.7150
   75SLPC    HB 6679   5.135   6.061   6.440 -1.5186 -0.6687 -0.5568
   75SLPC    C2 6680   5.128   5.913   6.600  0.0561 -0.2826  0.6557
   75SLPC    HS 6681   5.079   5.981   6.673 -2.3522 -0.1108 -0.9971
   75SLPC   O21 6682   5.216   5.819   6.667 -0.3410 -0.2015  0.2170
   75SLPC   C21 6683   5.311   5.884   6.741  0.5916 -0.0553  0.3949
   75SLPC   O22 6684   5.304   6.001   6.768 -0.1030 -0.5547 -0.2230
   75SLPC   C22 6685   5.407   5.783   6.791 -0.2535  0.1372 -0.7143
   75SLPC   H2R 6686   5.352   5.708   6.851 -0.8172  0.7662 -0.4351
   75SLPC   H2S 6687   5.455   5.729   6.707  1.2161  1.5796 -0.8668
   75SLPC    C3 6688   5.003   5.841   6.536 -0.9717 -0.0813 -0.3595
   75SLPC    HX 6689   5.045   5.759   6.474  2.8875 -0.8233  2.7880
   75SLPC    HY 6690   4.953   5.923   6.481 -0.2935  2.8443  2.9763
   75SLPC   O31 6691   4.918   5.795   6.649  0.1833 -0.6016  0.1132
   75SLPC   C31 6692   4.809   5.719   6.604  0.4234 -0.2369  0.1096
   75SLPC   O32 6693   4.776   5.725   6.488  0.0481  0.7453  0.9923
   75SLPC   C32 6694   4.750   5.639   6.718 -0.4871 -0.0963 -0.5049
   75SLPC   H2X 6695   4.818   5.639   6.805  0.5543  2.0096 -1.2503
   75SLPC   H2Y 6696   4.746   5.537   6.674  1.0944  0.0978 -1.1700
   75SLPC   C23 6697   5.512   5.838   6.898  0.1375 -0.9650  0.0888
   75SLPC   H3R 6698   5.569   5.926   6.860  0.9591 -1.0323  1.1133
   75SLPC   H3S 6699   5.582   5.752   6.902 -0.6068 -1.5397  0.8279
   75SLPC   C24 6700   5.449   5.866   7.034  0.0214  0.3182  0.0306
   75SLPC   H4R 6701   5.363   5.799   7.056  0.2360 -0.5050 -1.5427
   75SLPC   H4S 6702   5.411   5.969   7.046  1.6340  1.1969 -1.8467
   75SLPC   C25 6703   5.550   5.853   7.149  0.9167  0.3050  0.4054
   75SLPC   H5R 6704   5.619   5.940   7.155  1.4515 -0.0582 -0.2493
   75SLPC   H5S 6705   5.608   5.758   7.140 -0.4178 -0.4347 -0.9353
   75SLPC   C26 6706   5.477   5.846   7.283  0.3079  0.1600  0.6177
   75SLPC   H6R 6707   5.389   5.781   7.266  0.3866 -0.3537  2.1059
   75SLPC   H6S 6708   5.434   5.943   7.316  2.4889  0.7617  1.9375
   75SLPC   C27 6709   5.580   5.797   7.394  0.1156 -0.4006  0.3967
   75SLPC   H7R 6710   5.668   5.865   7.390 -0.2694  0.1577  1.0930
   75SLPC   H7S 6711   5.614   5.695   7.367  2.5498 -0.5748  3.4884
   75SLPC   C28 6712   5.518   5.795   7.532  0.2666  1.1287 -0.1131
   75SLPC   H8R 6713   5.599   5.783   7.606  0.2805  0.1934 -0.2687
   75SLPC   H8S 6714   5.456   5.703   7.539  1.7778  0.1022  0.1417
   75SLPC   C29 6715   5.441   5.922   7.570 -0.1083  0.2377  0.5891
   75SLPC   H9R 6716   5.339   5.942   7.534 -1.0550  0.0382  2.9373
   75SLPC  C210 6717   5.495   6.029   7.634 -0.2234  0.4648 -0.5695
   75SLPC  H10R 6718   5.430   6.118   7.644  0.6187  1.1305 -0.8716
   75SLPC  C211 6719   5.645   6.046   7.671  0.0781  0.4006  0.1417
   75SLPC  H11R 6720   5.719   5.992   7.607  0.1116 -1.9270  2.0171
   75SLPC  H11S 6721   5.661   6.014   7.776 -1.5814  1.5253  0.7755
   75SLPC  C212 6722   5.691   6.190   7.658  0.5307  1.1597  0.9230
   75SLPC  H12R 6723   5.622   6.245   7.592 -0.7347  1.4766  2.4294
   75SLPC  C213 6724   5.800   6.262   7.702  0.5917 -0.5367  0.1940
   75SLPC  H13R 6725   5.812   6.368   7.676 -0.0312 -0.7416 -0.9971
   75SLPC  C214 6726   5.905   6.200   7.786  0.8098 -0.3696 -0.6948
   75SLPC  H14R 6727   6.003   6.205   7.732  1.0859 -0.3376 -0.1941
   75SLPC  H14S 6728   5.882   6.094   7.809 -1.8906  0.4452  0.7294
   75SLPC  C215 6729   5.919   6.272   7.922 -0.1048 -0.2986  0.9557
   75SLPC  H15R 6730   5.987   6.216   7.990  2.9286  2.4476  0.4197
   75SLPC  H15S 6731   5.826   6.273   7.983  0.3521 -0.6992  1.6768
   75SLPC  C216 6732   5.970   6.415   7.917 -0.7533  0.0075 -0.3984
   75SLPC  H16R 6733   5.889   6.485   7.888 -2.0803 -0.6850  1.4392
   75SLPC  H16S 6734   6.057   6.421   7.848 -0.8908  0.9198 -0.5107
   75SLPC  C217 6735   6.053   6.452   8.045  0.2297 -0.3370  0.5782
   75SLPC  H17R 6736   6.082   6.559   8.051  1.5002 -0.7066  1.6351
   75SLPC  H17S 6737   6.145   6.391   8.044  0.1442 -0.5323  1.9659
   75SLPC  C218 6738   5.992   6.411   8.178  0.3827  0.3541 -0.2623
   75SLPC  H18R 6739   6.010   6.303   8.199 -0.6108  0.7833  3.4505
   75SLPC  H18S 6740   5.883   6.432   8.187  0.2889  0.3994 -1.2771
   75SLPC  H18T 6741   6.051   6.469   8.252 -1.1378  2.4708 -0.6119
   75SLPC   C33 6742   4.619   5.695   6.770 -0.5849 -0.2992  0.2924
   75SLPC   H3X 6743   4.642   5.793   6.817  0.6834 -0.4075 -0.0604
   75SLPC   H3Y 6744   4.548   5.715   6.686  1.3227 -0.9646 -1.5717
   75SLPC   C34 6745   4.553   5.605   6.879 -0.4137 -0.2717  0.1270
   75SLPC   H4X 6746   4.597   5.503   6.869 -0.4417 -0.2490 -0.2119
   75SLPC   H4Y 6747   4.443   5.599   6.863 -0.4021  0.3542 -0.2036
   75SLPC   C35 6748   4.574   5.658   7.022  0.3047 -0.1414 -1.3396
   75SLPC   H5X 6749   4.545   5.764   7.036  0.1364 -0.5859  4.1396
   75SLPC   H5Y 6750   4.682   5.651   7.050 -0.0699 -1.8553 -0.1435
   75SLPC   C36 6751   4.502   5.576   7.133 -0.1646 -0.1151 -0.2289
   75SLPC   H6X 6752   4.514   5.466   7.128 -0.7110 -0.3265  2.0240
   75SLPC   H6Y 6753   4.392   5.595   7.129 -0.4695 -0.8477  2.5515
   75SLPC   C37 6754   4.536   5.612   7.279  0.0054  0.7832 -0.5526
   75SLPC   H7X 6755   4.638   5.574   7.299 -1.1314 -1.7850  0.8188
   75SLPC   H7Y 6756   4.482   5.542   7.346 -0.3681 -0.2123 -1.8493
   75SLPC   C38 6757   4.525   5.762   7.319  0.0181  0.1230 -0.3355
   75SLPC   H8X 6758   4.429   5.814   7.298 -0.7170  0.4778  3.3005
   75SLPC   H8Y 6759   4.607   5.818   7.269  0.8126  0.6310  1.4859
   75SLPC   C39 6760   4.558   5.794   7.469 -0.3001  0.1043 -0.5988
   75SLPC   H9X 6761   4.590   5.900   7.473 -0.0519  0.0007  0.3518
   75SLPC   H9Y 6762   4.644   5.730   7.498 -0.8053 -1.4220 -2.2501
   75SLPC  C310 6763   4.440   5.781   7.565 -0.8235  0.0479 -0.1150
   75SLPC  H10X 6764   4.384   5.686   7.548  1.2839 -1.3577  0.4296
   75SLPC  H10Y 6765   4.369   5.866   7.565  0.8009  1.4608 -1.1235
   75SLPC  C311 6766   4.477   5.754   7.713 -1.0025  1.0109  0.7294
   75SLPC  H11X 6767   4.556   5.676   7.717 -1.1619  0.4838 -2.8930
   75SLPC  H11Y 6768   4.384   5.730   7.767 -1.4492  1.6550  0.2679
   75SLPC  C312 6769   4.545   5.872   7.779  0.2003 -0.4774  0.1430
   75SLPC  H12X 6770   4.474   5.957   7.775  0.0271 -0.6640 -1.1490
   75SLPC  H12Y 6771   4.640   5.915   7.740 -0.4515  1.4369  0.5644
   75SLPC  C313 6772   4.564   5.854   7.937 -0.8510 -0.6738 -0.0369
   75SLPC  H13X 6773   4.633   5.768   7.953 -0.9315 -0.5758  0.8666
   75SLPC  H13Y 6774   4.469   5.832   7.990  0.4540 -1.1086  2.2786
   75SLPC  C314 6775   4.622   5.980   8.007 -0.7220  0.8703 -0.0182
   75SLPC  H14X 6776   4.587   6.078   7.970  1.9071  3.0685  2.7488
   75SLPC  H14Y 6777   4.730   5.977   7.981 -1.1662  0.7920 -2.0294
   75SLPC  C315 6778   4.603   5.979   8.167 -0.3889  0.3625 -0.3153
   75SLPC  H15X 6779   4.681   6.052   8.197 -0.5406  1.9132 -3.2460
   75SLPC  H15Y 6780   4.613   5.878   8.212 -0.6602  0.4838  0.0198
   75SLPC  C316 6781   4.463   6.033   8.198  0.2663 -0.4680 -0.1075
   75SLPC  H16X 6782   4.376   5.983   8.151 -2.5828  0.8826  3.2826
   75SLPC  H16Y 6783   4.449   6.136   8.158  1.0905 -0.2425  0.1643
   75SLPC  C317 6784   4.423   6.033   8.346 -0.8605  0.3243 -0.3140
   75SLPC  H17X 6785   4.489   6.102   8.402 -0.6218 -0.2928  0.1839
   75SLPC  H17Y 6786   4.456   5.939   8.395  0.9618  2.0059  1.9072
   75SLPC  C318 6787   4.280   6.058   8.378 -0.2338 -0.2283 -0.4840
   75SLPC  H18X 6788   4.254   6.117   8.468  1.1826 -3.0123  1.9107
   75SLPC  H18Y 6789   4.229   5.960   8.385  0.7943 -0.6574  1.5603
   75SLPC  H18Z 6790   4.233   6.120   8.298 -0.9994 -1.5373 -1.0837
   76SLPC     N 6791   1.061   1.531   5.768  0.5814  0.1213  0.7162
   76SLPC   C13 6792   0.946   1.439   5.731  0.5220  0.3371 -0.1387
   76SLPC  H13A 6793   0.860   1.458   5.793  0.2853 -1.6217  0.1897
   76SLPC  H13B 6794   0.917   1.454   5.628 -1.6034  1.8891  0.5984
   76SLPC  H13C 6795   0.966   1.333   5.738  0.5270  0.4331  1.5626
   76SLPC   C14 6796   1.016   1.667   5.740  0.5129  0.3461  0.5393
   76SLPC  H14A 6797   1.097   1.733   5.770  0.6155  0.2415  0.4924
   76SLPC  H14B 6798   1.004   1.683   5.634  2.8114 -1.2529 -0.0484
   76SLPC  H14C 6799   0.926   1.693   5.793  1.4904  1.0240  1.9461
   76SLPC   C15 6800   1.179   1.504   5.681  0.9152  0.5157  0.2017
   76SLPC  H15A 6801   1.257   1.577   5.695  1.9441 -0.3831 -0.7097
   76SLPC  H15B 6802   1.222   1.410   5.712  0.6796  0.7229  1.2313
   76SLPC  H15C 6803   1.149   1.494   5.578  1.2338 -0.8714  0.2310
   76SLPC   C12 6804   1.107   1.509   5.911 -0.7608 -0.1406  0.1278
   76SLPC  H12A 6805   1.199   1.562   5.926 -2.0380  2.7609 -1.4849
   76SLPC  H12B 6806   1.122   1.403   5.929 -0.3300 -0.3090 -1.1694
   76SLPC   C11 6807   1.011   1.543   6.031 -0.1166 -0.3835  0.6783
   76SLPC  H11A 6808   0.987   1.651   6.020 -1.5274 -0.6875  0.5766
   76SLPC  H11B 6809   1.067   1.529   6.126  1.5461 -0.2610 -0.2373
   76SLPC     P 6810   0.751   1.492   6.109  0.0078  0.0413 -0.0478
   76SLPC   O13 6811   0.684   1.617   6.064 -0.6701 -0.2772  0.2108
   76SLPC   O14 6812   0.663   1.376   6.126  0.5820  0.8335  0.4420
   76SLPC   O12 6813   0.895   1.461   6.035  0.4468 -0.4083 -0.5952
   76SLPC   O11 6814   0.794   1.523   6.260 -0.1702 -0.6370  0.1024
   76SLPC    C1 6815   0.825   1.428   6.362 -0.4955  0.0223 -1.0440
   76SLPC    HA 6816   0.729   1.377   6.386 -1.1469  0.5058 -2.4915
   76SLPC    HB 6817   0.896   1.355   6.320  2.2212  0.3450  2.5416
   76SLPC    C2 6818   0.902   1.486   6.481 -0.5427  0.6959 -0.4214
   76SLPC    HS 6819   0.844   1.547   6.554 -1.0084  0.5045 -0.6245
   76SLPC   O21 6820   1.029   1.548   6.440 -0.6544 -0.0269  0.5583
   76SLPC   C21 6821   1.024   1.679   6.436  0.1441 -0.4081 -0.2368
   76SLPC   O22 6822   0.921   1.741   6.452  0.2220  0.2019  0.7855
   76SLPC   C22 6823   1.158   1.742   6.404  0.5632 -0.9065  0.3660
   76SLPC   H2R 6824   1.237   1.667   6.426  0.2070 -0.8842  1.8405
   76SLPC   H2S 6825   1.152   1.761   6.295 -1.0317 -1.4345  0.3278
   76SLPC    C3 6826   0.957   1.362   6.565  0.4315 -0.7122  0.3079
   76SLPC    HX 6827   1.031   1.319   6.495 -1.7292 -2.0050 -1.3029
   76SLPC    HY 6828   0.869   1.294   6.575 -0.9374  0.7965 -1.0913
   76SLPC   O31 6829   1.032   1.399   6.679  0.3699  0.3031  0.2537
   76SLPC   C31 6830   0.953   1.420   6.789  0.1765  0.2131  0.5249
   76SLPC   O32 6831   0.831   1.434   6.787  0.2582  0.1209  0.2789
   76SLPC   C32 6832   1.041   1.438   6.912 -0.2793  0.1327 -0.6052
   76SLPC   H2X 6833   1.099   1.532   6.916 -0.0411 -0.0276 -0.1579
   76SLPC   H2Y 6834   1.118   1.358   6.903 -0.3523 -0.0776  0.4798
   76SLPC   C23 6835   1.185   1.874   6.479  0.5555 -0.5030  0.0572
   76SLPC   H3R 6836   1.103   1.948   6.468  1.9102  1.0071 -0.1870
   76SLPC   H3S 6837   1.272   1.917   6.426  0.8409  2.6326  2.7538
   76SLPC   C24 6838   1.223   1.859   6.624 -0.3768  0.0657 -0.5862
   76SLPC   H4R 6839   1.258   1.959   6.657 -1.5236  0.0568  0.7281
   76SLPC   H4S 6840   1.316   1.797   6.626 -1.2267 -1.2500  1.3906
   76SLPC   C25 6841   1.124   1.789   6.710  0.0284 -0.6304 -0.2696
   76SLPC   H5R 6842   1.154   1.682   6.701  1.5392 -0.2318 -0.2461
   76SLPC   H5S 6843   1.020   1.800   6.675  0.2594  2.5909 -0.2628
   76SLPC   C26 6844   1.121   1.834   6.857 -1.1119  0.2356  0.0757
   76SLPC   H6R 6845   1.219   1.824   6.910 -1.0469  2.3972  0.4399
   76SLPC   H6S 6846   1.046   1.763   6.899 -4.1121  0.7213 -3.9507
   76SLPC   C27 6847   1.076   1.980   6.877  0.0445  0.0126 -0.1789
   76SLPC   H7R 6848   0.987   1.988   6.811  0.8458 -0.6493 -1.3984
   76SLPC   H7S 6849   1.151   2.056   6.847  0.8041  0.6956  3.0647
   76SLPC   C28 6850   1.031   2.004   7.016  0.6819  0.2096 -0.3714
   76SLPC   H8R 6851   0.963   2.091   7.022 -2.0501 -1.7935 -0.3775
   76SLPC   H8S 6852   0.958   1.922   7.032  0.5339  0.2394 -0.8765
   76SLPC   C29 6853   1.144   2.015   7.115 -0.1614 -0.2461 -0.2534
   76SLPC   H9R 6854   1.229   2.077   7.083  0.2322 -0.5894  0.1172
   76SLPC  C210 6855   1.154   1.958   7.239 -0.5853  0.2499  0.9243
   76SLPC  H10R 6856   1.239   1.980   7.306 -0.2021 -0.6672  0.7657
   76SLPC  C211 6857   1.051   1.871   7.309 -0.4582 -0.1138 -0.3885
   76SLPC  H11R 6858   1.011   1.805   7.229 -1.1726 -0.2290  0.0566
   76SLPC  H11S 6859   0.965   1.936   7.338  1.4097  3.0398 -1.3399
   76SLPC  C212 6860   1.099   1.811   7.440 -0.2486 -0.5043 -0.3211
   76SLPC  H12R 6861   1.186   1.745   7.430 -0.8205 -1.1748 -1.0043
   76SLPC  C213 6862   1.054   1.838   7.566 -0.4578  0.0331  0.3538
   76SLPC  H13R 6863   1.100   1.787   7.652  0.4698  0.6590  0.2458
   76SLPC  C214 6864   0.931   1.918   7.615  0.4594 -0.4561 -0.6225
   76SLPC  H14R 6865   0.878   1.846   7.682  3.1403 -1.1983  0.8524
   76SLPC  H14S 6866   0.870   1.961   7.532 -0.7176 -2.4164 -0.8553
   76SLPC  C215 6867   0.974   2.042   7.697  1.0775 -1.1082  1.0207
   76SLPC  H15R 6868   0.902   2.124   7.678  0.7282 -1.8088 -0.9616
   76SLPC  H15S 6869   1.071   2.080   7.659  0.8188 -1.4743 -0.0481
   76SLPC  C216 6870   0.975   2.012   7.843  0.4604 -0.1063  0.3779
   76SLPC  H16R 6871   1.037   1.921   7.854  1.7842  0.6689 -0.2963
   76SLPC  H16S 6872   0.873   1.986   7.878  1.4738 -1.4406  2.5531
   76SLPC  C217 6873   1.018   2.135   7.927 -0.0965 -0.7478  0.0683
   76SLPC  H17R 6874   1.020   2.107   8.034  1.4750  0.2648  0.3276
   76SLPC  H17S 6875   0.955   2.226   7.927  1.6762  0.6682  3.8402
   76SLPC  C218 6876   1.157   2.180   7.882  0.0071  0.0111  0.5013
   76SLPC  H18R 6877   1.223   2.091   7.874 -0.6360 -0.5732  1.4411
   76SLPC  H18S 6878   1.205   2.250   7.953  3.0500 -0.5526 -0.8583
   76SLPC  H18T 6879   1.144   2.236   7.787  0.1786 -0.8951 -0.0639
   76SLPC   C33 6880   0.951   1.431   7.043  0.2392 -0.1712 -0.2446
   76SLPC   H3X 6881   0.881   1.345   7.042 -1.2193  0.9757 -1.5311
   76SLPC   H3Y 6882   0.892   1.524   7.030  1.5941  0.5462 -1.7841
   76SLPC   C34 6883   1.041   1.448   7.165  0.2496  0.1893 -0.2990
   76SLPC   H4X 6884   1.088   1.548   7.169 -2.9169  1.8494 -1.6266
   76SLPC   H4Y 6885   1.113   1.362   7.165 -2.3683 -2.1498 -0.2451
   76SLPC   C35 6886   0.964   1.443   7.300 -0.1577  0.1378 -0.9566
   76SLPC   H5X 6887   0.905   1.350   7.310 -0.9727  0.6691 -0.6884
   76SLPC   H5Y 6888   0.898   1.533   7.306  1.4075  1.2283  2.4178
   76SLPC   C36 6889   1.052   1.445   7.428  0.8763 -0.6141  0.3634
   76SLPC   H6X 6890   1.124   1.530   7.429  0.6623 -0.4307  0.2349
   76SLPC   H6Y 6891   1.104   1.350   7.452 -1.9521 -1.7023  2.7865
   76SLPC   C37 6892   0.962   1.448   7.556 -0.4267 -0.5293  0.4044
   76SLPC   H7X 6893   0.893   1.362   7.548 -0.2059 -0.7482  0.8223
   76SLPC   H7Y 6894   0.899   1.540   7.563  1.7065  0.9474  1.5666
   76SLPC   C38 6895   1.044   1.441   7.687 -0.2155  1.0217 -0.3204
   76SLPC   H8X 6896   1.132   1.508   7.682  1.3566 -1.0019 -2.4646
   76SLPC   H8Y 6897   1.090   1.340   7.698 -0.0144  1.2465  0.9527
   76SLPC   C39 6898   0.974   1.456   7.816  0.9612 -0.0917 -0.0359
   76SLPC   H9X 6899   1.058   1.469   7.888  2.1932  1.6671 -1.6853
   76SLPC   H9Y 6900   0.908   1.376   7.857  1.5023 -0.0527  0.9486
   76SLPC  C310 6901   0.906   1.595   7.829 -0.2537  0.0368  0.0091
   76SLPC  H10X 6902   0.811   1.593   7.772 -1.5750  1.5019  2.0086
   76SLPC  H10Y 6903   0.983   1.668   7.796  0.8942 -0.4822  1.4343
   76SLPC  C311 6904   0.866   1.632   7.973  0.9440 -0.4388 -0.0267
   76SLPC  H11X 6905   0.815   1.731   7.977 -0.6538 -1.2361  0.3070
   76SLPC  H11Y 6906   0.958   1.639   8.035  2.7923  1.6369 -2.7587
   76SLPC  C312 6907   0.766   1.527   8.034  0.0629 -0.9444  0.2163
   76SLPC  H12X 6908   0.796   1.420   8.025 -1.0129 -1.4556  2.2239
   76SLPC  H12Y 6909   0.666   1.543   7.990  0.3327  0.6990  0.1462
   76SLPC  C313 6910   0.749   1.564   8.184 -0.1478 -0.1883 -0.2803
   76SLPC  H13X 6911   0.708   1.666   8.198  1.7535  0.8109 -1.4850
   76SLPC  H13Y 6912   0.845   1.560   8.240  0.8372  3.0060 -1.4850
   76SLPC  C314 6913   0.652   1.450   8.250 -0.2794 -1.0354  0.3472
   76SLPC  H14X 6914   0.690   1.348   8.230  1.9839 -0.9894  3.5608
   76SLPC  H14Y 6915   0.559   1.459   8.190 -0.3529 -2.8831  0.1196
   76SLPC  C315 6916   0.631   1.481   8.395  0.0830  0.2277  0.1511
   76SLPC  H15X 6917   0.729   1.501   8.444 -0.0705  1.8778 -0.1814
   76SLPC  H15Y 6918   0.613   1.381   8.441 -0.5944  0.3847  0.2356
   76SLPC  C316 6919   0.508   1.566   8.430 -0.1766  0.0069  0.5764
   76SLPC  H16X 6920   0.411   1.518   8.402 -0.4802  0.3457  1.0352
   76SLPC  H16Y 6921   0.510   1.663   8.376 -0.4025  0.0047  0.5624
   76SLPC  C317 6922   0.515   1.601   8.578  0.1415  0.1281  0.0373
   76SLPC  H17X 6923   0.611   1.654   8.595  0.2352  0.1901 -0.6348
   76SLPC  H17Y 6924   0.517   1.505   8.634  0.7502 -0.2080 -0.5297
   76SLPC  C318 6925   0.408   1.687   8.655 -0.2771  0.7432 -0.2266
   76SLPC  H18X 6926   0.421   1.674   8.764  0.0904  1.2494 -0.2054
   76SLPC  H18Y 6927   0.300   1.670   8.637 -0.7671  2.3326  0.9521
   76SLPC  H18Z 6928   0.422   1.795   8.631  0.4556  0.7338  0.1340
   77SLPC     N 6929   3.561   2.022   5.910 -0.1147  1.0096  0.2444
   77SLPC   C13 6930   3.681   1.958   5.979  0.0532 -0.0775  0.8040
   77SLPC  H13A 6931   3.650   1.884   6.052  0.4930 -2.4595 -1.2953
   77SLPC  H13B 6932   3.751   1.907   5.914  0.5260  0.1976  1.0991
   77SLPC  H13C 6933   3.738   2.026   6.041  2.1429 -0.5466 -0.5016
   77SLPC   C14 6934   3.480   1.920   5.842  0.7289 -0.1028 -0.1925
   77SLPC  H14A 6935   3.520   1.880   5.750  0.7391 -2.8738  0.9402
   77SLPC  H14B 6936   3.464   1.831   5.900 -2.0194  0.0753 -0.5477
   77SLPC  H14C 6937   3.384   1.965   5.821  1.0349 -0.0265 -1.5596
   77SLPC   C15 6938   3.619   2.125   5.817  0.8899  0.1058 -0.0723
   77SLPC  H15A 6939   3.548   2.191   5.769  0.8026 -0.5779 -0.9172
   77SLPC  H15B 6940   3.687   2.182   5.878  0.5883 -0.8501  1.2233
   77SLPC  H15C 6941   3.690   2.094   5.742  1.3424  1.3222 -0.1574
   77SLPC   C12 6942   3.474   2.092   6.004  0.7353  0.6577  0.8558
   77SLPC  H12A 6943   3.385   2.127   5.954  0.7803 -1.4442 -0.8655
   77SLPC  H12B 6944   3.531   2.175   6.044  1.6652  0.1859  0.5447
   77SLPC   C11 6945   3.435   2.014   6.125  0.7464  0.1715  1.2953
   77SLPC  H11A 6946   3.397   2.081   6.205 -1.5938 -1.1949  1.4160
   77SLPC  H11B 6947   3.520   1.967   6.179  1.1166 -0.0269  0.5447
   77SLPC     P 6948   3.176   1.946   6.127 -0.0654 -0.2015 -0.4142
   77SLPC   O13 6949   3.129   2.065   6.065  0.5172  0.1525  0.7613
   77SLPC   O14 6950   3.108   1.818   6.094 -0.1163  0.0976  0.4397
   77SLPC   O12 6951   3.332   1.917   6.091 -0.0886  0.0613 -0.5396
   77SLPC   O11 6952   3.195   1.964   6.286 -0.5125  0.2780  0.5940
   77SLPC    C1 6953   3.219   1.847   6.365 -0.1321 -0.3390 -1.0017
   77SLPC    HA 6954   3.124   1.798   6.396 -0.1298 -0.3976 -1.0878
   77SLPC    HB 6955   3.280   1.772   6.310 -1.1615 -2.1336  0.2224
   77SLPC    C2 6956   3.293   1.874   6.505 -0.1423 -0.2805  0.1510
   77SLPC    HS 6957   3.213   1.937   6.550 -0.5832 -1.1426  0.6049
   77SLPC   O21 6958   3.416   1.939   6.487  0.0592 -0.0429 -0.1502
   77SLPC   C21 6959   3.414   2.072   6.503  0.3930 -0.2480  0.1646
   77SLPC   O22 6960   3.316   2.141   6.539 -0.3022 -0.1723 -0.4004
   77SLPC   C22 6961   3.545   2.138   6.450  0.5421  0.9495  0.6950
   77SLPC   H2R 6962   3.608   2.064   6.397  1.7333  3.5466 -1.8099
   77SLPC   H2S 6963   3.504   2.207   6.373 -3.5066 -0.7620  1.0870
   77SLPC    C3 6964   3.311   1.752   6.593 -0.4179  0.2729  0.2659
   77SLPC    HX 6965   3.384   1.687   6.539 -1.3988 -0.3555 -0.3475
   77SLPC    HY 6966   3.211   1.704   6.600 -0.0684 -0.2216  2.4139
   77SLPC   O31 6967   3.351   1.795   6.727  0.0719 -0.8533 -0.0115
   77SLPC   C31 6968   3.361   1.686   6.804  0.0813 -0.5907  0.1453
   77SLPC   O32 6969   3.354   1.573   6.761  0.1328  0.3797 -0.6545
   77SLPC   C32 6970   3.375   1.722   6.955  0.2234 -0.5479 -0.0863
   77SLPC   H2X 6971   3.278   1.683   6.991 -0.8176  1.0698 -1.0050
   77SLPC   H2Y 6972   3.378   1.833   6.961  0.5699 -0.6428  3.3739
   77SLPC   C23 6973   3.632   2.208   6.558 -0.0582  0.2293 -0.7460
   77SLPC   H3R 6974   3.565   2.263   6.627  0.6076 -0.1893  0.2646
   77SLPC   H3S 6975   3.703   2.282   6.516 -0.5206  1.5462  0.7002
   77SLPC   C24 6976   3.723   2.118   6.636 -0.2081  0.4822  0.6363
   77SLPC   H4R 6977   3.783   2.065   6.560 -1.4547  0.5977 -0.4611
   77SLPC   H4S 6978   3.648   2.057   6.691 -2.0581  0.4812 -1.7463
   77SLPC   C25 6979   3.814   2.198   6.724  0.1936 -0.3293 -0.1845
   77SLPC   H5R 6980   3.756   2.253   6.801  0.9654  1.7885 -1.0615
   77SLPC   H5S 6981   3.865   2.277   6.666  1.1660 -0.2862  0.6937
   77SLPC   C26 6982   3.908   2.095   6.797  0.0695 -0.8138  0.4434
   77SLPC   H6R 6983   3.990   2.161   6.831  0.1496 -1.7551  2.1817
   77SLPC   H6S 6984   3.954   2.030   6.720 -0.4776  0.7440 -1.2737
   77SLPC   C27 6985   3.823   2.022   6.896  0.0437 -0.2315 -0.5467
   77SLPC   H7R 6986   3.750   1.953   6.846  0.6334 -1.6301  0.4406
   77SLPC   H7S 6987   3.775   2.098   6.961  0.5151 -0.4507  0.0650
   77SLPC   C28 6988   3.898   1.924   6.997 -0.3411  0.0540  0.6422
   77SLPC   H8R 6989   3.941   1.843   6.934  0.3919 -0.5082  1.8234
   77SLPC   H8S 6990   3.834   1.883   7.078 -1.2958  2.1641  1.0083
   77SLPC   C29 6991   4.008   2.000   7.063 -0.2864 -0.1138 -0.3159
   77SLPC   H9R 6992   4.077   2.057   6.998 -0.7538 -0.1825 -0.8769
   77SLPC  C210 6993   4.050   1.989   7.189  0.7373  0.4264 -0.1377
   77SLPC  H10R 6994   4.132   2.055   7.220  0.7151  0.0459  0.7830
   77SLPC  C211 6995   3.997   1.895   7.301 -0.2931 -0.1018 -0.0240
   77SLPC  H11R 6996   3.932   1.818   7.253 -0.8324  0.4551 -0.2114
   77SLPC  H11S 6997   3.931   1.959   7.363 -1.7250 -0.8575 -0.7103
   77SLPC  C212 6998   4.115   1.818   7.368  0.9369  0.1510 -0.1713
   77SLPC  H12R 6999   4.152   1.733   7.309 -0.1769 -0.0178 -0.6386
   77SLPC  C213 7000   4.170   1.843   7.485 -0.1715 -0.4752 -0.5263
   77SLPC  H13R 7001   4.244   1.775   7.530 -0.3565  0.2660  0.9372
   77SLPC  C214 7002   4.132   1.965   7.568 -0.2307 -0.3069 -0.2572
   77SLPC  H14R 7003   4.060   2.034   7.519 -0.6031 -0.2202  0.4048
   77SLPC  H14S 7004   4.224   2.023   7.592  0.2134 -0.3537 -1.7137
   77SLPC  C215 7005   4.053   1.939   7.697 -0.4777 -0.8659  0.8080
   77SLPC  H15R 7006   4.042   2.035   7.754 -1.5893 -0.7580  0.4469
   77SLPC  H15S 7007   4.107   1.868   7.762  0.1253  0.2041  1.5149
   77SLPC  C216 7008   3.912   1.880   7.669  0.3637 -0.3614 -0.6228
   77SLPC  H16R 7009   3.932   1.782   7.621 -2.6451 -1.8239  0.8465
   77SLPC  H16S 7010   3.860   1.936   7.588 -2.4050 -0.9228  0.6469
   77SLPC  C217 7011   3.839   1.841   7.797  0.0269 -0.3278  0.5169
   77SLPC  H17R 7012   3.912   1.766   7.835 -0.7697 -1.9591 -1.0047
   77SLPC  H17S 7013   3.749   1.783   7.768 -0.5344  0.4154  0.7264
   77SLPC  C218 7014   3.815   1.947   7.892  1.1398  0.1444 -0.0892
   77SLPC  H18R 7015   3.902   2.007   7.924 -1.2385  2.3958  2.7143
   77SLPC  H18S 7016   3.779   1.912   7.991  2.5215  1.5760  0.9824
   77SLPC  H18T 7017   3.741   2.024   7.859  0.5148 -0.6118 -0.4997
   77SLPC   C33 7018   3.491   1.659   7.041  0.1864  0.0358  0.1758
   77SLPC   H3X 7019   3.582   1.720   7.026  0.3282 -0.5416 -1.4973
   77SLPC   H3Y 7020   3.513   1.555   7.008  1.0495  0.6156 -1.1429
   77SLPC   C34 7021   3.466   1.664   7.187  0.9786  0.0087 -0.3675
   77SLPC   H4X 7022   3.364   1.623   7.203 -0.3431  3.0015 -0.3373
   77SLPC   H4Y 7023   3.459   1.769   7.224 -0.0593  0.6646 -2.2340
   77SLPC   C35 7024   3.583   1.598   7.261  0.5781 -0.1215  0.6062
   77SLPC   H5X 7025   3.665   1.670   7.278  1.8209 -0.7057 -2.3797
   77SLPC   H5Y 7026   3.624   1.507   7.212  1.0729 -0.5811  1.8197
   77SLPC   C36 7027   3.550   1.554   7.403  0.6631 -0.1688  0.1723
   77SLPC   H6X 7028   3.640   1.512   7.454  0.2743 -0.9240  0.2565
   77SLPC   H6Y 7029   3.472   1.474   7.407  0.7492 -0.3457 -1.1326
   77SLPC   C37 7030   3.497   1.670   7.496 -0.1862 -0.0311  0.3144
   77SLPC   H7X 7031   3.388   1.680   7.477 -0.4420 -0.6309  1.3826
   77SLPC   H7Y 7032   3.558   1.761   7.478  0.5760 -0.9802 -2.2794
   77SLPC   C38 7033   3.501   1.629   7.646 -0.4481  0.5176 -0.6209
   77SLPC   H8X 7034   3.611   1.619   7.662 -0.8669 -1.0554  1.7617
   77SLPC   H8Y 7035   3.455   1.528   7.655  0.6905  0.1591  4.0771
   77SLPC   C39 7036   3.421   1.726   7.736 -0.3178 -0.1971 -0.0693
   77SLPC   H9X 7037   3.323   1.735   7.686 -0.4698 -1.0403  0.0595
   77SLPC   H9Y 7038   3.465   1.828   7.732 -1.7546  0.6195  2.4571
   77SLPC  C310 7039   3.392   1.668   7.878  0.1507 -0.0018 -0.3787
   77SLPC  H10X 7040   3.378   1.558   7.873 -2.1879  0.1931  0.5179
   77SLPC  H10Y 7041   3.299   1.709   7.923 -1.0364 -0.4489 -2.2975
   77SLPC  C311 7042   3.511   1.692   7.982 -0.3061 -0.0364 -0.4846
   77SLPC  H11X 7043   3.515   1.800   8.010 -0.1817  0.4113 -2.1257
   77SLPC  H11Y 7044   3.614   1.674   7.946  0.3202  1.0355  0.6893
   77SLPC  C312 7045   3.480   1.621   8.118 -0.6662  0.3335  0.8329
   77SLPC  H12X 7046   3.493   1.511   8.106  1.2849  0.6487 -0.3356
   77SLPC  H12Y 7047   3.378   1.649   8.150 -1.3734  2.1786 -2.5833
   77SLPC  C313 7048   3.586   1.668   8.225  0.5902  0.4270 -0.1464
   77SLPC  H13X 7049   3.677   1.695   8.167 -0.1064  1.5603 -0.7529
   77SLPC  H13Y 7050   3.614   1.581   8.289 -0.3374  0.5102  0.3829
   77SLPC  C314 7051   3.527   1.780   8.320  0.4245 -0.4568 -0.0768
   77SLPC  H14X 7052   3.441   1.753   8.384 -0.0465  2.3041  0.6028
   77SLPC  H14Y 7053   3.503   1.873   8.264  3.3267  0.9653  0.8461
   77SLPC  C315 7054   3.635   1.840   8.415  0.0426  0.1797  0.2459
   77SLPC  H15X 7055   3.666   1.756   8.481  1.5892  0.8646  0.4302
   77SLPC  H15Y 7056   3.581   1.915   8.477  0.6091 -0.2688  1.3251
   77SLPC  C316 7057   3.752   1.921   8.353 -0.2398 -1.1392  0.1540
   77SLPC  H16X 7058   3.727   1.977   8.260  0.3274  2.8338  2.1872
   77SLPC  H16Y 7059   3.837   1.856   8.322  1.4266  1.3355 -0.6877
   77SLPC  C317 7060   3.811   2.011   8.458  0.1545 -0.8624 -0.1309
   77SLPC  H17X 7061   3.836   1.948   8.545 -1.9492  1.8021  2.5914
   77SLPC  H17Y 7062   3.736   2.088   8.484  0.1576 -0.7920 -0.3258
   77SLPC  C318 7063   3.928   2.085   8.401 -0.3302 -0.0197  0.0703
   77SLPC  H18X 7064   3.978   2.145   8.481  2.4487 -2.6083  0.4608
   77SLPC  H18Y 7065   3.905   2.158   8.320  1.6676  0.0889 -0.4577
   77SLPC  H18Z 7066   4.013   2.015   8.388  0.2449  0.4359  1.2561
   78SLPC     N 7067   1.151   2.730   5.972  0.4060 -0.1616  0.0172
   78SLPC   C13 7068   1.029   2.757   6.056 -0.6453 -0.3538  0.6488
   78SLPC  H13A 7069   1.028   2.688   6.140 -0.4036 -2.1363 -0.7388
   78SLPC  H13B 7070   1.031   2.861   6.085 -2.8411 -0.2471  0.6103
   78SLPC  H13C 7071   0.934   2.743   6.006  0.0356  1.0808 -1.1618
   78SLPC   C14 7072   1.258   2.833   6.001  0.2950 -0.4183  0.0621
   78SLPC  H14A 7073   1.317   2.807   6.088  0.4215 -0.5364 -0.0577
   78SLPC  H14B 7074   1.330   2.848   5.922 -0.3224  0.1685 -0.4044
   78SLPC  H14C 7075   1.222   2.934   6.017  0.4893  0.3773 -3.6839
   78SLPC   C15 7076   1.119   2.750   5.828  0.1903 -0.9163 -0.1363
   78SLPC  H15A 7077   1.090   2.850   5.803  2.8755 -0.4608 -1.8386
   78SLPC  H15B 7078   1.207   2.726   5.769  0.9677 -3.4303  1.8454
   78SLPC  H15C 7079   1.044   2.681   5.791 -0.2243  0.4200 -1.8994
   78SLPC   C12 7080   1.200   2.590   5.999  0.1616 -0.2639  0.5964
   78SLPC  H12A 7081   1.290   2.572   5.941 -0.1535 -1.2655  0.3998
   78SLPC  H12B 7082   1.117   2.530   5.966 -0.4847  0.7083  0.4098
   78SLPC   C11 7083   1.238   2.544   6.139  0.0400 -0.0535  0.0165
   78SLPC  H11A 7084   1.280   2.441   6.138  0.5639  0.1576  0.0778
   78SLPC  H11B 7085   1.142   2.545   6.196 -0.5676  2.8627 -0.9182
   78SLPC     P 7086   1.487   2.626   6.153 -0.2143  0.4393  0.0719
   78SLPC   O13 7087   1.511   2.501   6.069  0.0176 -0.1317  0.7148
   78SLPC   O14 7088   1.522   2.757   6.094 -0.1766  0.4808 -0.0063
   78SLPC   O12 7089   1.333   2.632   6.199 -0.1923  0.3043  0.1961
   78SLPC   O11 7090   1.561   2.609   6.288 -0.0466 -0.8341  0.1787
   78SLPC    C1 7091   1.565   2.723   6.373 -0.3616  0.1176 -0.7993
   78SLPC    HA 7092   1.671   2.743   6.401 -0.7252  0.3648  0.4957
   78SLPC    HB 7093   1.529   2.821   6.334 -1.0311 -0.8015 -2.5843
   78SLPC    C2 7094   1.490   2.710   6.510 -0.1295  0.3838  0.2018
   78SLPC    HS 7095   1.511   2.791   6.583 -3.0385  0.8927  0.6041
   78SLPC   O21 7096   1.534   2.583   6.578 -0.2645 -0.4910  0.8296
   78SLPC   C21 7097   1.662   2.567   6.615  0.5275 -0.5472 -0.0522
   78SLPC   O22 7098   1.748   2.656   6.610 -0.2115 -0.1733  0.1320
   78SLPC   C22 7099   1.678   2.435   6.674 -0.3516 -0.3648  0.4656
   78SLPC   H2R 7100   1.609   2.418   6.760 -0.6924  1.9548  0.7040
   78SLPC   H2S 7101   1.663   2.354   6.599 -0.8053 -0.0303  0.1932
   78SLPC    C3 7102   1.338   2.720   6.494  0.2671  0.1973  1.4316
   78SLPC    HX 7103   1.313   2.630   6.433  2.2995 -0.4666  1.5271
   78SLPC    HY 7104   1.303   2.804   6.429 -0.5810 -1.8612 -0.9733
   78SLPC   O31 7105   1.275   2.710   6.617 -0.3558 -0.2113 -0.2067
   78SLPC   C31 7106   1.251   2.827   6.675 -0.0855  0.3911 -0.5468
   78SLPC   O32 7107   1.298   2.934   6.646  0.5159 -0.8944  0.2769
   78SLPC   C32 7108   1.170   2.791   6.802  0.0597  0.6700 -0.1397
   78SLPC   H2X 7109   1.121   2.695   6.775  0.5410  1.0838 -2.6532
   78SLPC   H2Y 7110   1.088   2.864   6.822 -1.6664 -1.5504  1.4497
   78SLPC   C23 7111   1.827   2.420   6.724  0.3247  0.2762  0.6700
   78SLPC   H3R 7112   1.851   2.510   6.785  0.2544  0.5145  0.3443
   78SLPC   H3S 7113   1.883   2.414   6.628 -0.9205 -0.3277 -0.0404
   78SLPC   C24 7114   1.846   2.296   6.805 -0.3688  0.7231  0.0055
   78SLPC   H4R 7115   1.831   2.205   6.743  1.3287  0.9722 -0.8316
   78SLPC   H4S 7116   1.763   2.294   6.879 -0.7914  0.2636 -0.4733
   78SLPC   C25 7117   1.974   2.294   6.884 -0.1962 -0.0381  0.7351
   78SLPC   H5R 7118   1.960   2.344   6.983  2.8129  0.7937  0.8387
   78SLPC   H5S 7119   2.059   2.333   6.825 -2.2743  1.0134 -1.7421
   78SLPC   C26 7120   2.018   2.142   6.898 -0.2844 -0.0045 -0.1486
   78SLPC   H6R 7121   2.009   2.097   6.796  0.2834  0.7800 -0.5558
   78SLPC   H6S 7122   1.941   2.095   6.963  0.4050 -0.7371  0.1515
   78SLPC   C27 7123   2.156   2.111   6.961 -0.3800  0.0895  0.2605
   78SLPC   H7R 7124   2.151   2.167   7.056 -2.0367 -1.0315  0.8752
   78SLPC   H7S 7125   2.232   2.163   6.898 -0.2477 -0.4461 -0.0339
   78SLPC   C28 7126   2.202   1.965   6.989  0.1059 -0.6457  0.3017
   78SLPC   H8R 7127   2.197   1.897   6.901 -1.5702 -0.6782  0.3846
   78SLPC   H8S 7128   2.124   1.922   7.056 -1.0205 -0.2268 -0.6987
   78SLPC   C29 7129   2.343   1.967   7.034  0.3287 -0.2360 -0.5095
   78SLPC   H9R 7130   2.422   1.987   6.960 -0.8406  0.4001 -1.6145
   78SLPC  C210 7131   2.387   1.941   7.154 -0.5657  0.3841  0.6677
   78SLPC  H10R 7132   2.492   1.954   7.181 -0.8477  2.8633  0.7955
   78SLPC  C211 7133   2.310   1.896   7.272 -0.2702 -0.3102  0.4428
   78SLPC  H11R 7134   2.375   1.824   7.326  0.5886 -0.8378 -1.2150
   78SLPC  H11S 7135   2.228   1.831   7.235  1.2961 -1.1929 -1.7021
   78SLPC  C212 7136   2.255   2.009   7.353  0.1167  0.2538  0.5074
   78SLPC  H12R 7137   2.190   2.075   7.293 -1.7689 -3.5853 -2.1251
   78SLPC  C213 7138   2.256   2.022   7.485 -0.5298 -0.1087  0.1976
   78SLPC  H13R 7139   2.198   2.107   7.524  1.9054  1.2748  1.0305
   78SLPC  C214 7140   2.312   1.925   7.589  0.2170  0.4086  0.4737
   78SLPC  H14R 7141   2.344   1.830   7.540 -2.7609 -0.0700 -0.7369
   78SLPC  H14S 7142   2.223   1.896   7.648 -0.7732  1.9414 -0.2255
   78SLPC  C215 7143   2.418   1.996   7.676  0.7781  0.6608 -0.1940
   78SLPC  H15R 7144   2.360   2.062   7.744  0.1807 -1.4814  1.5115
   78SLPC  H15S 7145   2.490   2.054   7.615 -1.7677  2.1954 -1.9416
   78SLPC  C216 7146   2.485   1.892   7.774 -0.1424  0.2312  0.0836
   78SLPC  H16R 7147   2.528   1.808   7.715  2.4724  0.5284  1.4314
   78SLPC  H16S 7148   2.414   1.851   7.850  0.2631  1.7518  1.3160
   78SLPC  C217 7149   2.601   1.957   7.859  0.2169  0.0844  0.1756
   78SLPC  H17R 7150   2.661   2.023   7.792  0.4895 -0.4209 -0.0873
   78SLPC  H17S 7151   2.660   1.876   7.907 -0.8425 -0.5999  0.3531
   78SLPC  C218 7152   2.547   2.036   7.972 -0.1436 -0.1218  0.5534
   78SLPC  H18R 7153   2.616   2.056   8.057 -1.2956 -0.7193  1.6567
   78SLPC  H18S 7154   2.453   1.989   8.009  0.2771 -0.2739  1.4533
   78SLPC  H18T 7155   2.509   2.130   7.927  0.1701 -0.0904  0.3461
   78SLPC   C33 7156   1.253   2.748   6.933 -0.9450  0.0579  0.2208
   78SLPC   H3X 7157   1.343   2.811   6.948  0.3669 -1.8304  0.5507
   78SLPC   H3Y 7158   1.282   2.644   6.906 -1.2748 -0.4561  1.7130
   78SLPC   C34 7159   1.166   2.746   7.062 -0.4153 -1.0191  0.7955
   78SLPC   H4X 7160   1.224   2.687   7.137  4.1803 -0.0904 -1.6801
   78SLPC   H4Y 7161   1.069   2.697   7.040 -1.0907  0.2193  0.9297
   78SLPC   C35 7162   1.129   2.886   7.121 -0.1953 -0.2256 -0.3446
   78SLPC   H5X 7163   1.072   2.940   7.043  0.5586  1.8339  0.4529
   78SLPC   H5Y 7164   1.227   2.939   7.118  0.1380 -0.6945  1.4031
   78SLPC   C36 7165   1.054   2.893   7.256 -0.0395 -0.1101 -0.1355
   78SLPC   H6X 7166   0.951   2.853   7.245  0.1681 -1.0349  1.0071
   78SLPC   H6Y 7167   1.040   2.997   7.291 -3.0031 -0.4179 -0.1085
   78SLPC   C37 7168   1.133   2.807   7.362  0.3226  0.4040  0.5359
   78SLPC   H7X 7169   1.239   2.834   7.348  0.9982 -2.3137 -0.3449
   78SLPC   H7Y 7170   1.111   2.700   7.341 -1.1452  0.9980 -1.1891
   78SLPC   C38 7171   1.098   2.842   7.507  0.6315 -0.4893 -0.3784
   78SLPC   H8X 7172   0.997   2.801   7.529  0.7386  0.0104  1.1694
   78SLPC   H8Y 7173   1.083   2.952   7.507 -0.5350 -0.6011  1.2589
   78SLPC   C39 7174   1.207   2.809   7.612  0.1396 -0.4677  0.1683
   78SLPC   H9X 7175   1.308   2.849   7.590  0.9844 -1.9943  1.0475
   78SLPC   H9Y 7176   1.212   2.698   7.614  3.4630 -0.4207  1.9673
   78SLPC  C310 7177   1.161   2.859   7.749 -0.0011 -0.3239 -0.0811
   78SLPC  H10X 7178   1.062   2.814   7.770 -0.7112  0.5690 -1.3709
   78SLPC  H10Y 7179   1.160   2.970   7.741  1.0415 -0.0722  2.2544
   78SLPC  C311 7180   1.248   2.818   7.863  0.4817  0.4110 -0.5044
   78SLPC  H11X 7181   1.344   2.873   7.855  0.4226  0.5071 -0.5716
   78SLPC  H11Y 7182   1.269   2.711   7.882  1.2023  0.5647 -0.4191
   78SLPC  C312 7183   1.194   2.877   7.987 -0.3646  0.2998 -0.3045
   78SLPC  H12X 7184   1.084   2.862   7.997 -0.6029  0.4599 -2.2711
   78SLPC  H12Y 7185   1.199   2.987   7.973 -3.8225  0.5346 -0.7264
   78SLPC  C313 7186   1.271   2.843   8.114 -0.0879 -0.2616  0.2575
   78SLPC  H13X 7187   1.376   2.857   8.080 -0.6060  0.2778 -1.1726
   78SLPC  H13Y 7188   1.268   2.736   8.146 -2.8867 -0.7600 -1.3825
   78SLPC  C314 7189   1.238   2.924   8.238 -0.7483  0.0289 -0.1726
   78SLPC  H14X 7190   1.130   2.911   8.260 -1.4340  3.3969 -0.8936
   78SLPC  H14Y 7191   1.249   3.031   8.208  0.7619 -0.0553  0.0475
   78SLPC  C315 7192   1.321   2.885   8.355  0.0474  0.3634 -0.3527
   78SLPC  H15X 7193   1.291   2.780   8.379  0.1565  0.1353 -1.1688
   78SLPC  H15Y 7194   1.294   2.948   8.442 -1.4233  1.7023 -1.7091
   78SLPC  C316 7195   1.472   2.887   8.340 -0.3125 -0.3910 -0.2686
   78SLPC  H16X 7196   1.516   2.813   8.269  3.1015 -0.0458  1.2793
   78SLPC  H16Y 7197   1.500   2.854   8.442 -0.3895  0.2016 -0.0546
   78SLPC  C317 7198   1.544   3.024   8.325  0.1054  0.5141  0.0234
   78SLPC  H17X 7199   1.498   3.090   8.401 -0.7705  0.2117 -0.2382
   78SLPC  H17Y 7200   1.505   3.068   8.230 -1.6070 -1.7723 -0.4205
   78SLPC  C318 7201   1.695   3.016   8.342 -0.2389 -0.3881 -0.5295
   78SLPC  H18X 7202   1.746   3.114   8.329 -2.9100  1.3449  0.9294
   78SLPC  H18Y 7203   1.722   2.945   8.261 -3.3578 -1.2168 -0.9872
   78SLPC  H18Z 7204   1.723   2.976   8.442 -2.4481  1.4091  0.9027
   79SLPC     N 7205   4.068   5.432   6.028  0.0524  0.5822  0.1679
   79SLPC   C13 7206   4.017   5.555   6.085  0.4228  0.0278 -0.1772
   79SLPC  H13A 7207   3.950   5.550   6.170  0.0177  1.2333 -0.4016
   79SLPC  H13B 7208   4.101   5.620   6.109  1.3811 -1.4969  0.7365
   79SLPC  H13C 7209   3.960   5.608   6.010 -0.1841 -0.5185 -0.1100
   79SLPC   C14 7210   4.108   5.447   5.886 -0.0345  0.6283 -0.4428
   79SLPC  H14A 7211   4.139   5.351   5.848  2.2152  1.3824 -0.6633
   79SLPC  H14B 7212   4.023   5.476   5.827 -1.8975  1.5612  2.4819
   79SLPC  H14C 7213   4.187   5.518   5.863 -0.0008  0.4700 -0.8168
   79SLPC   C15 7214   3.961   5.330   6.020  0.2699  0.2897  0.1402
   79SLPC  H15A 7215   3.868   5.364   5.976  0.0726  0.2180  0.5007
   79SLPC  H15B 7216   3.999   5.253   5.954 -2.9058  0.3145 -1.9124
   79SLPC  H15C 7217   3.934   5.285   6.114 -0.1312 -0.4354 -0.3124
   79SLPC   C12 7218   4.182   5.378   6.115 -1.0184 -0.1896  0.3573
   79SLPC  H12A 7219   4.217   5.287   6.071  2.3184  0.6222  1.0514
   79SLPC  H12B 7220   4.140   5.355   6.212 -0.2504 -1.7075  0.3483
   79SLPC   C11 7221   4.312   5.467   6.101  0.0247  0.8441 -1.0623
   79SLPC  H11A 7222   4.333   5.489   5.994 -0.6277 -0.0184 -1.3806
   79SLPC  H11B 7223   4.404   5.411   6.128  0.0520  1.1683 -0.4514
   79SLPC     P 7224   4.380   5.640   6.294  0.2422  0.7017 -0.2733
   79SLPC   O13 7225   4.517   5.652   6.252 -0.9016  0.1853  0.5395
   79SLPC   O14 7226   4.328   5.758   6.366 -1.0133  0.2661 -0.1446
   79SLPC   O12 7227   4.296   5.598   6.165 -0.5027  0.1351  0.6898
   79SLPC   O11 7228   4.367   5.503   6.376  0.1572  0.3502 -0.1278
   79SLPC    C1 7229   4.247   5.467   6.448 -0.4660 -0.0108  0.9055
   79SLPC    HA 7230   4.163   5.534   6.418 -0.2632  0.6771  1.8227
   79SLPC    HB 7231   4.219   5.361   6.428 -0.7852  0.6924 -3.2144
   79SLPC    C2 7232   4.268   5.491   6.601  0.1411 -0.4526 -0.4719
   79SLPC    HS 7233   4.175   5.475   6.659  0.5159  0.4319  0.3950
   79SLPC   O21 7234   4.299   5.626   6.634  0.4370 -0.2816 -0.2050
   79SLPC   C21 7235   4.212   5.713   6.611 -0.0147 -0.1997  0.5499
   79SLPC   O22 7236   4.090   5.691   6.582  0.5154 -0.0328  0.0664
   79SLPC   C22 7237   4.250   5.852   6.665  0.2398 -0.2983  0.1663
   79SLPC   H2R 7238   4.360   5.863   6.673  0.3528  1.4316 -2.4104
   79SLPC   H2S 7239   4.233   5.925   6.582 -1.1246 -0.0515  0.6347
   79SLPC    C3 7240   4.372   5.391   6.649 -0.0722  0.5300 -0.3403
   79SLPC    HX 7241   4.388   5.427   6.753 -2.9545 -1.1040  0.7868
   79SLPC    HY 7242   4.465   5.406   6.589  1.3063 -1.6677  1.1033
   79SLPC   O31 7243   4.340   5.248   6.645  0.6565 -0.1309 -0.0884
   79SLPC   C31 7244   4.437   5.169   6.687  0.4972  0.1048  0.5561
   79SLPC   O32 7245   4.535   5.208   6.746  0.4841 -0.3805 -0.8418
   79SLPC   C32 7246   4.411   5.024   6.662  0.3329  0.2270  0.1465
   79SLPC   H2X 7247   4.510   4.976   6.674  0.2048  0.2509  1.4444
   79SLPC   H2Y 7248   4.374   5.011   6.558  0.5344 -1.8637  0.3002
   79SLPC   C23 7249   4.164   5.893   6.789  0.8091  1.0757 -0.4844
   79SLPC   H3R 7250   4.058   5.866   6.767  0.9233  0.6150 -0.4940
   79SLPC   H3S 7251   4.167   5.999   6.822  1.3911  1.2482 -1.0715
   79SLPC   C24 7252   4.185   5.812   6.920 -0.4480 -0.4661  0.5983
   79SLPC   H4R 7253   4.278   5.854   6.964 -0.6150  1.7361 -0.9724
   79SLPC   H4S 7254   4.212   5.705   6.907  2.2015  0.2408 -0.2860
   79SLPC   C25 7255   4.072   5.846   7.028  0.4783  0.0377  0.0319
   79SLPC   H5R 7256   3.983   5.791   6.992  1.6894 -0.0530 -3.1914
   79SLPC   H5S 7257   4.061   5.956   7.021 -0.1338 -0.0529 -0.5137
   79SLPC   C26 7258   4.106   5.803   7.166 -0.0363 -0.2261 -0.6197
   79SLPC   H6R 7259   4.193   5.860   7.206 -0.9593  0.6333  0.2142
   79SLPC   H6S 7260   4.145   5.699   7.173  1.0781  0.2614  1.4572
   79SLPC   C27 7261   3.997   5.824   7.268 -0.7146  0.5431  0.6307
   79SLPC   H7R 7262   3.915   5.761   7.228  0.1403  1.8431 -3.7481
   79SLPC   H7S 7263   3.954   5.926   7.276  0.0678  0.7637  2.3834
   79SLPC   C28 7264   4.032   5.780   7.407 -0.9791 -0.3258  0.5255
   79SLPC   H8R 7265   4.089   5.685   7.401 -0.2586  0.0806  0.7613
   79SLPC   H8S 7266   3.943   5.750   7.466 -2.1613  2.5724  0.3675
   79SLPC   C29 7267   4.109   5.888   7.476  0.4707 -0.4515  1.0695
   79SLPC   H9R 7268   4.188   5.927   7.410  0.1649 -0.2216  0.8324
   79SLPC  C210 7269   4.110   5.941   7.601 -0.2307 -0.5015 -0.6249
   79SLPC  H10R 7270   4.189   6.014   7.624  0.1540 -0.8931 -0.6845
   79SLPC  C211 7271   4.016   5.881   7.707  0.6066 -0.3000 -0.7584
   79SLPC  H11R 7272   3.967   5.787   7.676 -0.4202 -0.0228 -0.0136
   79SLPC  H11S 7273   3.950   5.968   7.729  0.9009 -0.1750 -0.3583
   79SLPC  C212 7274   4.089   5.853   7.835 -0.1632  0.0012  0.3677
   79SLPC  H12R 7275   4.178   5.789   7.820 -0.2823  0.1905 -1.3475
   79SLPC  C213 7276   4.063   5.895   7.963  1.0896 -0.8269  0.0040
   79SLPC  H13R 7277   4.140   5.860   8.034  2.4829  1.5676 -0.2162
   79SLPC  C214 7278   3.945   5.988   8.012 -0.5777  0.0275  0.7834
   79SLPC  H14R 7279   3.893   6.033   7.924 -1.5705  1.5828  2.1119
   79SLPC  H14S 7280   3.976   6.070   8.080 -2.7205  0.0788  1.7871
   79SLPC  C215 7281   3.828   5.908   8.092  0.1558 -0.3494  0.5465
   79SLPC  H15R 7282   3.781   5.982   8.160 -3.9300 -0.3119 -2.0070
   79SLPC  H15S 7283   3.880   5.826   8.147  1.4214 -0.6208 -0.9933
   79SLPC  C216 7284   3.716   5.852   8.003  0.9574  0.4544 -0.2465
   79SLPC  H16R 7285   3.777   5.786   7.939  1.4505 -0.2401  0.9108
   79SLPC  H16S 7286   3.654   5.929   7.952  1.2662  0.5391 -0.4978
   79SLPC  C217 7287   3.620   5.757   8.080 -0.9183  0.2120 -0.2035
   79SLPC  H17R 7288   3.553   5.811   8.150  1.0580  1.4693  0.8046
   79SLPC  H17S 7289   3.690   5.692   8.136 -2.2773 -1.2967 -0.1791
   79SLPC  C218 7290   3.540   5.667   7.991  0.5292 -0.8177 -0.4755
   79SLPC  H18R 7291   3.496   5.734   7.915 -0.1288  0.7017  1.1663
   79SLPC  H18S 7292   3.445   5.626   8.033  0.9521 -2.5456 -1.1436
   79SLPC  H18T 7293   3.601   5.587   7.944 -0.0158 -2.1016  0.9264
   79SLPC   C33 7294   4.298   4.977   6.760  0.3394 -0.5781  0.0616
   79SLPC   H3X 7295   4.287   4.867   6.750 -0.0833 -0.8918  3.0557
   79SLPC   H3Y 7296   4.199   5.024   6.740 -0.0071 -0.7109  1.3755
   79SLPC   C34 7297   4.338   5.003   6.904 -0.0201 -0.2154  0.0199
   79SLPC   H4X 7298   4.329   5.112   6.925 -2.3905  0.0215 -1.8145
   79SLPC   H4Y 7299   4.441   4.968   6.924  0.2812 -0.6174 -2.0577
   79SLPC   C35 7300   4.244   4.924   7.005  0.2937 -0.1161  0.3096
   79SLPC   H5X 7301   4.248   4.819   6.972  0.9592 -0.2728  0.8680
   79SLPC   H5Y 7302   4.150   4.974   6.974 -0.0615 -1.5532 -1.0231
   79SLPC   C36 7303   4.283   4.945   7.145  0.1626 -0.5988 -0.2965
   79SLPC   H6X 7304   4.295   5.052   7.174  1.9728 -0.0830 -2.6494
   79SLPC   H6Y 7305   4.377   4.893   7.174  0.9608  1.2105  0.5705
   79SLPC   C37 7306   4.175   4.896   7.246  0.0835 -0.0283  0.7701
   79SLPC   H7X 7307   4.140   4.792   7.228  1.6482 -0.0708 -3.0255
   79SLPC   H7Y 7308   4.079   4.949   7.228 -0.0720 -0.7218 -0.6024
   79SLPC   C38 7309   4.203   4.926   7.395 -0.0729  0.9188  0.5988
   79SLPC   H8X 7310   4.201   5.034   7.422 -3.0335  0.9374  0.6603
   79SLPC   H8Y 7311   4.308   4.901   7.421  0.1438  0.4179 -0.6376
   79SLPC   C39 7312   4.105   4.848   7.486  0.3786 -0.3346 -0.6706
   79SLPC   H9X 7313   4.126   4.746   7.449  2.2703  0.7892 -3.0410
   79SLPC   H9Y 7314   4.001   4.878   7.461 -0.3768 -0.8655  1.6414
   79SLPC  C310 7315   4.143   4.874   7.631  0.3080  0.6240  0.4018
   79SLPC  H10X 7316   4.130   4.982   7.652 -1.1573  0.2979  1.3153
   79SLPC  H10Y 7317   4.251   4.848   7.632  0.1175 -0.4796 -2.0356
   79SLPC  C311 7318   4.066   4.786   7.731 -0.0416 -0.0855  0.2746
   79SLPC  H11X 7319   4.139   4.749   7.806  1.7108 -0.2478 -1.4233
   79SLPC  H11Y 7320   4.039   4.696   7.671 -0.2051  0.7250 -0.8891
   79SLPC  C312 7321   3.944   4.859   7.802  0.5140  0.0874 -0.1888
   79SLPC  H12X 7322   3.864   4.848   7.726 -0.9061 -0.1967  1.2905
   79SLPC  H12Y 7323   3.954   4.967   7.827 -0.6544 -0.2214  1.8493
   79SLPC  C313 7324   3.875   4.793   7.915  0.0214 -0.2081 -0.4859
   79SLPC  H13X 7325   3.904   4.685   7.916  0.0817 -0.2038  1.1477
   79SLPC  H13Y 7326   3.765   4.796   7.900 -0.0850 -1.3553 -0.0962
   79SLPC  C314 7327   3.913   4.845   8.053 -0.6723  0.0937 -0.1050
   79SLPC  H14X 7328   3.911   4.956   8.051  3.0414  0.3205  0.4823
   79SLPC  H14Y 7329   4.023   4.827   8.061  0.3491  5.0784  0.2675
   79SLPC  C315 7330   3.832   4.800   8.173  0.3439 -0.0093  0.4633
   79SLPC  H15X 7331   3.843   4.693   8.199 -0.4716 -0.4374 -0.8483
   79SLPC  H15Y 7332   3.723   4.818   8.164  0.1622  1.0610  3.5351
   79SLPC  C316 7333   3.876   4.884   8.300  0.8422 -0.4766 -0.2352
   79SLPC  H16X 7334   3.858   4.991   8.277  0.0008 -0.6132 -0.2435
   79SLPC  H16Y 7335   3.984   4.868   8.321  1.0805 -2.1981 -2.3823
   79SLPC  C317 7336   3.802   4.846   8.423  0.6212 -0.4631 -0.4215
   79SLPC  H17X 7337   3.846   4.749   8.453  0.2711 -0.5324 -0.1258
   79SLPC  H17Y 7338   3.697   4.816   8.403  0.7818  0.0075 -2.1250
   79SLPC  C318 7339   3.811   4.949   8.537 -0.0895  0.7887 -0.0195
   79SLPC  H18X 7340   3.731   5.025   8.523 -0.7036  0.2104  0.3254
   79SLPC  H18Y 7341   3.913   4.993   8.550  0.9736 -1.7180  0.7327
   79SLPC  H18Z 7342   3.779   4.903   8.633 -0.1924 -3.7625 -1.9849
   80SLPC     N 7343   6.777   3.072   6.307  0.2767  0.2110  0.0936
   80SLPC   C13 7344   6.723   3.087   6.446 -0.3770  0.2127  0.7420
   80SLPC  H13A 7345   6.616   3.076   6.459 -0.3282  0.9441  2.0217
   80SLPC  H13B 7346   6.774   3.014   6.508 -1.6677  0.1524  1.7769
   80SLPC  H13C 7347   6.738   3.182   6.495 -1.2287  0.9803 -0.4353
   80SLPC   C14 7348   6.927   3.083   6.311  0.2403 -0.0658 -0.2164
   80SLPC  H14A 7349   6.966   3.169   6.364  0.0083 -0.6549  0.9478
   80SLPC  H14B 7350   6.964   2.997   6.365 -1.9107 -1.0172 -0.1330
   80SLPC  H14C 7351   6.961   3.073   6.209 -1.1635 -0.8251 -0.6425
   80SLPC   C15 7352   6.726   3.187   6.217 -0.2751 -0.2367  0.4949
   80SLPC  H15A 7353   6.618   3.188   6.208 -0.1338 -1.3416 -2.6438
   80SLPC  H15B 7354   6.751   3.283   6.259  0.1380 -0.1548  0.0686
   80SLPC  H15C 7355   6.763   3.174   6.116  1.3013 -1.4728  1.1901
   80SLPC   C12 7356   6.730   2.937   6.249 -0.4292  0.2214  0.2266
   80SLPC  H12A 7357   6.765   2.938   6.147  1.9353 -2.3901  0.8975
   80SLPC  H12B 7358   6.622   2.939   6.245 -0.6008 -1.7369  2.1708
   80SLPC   C11 7359   6.772   2.807   6.316 -0.0704  0.2150  0.4067
   80SLPC  H11A 7360   6.709   2.730   6.267 -2.9281  3.5316 -1.7214
   80SLPC  H11B 7361   6.737   2.822   6.420 -2.1873 -1.3544 -0.0073
   80SLPC     P 7362   6.987   2.686   6.394 -0.2461  0.0601 -0.1208
   80SLPC   O13 7363   6.900   2.661   6.509 -0.1535  0.3008  0.1813
   80SLPC   O14 7364   7.040   2.568   6.322  0.5023 -0.3785  0.1637
   80SLPC   O12 7365   6.910   2.781   6.297 -0.3502  0.5719 -0.5696
   80SLPC   O11 7366   7.097   2.797   6.428 -0.1508 -0.2658  0.3313
   80SLPC    C1 7367   7.236   2.765   6.441 -0.5745 -0.4933  0.3845
   80SLPC    HA 7368   7.272   2.696   6.362 -0.2397 -0.2900  0.3560
   80SLPC    HB 7369   7.296   2.859   6.438 -0.2201 -0.6712 -3.7879
   80SLPC    C2 7370   7.280   2.703   6.576 -0.0653  0.3616 -0.0356
   80SLPC    HS 7371   7.390   2.711   6.565 -0.3430  3.0933 -2.0032
   80SLPC   O21 7372   7.217   2.573   6.592 -0.7221  0.3761 -0.2811
   80SLPC   C21 7373   7.261   2.477   6.516 -0.7893 -0.1097 -0.3013
   80SLPC   O22 7374   7.354   2.490   6.436 -0.8670  0.1618 -0.0638
   80SLPC   C22 7375   7.194   2.342   6.547  0.1226 -0.3615  0.4532
   80SLPC   H2R 7376   7.097   2.369   6.595 -0.4880  1.1507 -1.5003
   80SLPC   H2S 7377   7.158   2.312   6.446  1.0593 -0.1724  0.0549
   80SLPC    C3 7378   7.227   2.802   6.679 -0.4404 -0.5811  0.3852
   80SLPC    HX 7379   7.116   2.801   6.670 -0.3853 -0.2709 -0.3966
   80SLPC    HY 7380   7.255   2.906   6.653 -1.6594 -0.4271 -0.4092
   80SLPC   O31 7381   7.258   2.760   6.815 -0.0401  0.2352 -0.3098
   80SLPC   C31 7382   7.384   2.762   6.844 -0.0820 -0.2066  0.3059
   80SLPC   O32 7383   7.474   2.805   6.774 -0.3115 -0.3110  0.0837
   80SLPC   C32 7384   7.404   2.684   6.971  0.0347  0.1598 -0.5729
   80SLPC   H2X 7385   7.513   2.673   6.988  0.2944  3.4325  0.4636
   80SLPC   H2Y 7386   7.356   2.584   6.959 -1.0696  0.6545 -0.4061
   80SLPC   C23 7387   7.284   2.247   6.630  0.1650  0.2148 -0.2710
   80SLPC   H3R 7388   7.380   2.216   6.585  1.5714  3.4055  0.2996
   80SLPC   H3S 7389   7.217   2.158   6.636  0.5010  0.0015  0.4125
   80SLPC   C24 7390   7.305   2.301   6.772  0.0122  0.5616 -0.6373
   80SLPC   H4R 7391   7.221   2.369   6.799  0.5335  0.6169  0.9273
   80SLPC   H4S 7392   7.402   2.355   6.763  0.6111 -0.2254  0.7725
   80SLPC   C25 7393   7.321   2.193   6.881  0.6660  0.6296  0.3465
   80SLPC   H5R 7394   7.394   2.112   6.860 -0.1911 -0.3486  1.0285
   80SLPC   H5S 7395   7.218   2.150   6.881  0.7388  0.4537  0.4864
   80SLPC   C26 7396   7.343   2.260   7.014  0.6955 -0.5646 -0.5014
   80SLPC   H6R 7397   7.261   2.331   7.039  1.2227  0.6136 -1.9677
   80SLPC   H6S 7398   7.437   2.316   7.000  1.3617 -1.4276  0.3815
   80SLPC   C27 7399   7.350   2.160   7.128 -0.8082  0.4174  0.3522
   80SLPC   H7R 7400   7.425   2.199   7.200 -1.6729 -0.7305  1.9468
   80SLPC   H7S 7401   7.389   2.064   7.087 -1.9071  0.5521 -1.0907
   80SLPC   C28 7402   7.221   2.136   7.214 -0.5307  0.0910 -0.0554
   80SLPC   H8R 7403   7.237   2.043   7.272  2.2256 -0.7897 -2.0399
   80SLPC   H8S 7404   7.139   2.128   7.139 -1.2530 -0.6815  0.8013
   80SLPC   C29 7405   7.202   2.252   7.304 -0.0894 -0.1436  0.1190
   80SLPC   H9R 7406   7.171   2.340   7.246  3.7683 -0.0398 -2.1273
   80SLPC  C210 7407   7.238   2.271   7.431  0.7402  0.5804 -0.3502
   80SLPC  H10R 7408   7.203   2.357   7.490 -1.8282  0.3490 -1.4216
   80SLPC  C211 7409   7.305   2.169   7.515 -0.1413  0.4541 -0.5217
   80SLPC  H11R 7410   7.393   2.215   7.563  0.9536  0.7827 -2.7483
   80SLPC  H11S 7411   7.341   2.087   7.450  0.8230 -1.0128  1.7397
   80SLPC  C212 7412   7.203   2.116   7.619  0.0036  0.0193  0.5277
   80SLPC  H12R 7413   7.136   2.040   7.575 -0.4164  1.6203 -1.7382
   80SLPC  C213 7414   7.178   2.174   7.744 -0.7332  0.5259 -0.1708
   80SLPC  H13R 7415   7.101   2.126   7.806  0.4658 -1.8480 -0.3794
   80SLPC  C214 7416   7.255   2.291   7.804  0.4197  0.1922  0.5608
   80SLPC  H14R 7417   7.189   2.380   7.811 -0.3025 -0.4033  1.7646
   80SLPC  H14S 7418   7.343   2.314   7.740 -0.8925  0.9128 -1.0274
   80SLPC  C215 7419   7.309   2.255   7.948 -0.6391 -0.3779 -0.0102
   80SLPC  H15R 7420   7.396   2.317   7.978 -0.5046 -1.2674  1.5529
   80SLPC  H15S 7421   7.342   2.148   7.947  0.6077 -0.0133 -0.8264
   80SLPC  C216 7422   7.186   2.270   8.047  0.0792 -0.3771  0.2255
   80SLPC  H16R 7423   7.098   2.208   8.020 -2.2809  2.1205  1.7152
   80SLPC  H16S 7424   7.159   2.377   8.054 -3.1438 -1.1084  0.3345
   80SLPC  C217 7425   7.236   2.236   8.185  0.5950  0.3478 -0.1006
   80SLPC  H17R 7426   7.313   2.156   8.186 -0.6405 -0.9213 -1.3209
   80SLPC  H17S 7427   7.155   2.193   8.248  0.8907 -0.9144 -0.5622
   80SLPC  C218 7428   7.303   2.354   8.257 -0.1274 -0.6172  0.6725
   80SLPC  H18R 7429   7.361   2.319   8.345 -0.2823 -1.6311  0.3880
   80SLPC  H18S 7430   7.221   2.423   8.284 -2.3829 -2.3217 -1.3825
   80SLPC  H18T 7431   7.376   2.409   8.193 -1.4374  1.8340  1.1638
   80SLPC   C33 7432   7.335   2.758   7.089  0.2889 -0.4609 -0.1714
   80SLPC   H3X 7433   7.225   2.769   7.080  0.1633 -0.8639  0.8257
   80SLPC   H3Y 7434   7.380   2.859   7.101 -2.1423  0.7446 -0.7562
   80SLPC   C34 7435   7.351   2.676   7.223 -0.0930 -0.1960 -0.1961
   80SLPC   H4X 7436   7.456   2.644   7.240 -0.9649 -2.7341  0.9212
   80SLPC   H4Y 7437   7.294   2.581   7.214 -0.7174  0.3196 -2.1374
   80SLPC   C35 7438   7.306   2.755   7.353  0.1614  0.1885 -0.4559
   80SLPC   H5X 7439   7.203   2.791   7.334  0.1603  0.6591  0.4088
   80SLPC   H5Y 7440   7.369   2.845   7.372  1.3375 -0.9406  1.3607
   80SLPC   C36 7441   7.295   2.673   7.488 -0.3496  0.2018 -0.2830
   80SLPC   H6X 7442   7.391   2.619   7.504 -1.0434 -1.6406 -1.8365
   80SLPC   H6Y 7443   7.234   2.581   7.473 -0.0945 -0.0518  0.2113
   80SLPC   C37 7444   7.257   2.750   7.613  0.0188 -0.4328  0.8499
   80SLPC   H7X 7445   7.177   2.824   7.598 -1.4712 -2.1369 -0.0009
   80SLPC   H7Y 7446   7.351   2.808   7.626  1.7202 -2.3502 -1.7476
   80SLPC   C38 7447   7.211   2.662   7.731 -0.6971 -0.6189  0.2090
   80SLPC   H8X 7448   7.296   2.591   7.742  0.5313  0.8419  0.4425
   80SLPC   H8Y 7449   7.118   2.607   7.705 -0.6205 -0.4763 -0.3892
   80SLPC   C39 7450   7.214   2.744   7.861 -0.5228 -0.0600 -0.0485
   80SLPC   H9X 7451   7.152   2.837   7.860 -0.9352 -0.3426 -1.0965
   80SLPC   H9Y 7452   7.319   2.767   7.890 -0.9252 -0.0997  1.5889
   80SLPC  C310 7453   7.156   2.665   7.981 -0.3313 -0.7672 -0.5513
   80SLPC  H10X 7454   7.212   2.568   7.977  3.5296  1.2625 -0.8903
   80SLPC  H10Y 7455   7.051   2.643   7.953  0.1504 -1.0143 -2.2833
   80SLPC  C311 7456   7.148   2.729   8.120 -0.4520  0.0216  0.1781
   80SLPC  H11X 7457   7.249   2.740   8.165 -0.3838 -0.8825  0.2594
   80SLPC  H11Y 7458   7.075   2.666   8.175  0.1591 -0.0460  0.9304
   80SLPC  C312 7459   7.071   2.866   8.131  0.1200 -0.2815  0.0305
   80SLPC  H12X 7460   6.986   2.881   8.061 -0.2439 -0.2471  0.4742
   80SLPC  H12Y 7461   7.143   2.943   8.096  1.7426 -1.7706 -0.0274
   80SLPC  C313 7462   7.032   2.908   8.270 -0.1726 -0.0873 -0.3141
   80SLPC  H13X 7463   7.125   2.935   8.324  0.3513 -1.3209 -0.5706
   80SLPC  H13Y 7464   6.995   2.824   8.332 -0.1349  0.0898 -0.0484
   80SLPC  C314 7465   6.920   3.020   8.271 -0.0270  0.8042 -0.8592
   80SLPC  H14X 7466   6.841   3.003   8.195 -1.2489  1.9411  0.0889
   80SLPC  H14Y 7467   6.953   3.120   8.235 -0.8094  0.8239 -1.5500
   80SLPC  C315 7468   6.864   3.054   8.410 -0.1516  0.4695 -0.0998
   80SLPC  H15X 7469   6.928   3.103   8.486 -0.2800 -0.7044  0.8046
   80SLPC  H15Y 7470   6.847   2.954   8.456 -0.0183 -0.0434 -1.1388
   80SLPC  C316 7471   6.742   3.146   8.414  0.2662 -0.6100  0.2245
   80SLPC  H16X 7472   6.699   3.153   8.517 -2.1357  2.1090 -0.8285
   80SLPC  H16Y 7473   6.665   3.128   8.336  0.4684  1.8940 -0.6493
   80SLPC  C317 7474   6.787   3.295   8.391 -0.1130 -0.6016 -0.9241
   80SLPC  H17X 7475   6.848   3.305   8.299  2.0599 -2.0719  0.2691
   80SLPC  H17Y 7476   6.861   3.312   8.473  0.0330  1.0513 -1.3665
   80SLPC  C318 7477   6.672   3.403   8.389 -0.4070 -0.0340 -0.4854
   80SLPC  H18X 7478   6.619   3.387   8.485  0.0716 -0.1077 -0.2270
   80SLPC  H18Y 7479   6.604   3.391   8.302 -2.2337  0.4424  0.8258
   80SLPC  H18Z 7480   6.717   3.504   8.394  1.9667 -0.8257 -3.0968
   81SAPS     N 7481   4.623   2.742  10.747 -0.2652  0.3374  0.1239
   81SAPS   HN1 7482   4.521   2.723  10.745  0.0568 -1.6144 -0.6813
   81SAPS   HN2 7483   4.642   2.833  10.700 -4.1016  0.9024 -0.6452
   81SAPS   HN3 7484   4.676   2.684  10.678  0.3804 -0.2757  1.1036
   81SAPS   C12 7485   4.682   2.725  10.874 -0.4515 -0.4724 -0.3025
   81SAPS  H12A 7486   4.647   2.815  10.923  2.7103  1.3572 -1.0643
   81SAPS   C13 7487   4.638   2.596  10.954  0.1626 -0.0196  0.2769
   81SAPS  O13A 7488   4.531   2.537  10.928  0.4025  0.1398 -0.4424
   81SAPS  O13B 7489   4.699   2.583  11.063  0.3679 -0.1457  0.5153
   81SAPS   C11 7490   4.838   2.731  10.864  0.7784  0.2605 -0.3436
   81SAPS  H11A 7491   4.875   2.644  10.806 -0.2241  2.0251 -3.8900
   81SAPS  H11B 7492   4.874   2.711  10.968 -0.6329 -1.6148 -0.1674
   81SAPS     P 7493   5.035   2.881  10.793  0.5361  0.1425  0.3994
   81SAPS   O13 7494   5.069   3.027  10.813  0.0239 -0.1342 -0.0259
   81SAPS   O14 7495   5.109   2.783  10.874  0.4911  0.0819  0.2403
   81SAPS   O12 7496   4.885   2.861  10.821  0.2639  0.6776  0.3066
   81SAPS   O11 7497   5.065   2.827  10.642 -0.2418 -0.0102 -0.0340
   81SAPS    C1 7498   5.024   2.917  10.540  0.0064  0.1020  1.0958
   81SAPS    HA 7499   4.915   2.909  10.522 -0.2561  2.2170  1.4656
   81SAPS    HB 7500   5.051   3.019  10.573  0.1176  0.4118  0.0922
   81SAPS    C2 7501   5.094   2.876  10.404 -0.2957  0.9030  0.6588
   81SAPS    HS 7502   5.052   2.774  10.392 -1.1127  0.8475  3.4243
   81SAPS   O21 7503   5.238   2.878  10.410 -0.3618  0.2276 -0.6190
   81SAPS   C21 7504   5.297   2.791  10.332 -0.2419  0.5939  0.5176
   81SAPS   O22 7505   5.241   2.702  10.270  0.1396  0.2694 -0.3659
   81SAPS   C22 7506   5.454   2.815  10.335  0.3704  0.6076  0.6251
   81SAPS   H2R 7507   5.465   2.911  10.388  1.3738  0.9724 -0.2103
   81SAPS   H2S 7508   5.504   2.726  10.380 -0.1462 -0.4865 -0.8594
   81SAPS    C3 7509   5.055   2.976  10.293 -0.1426 -0.8893 -0.7487
   81SAPS    HX 7510   5.101   3.073  10.321 -1.6490 -0.1783 -0.6986
   81SAPS    HY 7511   4.945   2.972  10.303  0.0622 -3.7106  2.0408
   81SAPS   O31 7512   5.102   2.937  10.161 -0.3098  0.1432 -0.0955
   81SAPS   C31 7513   5.022   2.980  10.063  0.0274  0.2946  0.7583
   81SAPS   O32 7514   4.924   3.046  10.081 -0.1517  0.5450 -0.0049
   81SAPS   C32 7515   5.091   2.943   9.930 -0.6498  0.6942 -0.5724
   81SAPS   H2X 7516   5.162   2.862   9.955  0.7173  2.5875  2.1678
   81SAPS   H2Y 7517   5.133   3.035   9.885  0.8180  0.8474  0.9932
   81SAPS   C23 7518   5.517   2.836  10.198  0.2053  0.4412  0.2240
   81SAPS   H3R 7519   5.616   2.880  10.222  0.4541 -0.3272  0.6369
   81SAPS   H3S 7520   5.453   2.908  10.144  0.0513  1.2011  1.3874
   81SAPS   C24 7521   5.546   2.717  10.102  0.0692 -0.3935  0.2792
   81SAPS   H4R 7522   5.587   2.639  10.169 -0.6736 -0.3029  0.8575
   81SAPS   H4S 7523   5.632   2.757  10.044 -1.1324  2.3197  0.2141
   81SAPS   C25 7524   5.431   2.665  10.013 -0.4903  0.7091  0.3976
   81SAPS   H5R 7525   5.344   2.625  10.066 -0.9663  0.9593 -0.1808
   81SAPS   C26 7526   5.426   2.663   9.878  0.3242 -0.7423 -0.0018
   81SAPS   H6R 7527   5.340   2.615   9.830 -1.4588  3.2401 -1.2534
   81SAPS   C27 7528   5.535   2.716   9.776  0.1467 -0.0766  0.1849
   81SAPS   H7R 7529   5.630   2.727   9.831  0.4187 -1.1131 -0.0676
   81SAPS   H7S 7530   5.511   2.817   9.736 -2.3536  0.1226  1.9682
   81SAPS   C28 7531   5.557   2.610   9.668  0.5543  0.1990  0.4572
   81SAPS   H8R 7532   5.480   2.617   9.589 -0.2184  1.1293  1.2720
   81SAPS   C29 7533   5.661   2.535   9.643 -0.1053 -0.6387  0.2596
   81SAPS   H9R 7534   5.661   2.470   9.554 -1.0096  1.8943 -1.7096
   81SAPS  C210 7535   5.788   2.538   9.720 -0.2575  0.2469  0.9514
   81SAPS  H10R 7536   5.808   2.431   9.741  3.5607  0.9246  1.4496
   81SAPS  H10S 7537   5.791   2.592   9.818  1.2679 -0.0961  1.1090
   81SAPS  C211 7538   5.901   2.590   9.630  0.6171 -0.0328 -0.1860
   81SAPS  H11R 7539   5.870   2.672   9.563 -0.4027 -1.2694 -1.2710
   81SAPS  C212 7540   6.032   2.578   9.650  0.3290  0.9757 -0.3416
   81SAPS  H12R 7541   6.096   2.599   9.563 -0.1937 -0.8491 -1.2275
   81SAPS  C213 7542   6.103   2.499   9.755 -0.7044 -0.3949 -0.8644
   81SAPS  H13R 7543   6.028   2.441   9.812  2.3217 -2.8893  0.9683
   81SAPS  H13S 7544   6.163   2.563   9.823 -2.4459 -0.5773  0.9119
   81SAPS  C214 7545   6.202   2.398   9.713  0.6767  0.8635 -0.3477
   81SAPS  H14R 7546   6.262   2.443   9.633  1.1932 -0.3564 -0.6797
   81SAPS  C215 7547   6.225   2.273   9.771 -0.8744  0.3797  0.4028
   81SAPS  H15R 7548   6.290   2.199   9.721 -1.3593  0.0640  0.2323
   81SAPS  C216 7549   6.166   2.214   9.893  0.2823  0.5269  0.1328
   81SAPS  H16R 7550   6.080   2.146   9.871 -0.6403  1.1332  1.7095
   81SAPS  H16S 7551   6.130   2.299   9.954  2.7080  2.5809 -1.1314
   81SAPS  C217 7552   6.264   2.133   9.981  0.4376 -1.0525  0.0811
   81SAPS  H17R 7553   6.321   2.064   9.915  1.0391 -0.1127 -0.4080
   81SAPS  H17S 7554   6.196   2.077  10.049 -0.3159 -1.7488 -1.2154
   81SAPS  C218 7555   6.365   2.222  10.057  0.1839  0.3875 -0.5810
   81SAPS  H18R 7556   6.448   2.243   9.986  1.1093 -1.4561 -0.1151
   81SAPS  H18S 7557   6.400   2.154  10.139 -1.8300  2.5733  2.2982
   81SAPS  C219 7558   6.322   2.360  10.110  0.8043 -0.0745 -0.4488
   81SAPS  H19R 7559   6.225   2.329  10.155  1.2421 -0.7815  0.0195
   81SAPS  H19S 7560   6.293   2.434  10.032  1.8824  2.0838  1.0959
   81SAPS  C220 7561   6.421   2.415  10.211  0.0551 -0.0707 -0.9233
   81SAPS  H20R 7562   6.506   2.473  10.170  0.7234 -0.2833  0.1063
   81SAPS  H20S 7563   6.456   2.330  10.273  0.7619  2.3437  2.2523
   81SAPS  H20T 7564   6.376   2.483  10.287  0.4349 -0.4051 -0.3982
   81SAPS   C33 7565   4.984   2.904   9.834 -0.0804  1.1809 -0.2454
   81SAPS   H3X 7566   4.911   2.980   9.799 -2.0134 -0.5440 -0.1657
   81SAPS   H3Y 7567   4.935   2.812   9.873  0.7237  1.5045  1.5988
   81SAPS   C34 7568   5.062   2.879   9.699 -0.7448 -0.3885  0.3172
   81SAPS   H4X 7569   5.153   2.816   9.707  0.0292  0.2658 -2.3798
   81SAPS   H4Y 7570   5.100   2.977   9.661  1.2159 -0.5878  1.6122
   81SAPS   C35 7571   4.993   2.808   9.581  0.1758 -0.0484  0.1106
   81SAPS   H5X 7572   4.893   2.854   9.564  0.8400  1.0697 -0.9152
   81SAPS   H5Y 7573   4.982   2.703   9.616 -1.2852 -0.1736 -0.6238
   81SAPS   C36 7574   5.068   2.817   9.444 -0.5970  0.4229 -0.0288
   81SAPS   H6X 7575   5.157   2.751   9.454  0.1217  1.1071 -1.5439
   81SAPS   H6Y 7576   5.100   2.921   9.420 -1.4733  0.4494 -1.1306
   81SAPS   C37 7577   4.990   2.770   9.327  0.2519 -0.1890 -0.4218
   81SAPS   H7X 7578   4.922   2.850   9.292  0.0163  0.6150  1.7139
   81SAPS   H7Y 7579   4.918   2.692   9.362  1.5728 -1.2290  0.1001
   81SAPS   C38 7580   5.051   2.719   9.202  0.6558 -0.2880 -0.4815
   81SAPS   H8X 7581   5.102   2.622   9.221 -0.1663 -0.8899 -1.2287
   81SAPS   H8Y 7582   5.132   2.791   9.178 -1.3328  2.1068 -0.3491
   81SAPS   C39 7583   4.952   2.719   9.090  0.2156  0.5359  0.5319
   81SAPS   H9X 7584   4.914   2.822   9.071 -1.3508 -0.2032 -0.4798
   81SAPS   H9Y 7585   4.863   2.657   9.114 -0.6250  0.9811 -1.3071
   81SAPS  C310 7586   5.017   2.669   8.957 -0.0837  0.2218  0.4931
   81SAPS  H10X 7587   5.076   2.575   8.962 -1.3895 -0.5711  1.7540
   81SAPS  H10Y 7588   5.083   2.747   8.913  0.3184 -0.0884  0.5420
   81SAPS  C311 7589   4.912   2.647   8.852  0.4376 -0.0341  0.0150
   81SAPS  H11X 7590   4.838   2.728   8.844 -0.5509 -0.6307  2.3186
   81SAPS  H11Y 7591   4.852   2.560   8.886 -0.9971  1.6674  2.0872
   81SAPS  C312 7592   4.968   2.611   8.715  0.0164 -0.5869  0.0978
   81SAPS  H12X 7593   5.020   2.513   8.729 -1.0077 -1.2264 -0.4153
   81SAPS  H12Y 7594   5.031   2.691   8.672 -1.8586 -0.9463 -3.8018
   81SAPS  C313 7595   4.853   2.584   8.614 -1.3190 -0.1352  0.3501
   81SAPS  H13X 7596   4.771   2.656   8.633 -2.3126 -0.8814 -0.9084
   81SAPS  H13Y 7597   4.812   2.485   8.642 -0.0334 -0.5941  0.6869
   81SAPS  C314 7598   4.904   2.577   8.469  0.4046  0.3669  0.1806
   81SAPS  H14X 7599   4.994   2.513   8.457 -1.0828 -1.4410 -2.2112
   81SAPS  H14Y 7600   4.932   2.677   8.432 -1.4526  0.4163 -1.2310
   81SAPS  C315 7601   4.805   2.499   8.381  0.4435 -0.3052 -0.6244
   81SAPS  H15X 7602   4.708   2.550   8.401  2.0714  1.4008  4.5205
   81SAPS  H15Y 7603   4.795   2.390   8.398 -1.0429 -0.4156 -1.9602
   81SAPS  C316 7604   4.850   2.505   8.232  0.1919 -0.3174 -0.0961
   81SAPS  H16X 7605   4.957   2.476   8.233  0.4115  0.4877  0.1851
   81SAPS  H16Y 7606   4.845   2.612   8.203 -0.5980 -0.4578 -0.4928
   81SAPS  C317 7607   4.769   2.416   8.140 -0.0668 -0.4449  0.7239
   81SAPS  H17X 7608   4.659   2.429   8.155  0.0499  0.5022  0.8316
   81SAPS  H17Y 7609   4.790   2.309   8.160  1.5902 -0.2274  0.2844
   81SAPS  C318 7610   4.812   2.443   7.992 -0.1793 -0.1895 -0.3463
   81SAPS  H18X 7611   4.769   2.541   7.962 -1.6845 -1.0895 -1.2669
   81SAPS  H18Y 7612   4.776   2.365   7.922  0.2896 -0.2743 -0.4973
   81SAPS  H18Z 7613   4.921   2.454   7.973 -0.2864  0.2352 -0.7110
   82SAPS     N 7614   5.314   1.749  11.079 -0.9831 -0.0394  0.1346
   82SAPS   HN1 7615   5.267   1.657  11.068 -1.2009  0.1840 -0.9868
   82SAPS   HN2 7616   5.414   1.721  11.083 -0.9478  0.0455 -0.1226
   82SAPS   HN3 7617   5.299   1.796  11.170  1.1193  1.3079 -0.1274
   82SAPS   C12 7618   5.281   1.836  10.968 -0.3663  0.6977  0.2026
   82SAPS  H12A 7619   5.174   1.832  10.951 -0.3468  2.0916 -0.3434
   82SAPS   C13 7620   5.322   1.983  10.999  0.6492 -0.3601  0.4642
   82SAPS  O13A 7621   5.406   2.013  11.093  1.1351 -0.1524  0.1157
   82SAPS  O13B 7622   5.267   2.074  10.931 -1.0591  0.6043  0.3578
   82SAPS   C11 7623   5.345   1.784  10.836  0.0234 -0.1534  0.0368
   82SAPS  H11A 7624   5.335   1.866  10.763 -0.8092  0.4817  0.8380
   82SAPS  H11B 7625   5.289   1.698  10.794 -0.6211  0.5941 -0.6517
   82SAPS     P 7626   5.552   1.639  10.785 -0.0457  0.0020 -0.2063
   82SAPS   O13 7627   5.697   1.635  10.804 -0.4894  0.4153  0.1507
   82SAPS   O14 7628   5.476   1.520  10.816 -0.0477 -0.1884 -0.4790
   82SAPS   O12 7629   5.480   1.752  10.862 -0.7821  0.2785  0.2630
   82SAPS   O11 7630   5.524   1.681  10.636  0.0474  0.6235  0.2533
   82SAPS    C1 7631   5.568   1.804  10.580  0.0918  0.4492  0.0566
   82SAPS    HA 7632   5.481   1.870  10.559  0.4042  1.2213  1.1022
   82SAPS    HB 7633   5.631   1.864  10.649  0.0807  0.5107  0.0144
   82SAPS    C2 7634   5.653   1.788  10.446 -0.2376 -0.3779  0.2213
   82SAPS    HS 7635   5.707   1.882  10.424 -2.7197  0.9428 -0.6257
   82SAPS   O21 7636   5.568   1.754  10.334 -0.2668 -0.2222  0.9207
   82SAPS   C21 7637   5.502   1.858  10.282  0.5821  0.3060  0.0191
   82SAPS   O22 7638   5.510   1.973  10.316 -0.6247 -0.8136  0.2518
   82SAPS   C22 7639   5.397   1.813  10.178 -0.3214 -0.7268  1.0765
   82SAPS   H2R 7640   5.402   1.704  10.162 -2.7741 -0.5209 -2.0812
   82SAPS   H2S 7641   5.301   1.828  10.232 -0.2070 -1.8722  1.6118
   82SAPS    C3 7642   5.762   1.683  10.466  0.4331  0.2859 -0.4895
   82SAPS    HX 7643   5.725   1.592  10.516  4.0618 -1.3920 -0.5548
   82SAPS    HY 7644   5.838   1.726  10.535  0.2621  1.0715 -0.7768
   82SAPS   O31 7645   5.806   1.636  10.337 -0.8936 -0.1406  0.0613
   82SAPS   C31 7646   5.904   1.718  10.281 -0.1429 -0.7185  0.1755
   82SAPS   O32 7647   5.932   1.830  10.326 -0.6302  0.4624  0.5744
   82SAPS   C32 7648   5.970   1.652  10.160  0.4244 -0.3680 -0.3405
   82SAPS   H2X 7649   5.904   1.577  10.111  1.1357 -1.6574  0.6269
   82SAPS   H2Y 7650   6.056   1.590  10.193  1.7875  1.0462 -1.0840
   82SAPS   C23 7651   5.393   1.891  10.042 -0.0500 -0.2583  0.3670
   82SAPS   H3R 7652   5.476   1.864   9.973 -2.3075  0.5147 -2.9078
   82SAPS   H3S 7653   5.418   1.999  10.055  2.0361 -0.5438 -0.8402
   82SAPS   C24 7654   5.263   1.894   9.958 -0.4098  0.3496 -0.4505
   82SAPS   H4R 7655   5.269   1.977   9.884  0.6214 -0.5303 -1.3885
   82SAPS   H4S 7656   5.177   1.916  10.025 -1.7780  2.6209 -2.7486
   82SAPS   C25 7657   5.240   1.773   9.875 -0.2717  0.2823 -0.1831
   82SAPS   H5R 7658   5.276   1.678   9.918 -1.4054 -0.3520 -0.5849
   82SAPS   C26 7659   5.188   1.759   9.757  0.1743 -0.1830 -0.0160
   82SAPS   H6R 7660   5.180   1.658   9.715  0.2831 -0.0697 -0.3135
   82SAPS   C27 7661   5.131   1.862   9.662  0.2969  0.3047 -0.7607
   82SAPS   H7R 7662   5.202   1.872   9.577  0.8779 -0.1104 -0.3294
   82SAPS   H7S 7663   5.122   1.962   9.711  0.1500 -1.1539  2.4214
   82SAPS   C28 7664   4.995   1.819   9.614  0.4833 -0.0097  0.1860
   82SAPS   H8R 7665   4.915   1.821   9.690  0.8869  0.1052  0.6150
   82SAPS   C29 7666   4.973   1.765   9.492 -0.4716  0.5562 -0.3422
   82SAPS   H9R 7667   4.875   1.737   9.451  1.0797 -3.8921 -1.5728
   82SAPS  C210 7668   5.075   1.754   9.381 -0.1276  0.2175  0.0995
   82SAPS  H10R 7669   5.136   1.662   9.385  0.6066  0.5213 -2.4064
   82SAPS  H10S 7670   5.153   1.830   9.402 -1.8061  1.8700  0.6455
   82SAPS  C211 7671   5.014   1.781   9.241  0.5440  0.0925 -0.3433
   82SAPS  H11R 7672   4.905   1.789   9.240  0.5157 -0.2506 -1.2412
   82SAPS  C212 7673   5.079   1.776   9.123  0.1981  0.4855 -0.0068
   82SAPS  H12R 7674   5.038   1.803   9.025  3.4117  0.6897 -1.4424
   82SAPS  C213 7675   5.228   1.741   9.111 -0.0044 -0.2538  0.0580
   82SAPS  H13R 7676   5.235   1.653   9.044  0.1835  0.4809 -0.9065
   82SAPS  H13S 7677   5.262   1.710   9.212 -2.2296 -4.2331 -0.1860
   82SAPS  C214 7678   5.301   1.861   9.051  0.0164 -0.2197 -0.2550
   82SAPS  H14R 7679   5.258   1.961   9.071  1.0816  0.2033 -0.0255
   82SAPS  C215 7680   5.398   1.853   8.955  0.1824 -0.3934  0.3335
   82SAPS  H15R 7681   5.447   1.947   8.927 -1.6923  0.5222 -0.0350
   82SAPS  C216 7682   5.457   1.731   8.888  0.1802  0.1746  0.4162
   82SAPS  H16R 7683   5.436   1.742   8.780  0.1071 -0.3231  0.3817
   82SAPS  H16S 7684   5.415   1.632   8.917  0.2528 -0.1950 -0.7199
   82SAPS  C217 7685   5.609   1.713   8.899 -0.2041  0.5320 -0.5804
   82SAPS  H17R 7686   5.635   1.655   8.991  0.2729  0.4459 -0.7682
   82SAPS  H17S 7687   5.656   1.812   8.919 -0.3369  1.0833 -2.7595
   82SAPS  C218 7688   5.667   1.629   8.782 -0.6213  0.0114 -0.1062
   82SAPS  H18R 7689   5.673   1.697   8.695 -0.5565  4.3788  2.9524
   82SAPS  H18S 7690   5.597   1.548   8.754 -1.6255  1.4627 -2.0541
   82SAPS  C219 7691   5.818   1.593   8.801  0.9494  0.4489 -0.0784
   82SAPS  H19R 7692   5.825   1.566   8.908 -1.1091  1.4774  0.3762
   82SAPS  H19S 7693   5.888   1.677   8.780  0.3409  1.1145  0.4839
   82SAPS  C220 7694   5.857   1.481   8.701 -1.2678 -0.3443  0.4647
   82SAPS  H20R 7695   5.845   1.518   8.597  0.2221  2.1021  1.0945
   82SAPS  H20S 7696   5.790   1.395   8.724 -3.8191  1.3504 -0.2693
   82SAPS  H20T 7697   5.964   1.452   8.713 -1.1306  0.1120  0.3493
   82SAPS   C33 7698   6.005   1.757  10.047  0.5920  0.0412 -0.3268
   82SAPS   H3X 7699   6.066   1.840  10.089  2.6261 -0.1602 -2.6506
   82SAPS   H3Y 7700   5.916   1.803  10.001  0.7053 -1.5318 -2.2679
   82SAPS   C34 7701   6.077   1.688   9.924  0.0528 -0.1175  0.2978
   82SAPS   H4X 7702   5.988   1.642   9.876 -0.8295  0.9780  0.8224
   82SAPS   H4Y 7703   6.144   1.604   9.949 -0.5989 -1.0200 -0.9012
   82SAPS   C35 7704   6.145   1.783   9.821 -1.0064  1.0705  0.1617
   82SAPS   H5X 7705   6.223   1.840   9.877 -0.9422 -0.5227  1.8145
   82SAPS   H5Y 7706   6.074   1.865   9.797 -1.8662  0.3874  0.3081
   82SAPS   C36 7707   6.205   1.724   9.698  0.7126 -0.9886 -0.4699
   82SAPS   H6X 7708   6.134   1.662   9.640 -1.3830  1.0559 -0.2191
   82SAPS   H6Y 7709   6.293   1.661   9.723  1.6437  0.3316 -0.2476
   82SAPS   C37 7710   6.264   1.833   9.599 -0.1437 -0.0812 -0.3509
   82SAPS   H7X 7711   6.306   1.775   9.515 -0.1578 -1.4858  0.5723
   82SAPS   H7Y 7712   6.351   1.883   9.647 -0.2289 -0.7957  0.5802
   82SAPS   C38 7713   6.172   1.952   9.568  0.0774 -0.1169  0.2033
   82SAPS   H8X 7714   6.155   2.010   9.661  0.6251 -0.0833  0.2855
   82SAPS   H8Y 7715   6.075   1.910   9.531 -0.8895  2.9796 -1.1215
   82SAPS   C39 7716   6.221   2.048   9.461 -0.7706 -0.2916  0.1439
   82SAPS   H9X 7717   6.244   1.995   9.366 -0.5661 -0.1029  0.0884
   82SAPS   H9Y 7718   6.309   2.108   9.492 -0.3709  2.1916 -4.7319
   82SAPS  C310 7719   6.114   2.147   9.419 -0.4406 -0.2662 -0.5092
   82SAPS  H10X 7720   6.069   2.184   9.514 -2.2483  0.6187 -1.6536
   82SAPS  H10Y 7721   6.024   2.101   9.372 -1.4665  0.8239  0.3166
   82SAPS  C311 7722   6.162   2.260   9.338  0.0119 -0.2903  0.4244
   82SAPS  H11X 7723   6.255   2.300   9.385 -0.1616 -2.0091  2.3432
   82SAPS  H11Y 7724   6.089   2.342   9.321  2.1129  1.6415  0.0930
   82SAPS  C312 7725   6.211   2.213   9.195  0.2078 -0.3109  0.3382
   82SAPS  H12X 7726   6.149   2.127   9.159 -0.4464 -0.2460  1.2690
   82SAPS  H12Y 7727   6.317   2.184   9.208  0.9192  0.9237 -2.2441
   82SAPS  C313 7728   6.222   2.329   9.095  0.3922  0.8809  0.0604
   82SAPS  H13X 7729   6.279   2.416   9.134  0.1850  0.4081  1.4871
   82SAPS  H13Y 7730   6.117   2.363   9.081 -0.2316 -0.1355  1.8779
   82SAPS  C314 7731   6.275   2.286   8.961  0.4806  0.1882 -0.6029
   82SAPS  H14X 7732   6.217   2.204   8.914  1.4188  0.2264 -1.8743
   82SAPS  H14Y 7733   6.376   2.242   8.977  0.3842 -0.5179 -1.8742
   82SAPS  C315 7734   6.287   2.402   8.862  0.4372 -0.5628  0.6051
   82SAPS  H15X 7735   6.373   2.471   8.876 -0.3744  0.2906  1.5844
   82SAPS  H15Y 7736   6.202   2.473   8.868  2.2469  1.8904 -1.0101
   82SAPS  C316 7737   6.297   2.343   8.721  0.0979 -0.1581 -0.3242
   82SAPS  H16X 7738   6.203   2.291   8.695  1.5427 -3.7167  0.9494
   82SAPS  H16Y 7739   6.382   2.272   8.723 -2.1779 -3.0178 -0.2399
   82SAPS  C317 7740   6.325   2.449   8.618 -0.2576 -0.4056  0.0385
   82SAPS  H17X 7741   6.426   2.494   8.635 -0.4746  0.8313 -1.6420
   82SAPS  H17Y 7742   6.256   2.533   8.641  1.4648  1.0953 -0.0104
   82SAPS  C318 7743   6.330   2.406   8.477  0.2901  0.2294 -0.1944
   82SAPS  H18X 7744   6.341   2.486   8.400  2.2379 -0.4273 -0.6546
   82SAPS  H18Y 7745   6.243   2.339   8.457 -1.1587  1.4466  1.6770
   82SAPS  H18Z 7746   6.432   2.362   8.475 -0.3801 -1.3786 -0.6321
   83SAPS     N 7747   0.326   2.726  11.222 -0.0729 -0.0746 -0.4287
   83SAPS   HN1 7748   0.402   2.736  11.152 -1.6938  1.3136 -2.1117
   83SAPS   HN2 7749   0.233   2.745  11.178  0.1149 -2.2073 -1.9011
   83SAPS   HN3 7750   0.352   2.796  11.294 -0.5396  0.5008 -0.7973
   83SAPS   C12 7751   0.321   2.592  11.273  0.2054  0.1940 -0.2145
   83SAPS  H12A 7752   0.419   2.561  11.308 -0.8313 -1.2087  1.5812
   83SAPS   C13 7753   0.214   2.579  11.392 -1.4313 -0.1407  0.3878
   83SAPS  O13A 7754   0.160   2.689  11.432  0.1370  0.7353 -0.5445
   83SAPS  O13B 7755   0.215   2.474  11.463 -0.3965 -0.6129  0.1891
   83SAPS   C11 7756   0.267   2.497  11.158 -0.2356  0.2638 -0.1435
   83SAPS  H11A 7757   0.164   2.533  11.134 -0.7433 -0.0891  1.3841
   83SAPS  H11B 7758   0.251   2.396  11.201 -2.6431  1.1124  1.1593
   83SAPS     P 7759   0.294   2.418  10.915  0.3869 -0.3372  0.1729
   83SAPS   O13 7760   0.407   2.389  10.822 -0.0623  0.0031 -0.2263
   83SAPS   O14 7761   0.225   2.301  10.976  0.1712 -0.4776  0.3246
   83SAPS   O12 7762   0.351   2.498  11.038  0.0775 -0.3186  0.5248
   83SAPS   O11 7763   0.195   2.523  10.853 -0.1512 -0.0629 -0.2826
   83SAPS    C1 7764   0.240   2.631  10.767 -0.0698 -0.6165  0.6836
   83SAPS    HA 7765   0.169   2.716  10.778  0.9789  0.2224  1.1573
   83SAPS    HB 7766   0.340   2.666  10.801 -0.0849 -1.9566  2.2338
   83SAPS    C2 7767   0.245   2.603  10.620  0.2117 -0.6929 -0.0536
   83SAPS    HS 7768   0.287   2.503  10.598 -2.8157 -1.6244 -2.1678
   83SAPS   O21 7769   0.314   2.711  10.553 -0.1381  0.0814  0.5687
   83SAPS   C21 7770   0.443   2.725  10.583 -0.3709  1.0354 -0.1837
   83SAPS   O22 7771   0.506   2.644  10.646 -0.6371  0.2025 -0.3868
   83SAPS   C22 7772   0.491   2.860  10.528 -0.7021 -0.4436  0.0860
   83SAPS   H2R 7773   0.443   2.873  10.428  0.1370  0.3439 -0.2373
   83SAPS   H2S 7774   0.469   2.941  10.600  1.8299 -1.6430  2.3784
   83SAPS    C3 7775   0.102   2.603  10.560 -0.1969  0.1744  0.2653
   83SAPS    HX 7776   0.075   2.711  10.565  1.0068  0.4702  0.7680
   83SAPS    HY 7777   0.038   2.539  10.625  0.0002 -2.0185 -1.5666
   83SAPS   O31 7778   0.101   2.534  10.433  0.2540 -0.5336  0.2711
   83SAPS   C31 7779   0.079   2.601  10.326  0.1016  0.7088 -0.8852
   83SAPS   O32 7780   0.046   2.716  10.321  0.4406  0.1918  0.4585
   83SAPS   C32 7781   0.110   2.520  10.212  0.0290 -0.0656 -0.6108
   83SAPS   H2X 7782   0.086   2.413  10.231 -0.5634  0.0564 -0.6577
   83SAPS   H2Y 7783   0.214   2.545  10.180  0.5869 -1.0100  0.3892
   83SAPS   C23 7784   0.647   2.866  10.511 -0.0653  0.1426 -0.1152
   83SAPS   H3R 7785   0.696   2.787  10.573 -2.8495 -0.3850  1.5900
   83SAPS   H3S 7786   0.676   2.965  10.553 -1.6497 -0.0482  1.5735
   83SAPS   C24 7787   0.682   2.847  10.363  0.7375 -0.1141  0.3120
   83SAPS   H4R 7788   0.788   2.875  10.343  1.1613  0.5426  3.0558
   83SAPS   H4S 7789   0.630   2.927  10.305  2.3305  0.1636 -0.7992
   83SAPS   C25 7790   0.649   2.703  10.318  0.8579 -0.9648  0.4070
   83SAPS   H5R 7791   0.637   2.630  10.400  2.2483  0.3388  1.8492
   83SAPS   C26 7792   0.630   2.664  10.191 -0.4083 -0.3625 -0.9052
   83SAPS   H6R 7793   0.599   2.559  10.179  0.3119 -0.5846 -0.8886
   83SAPS   C27 7794   0.640   2.748  10.069  0.5522  0.5923  0.1476
   83SAPS   H7R 7795   0.674   2.690   9.981  1.4489  0.5423  0.5228
   83SAPS   H7S 7796   0.725   2.818  10.085  2.5701 -0.9723 -2.6910
   83SAPS   C28 7797   0.522   2.840  10.034  0.1323  0.1267 -0.3630
   83SAPS   H8R 7798   0.477   2.892  10.119  5.1086 -0.1521  2.8441
   83SAPS   C29 7799   0.472   2.859   9.911 -0.3428 -0.4242  0.5659
   83SAPS   H9R 7800   0.390   2.928   9.885 -0.8074 -1.0575  0.3466
   83SAPS  C210 7801   0.530   2.788   9.787 -0.9302 -0.3963  0.7393
   83SAPS  H10R 7802   0.595   2.702   9.811  0.9176  0.5162 -0.7953
   83SAPS  H10S 7803   0.596   2.864   9.741 -1.7836  0.6407  1.1718
   83SAPS  C211 7804   0.426   2.758   9.679 -0.2723  0.8732 -0.3058
   83SAPS  H11R 7805   0.345   2.690   9.709  0.1294  0.4475 -0.1922
   83SAPS  C212 7806   0.429   2.796   9.550 -0.3970 -0.6802 -0.2070
   83SAPS  H12R 7807   0.339   2.773   9.490  0.0437 -0.6401 -0.9016
   83SAPS  C213 7808   0.518   2.898   9.481  0.3199  0.0129 -0.3974
   83SAPS  H13R 7809   0.514   2.867   9.374  0.4331 -0.5878 -0.2317
   83SAPS  H13S 7810   0.622   2.880   9.516  1.6064  2.3963 -2.5518
   83SAPS  C214 7811   0.492   3.045   9.499  1.1362  0.2374  0.5004
   83SAPS  H14R 7812   0.501   3.083   9.602  1.4849 -0.2669  0.6605
   83SAPS  C215 7813   0.437   3.125   9.402  0.4470  0.0549  0.1235
   83SAPS  H15R 7814   0.440   3.231   9.431 -0.4823 -0.5439  2.6252
   83SAPS  C216 7815   0.401   3.099   9.261 -0.0894  0.8650  0.5531
   83SAPS  H16R 7816   0.335   3.183   9.232  0.2734  0.5084 -1.4770
   83SAPS  H16S 7817   0.362   3.000   9.231 -0.5477  1.6504 -1.6708
   83SAPS  C217 7818   0.518   3.113   9.164 -0.6969 -0.0998 -0.3397
   83SAPS  H17R 7819   0.601   3.040   9.165  0.0942  0.7703 -1.0953
   83SAPS  H17S 7820   0.565   3.209   9.193 -0.2040 -0.8804  1.6037
   83SAPS  C218 7821   0.479   3.117   9.011 -0.3148  0.6441 -0.3995
   83SAPS  H18R 7822   0.571   3.153   8.960 -0.5217  3.2817  0.8930
   83SAPS  H18S 7823   0.391   3.180   8.987  0.0941  0.8525 -1.3926
   83SAPS  C219 7824   0.454   2.981   8.952 -0.1569 -0.4607 -0.1644
   83SAPS  H19R 7825   0.375   2.944   9.021  0.8806  3.5755  3.6412
   83SAPS  H19S 7826   0.542   2.915   8.967  2.9576  3.7303  1.7031
   83SAPS  C220 7827   0.409   2.983   8.802 -1.1752 -0.2074  0.4495
   83SAPS  H20R 7828   0.304   3.021   8.794 -1.4878 -0.9471  0.9025
   83SAPS  H20S 7829   0.399   2.881   8.759 -0.3109 -0.2339  0.3026
   83SAPS  H20T 7830   0.490   3.038   8.750  1.1501 -3.3279  0.5278
   83SAPS   C33 7831   0.008   2.570  10.105 -0.5875 -0.6281  0.1994
   83SAPS   H3X 7832   0.005   2.679  10.083 -0.9819 -0.6383  0.1849
   83SAPS   H3Y 7833  -0.095   2.553  10.145 -0.3523 -0.3661  0.9289
   83SAPS   C34 7834   0.025   2.497   9.971 -0.2527 -0.0530 -0.5722
   83SAPS   H4X 7835   0.052   2.391   9.989  0.2050 -0.7044 -4.2884
   83SAPS   H4Y 7836   0.110   2.542   9.916  1.0090 -0.9976  0.5311
   83SAPS   C35 7837  -0.109   2.502   9.888  0.3761  0.0063 -0.2835
   83SAPS   H5X 7838  -0.122   2.608   9.860 -1.3809 -0.0938  0.0635
   83SAPS   H5Y 7839  -0.192   2.466   9.953 -1.0305 -0.5888 -2.2779
   83SAPS   C36 7840  -0.107   2.416   9.767 -0.8773  0.5448 -0.5223
   83SAPS   H6X 7841  -0.093   2.311   9.798 -0.1727  0.6897 -0.3280
   83SAPS   H6Y 7842  -0.021   2.446   9.704 -0.2908 -1.6009 -0.7955
   83SAPS   C37 7843  -0.242   2.417   9.685  0.1779 -0.7899  0.1244
   83SAPS   H7X 7844  -0.271   2.519   9.654 -1.3122 -1.3939 -0.5351
   83SAPS   H7Y 7845  -0.317   2.377   9.756  0.1219  1.6821  1.6011
   83SAPS   C38 7846  -0.230   2.330   9.561 -0.0668  0.8391 -0.3750
   83SAPS   H8X 7847  -0.298   2.242   9.560  0.8154  0.1533 -1.0265
   83SAPS   H8Y 7848  -0.126   2.296   9.550 -0.6152 -1.2576  0.4348
   83SAPS   C39 7849  -0.270   2.405   9.431 -0.1747 -0.5252 -0.8064
   83SAPS   H9X 7850  -0.216   2.502   9.431  0.9881 -1.1528 -0.0985
   83SAPS   H9Y 7851  -0.380   2.421   9.427 -0.0513  1.0695  0.6521
   83SAPS  C310 7852  -0.229   2.317   9.318  0.1784  0.2996  0.1245
   83SAPS  H10X 7853  -0.311   2.243   9.305  0.7912 -0.4446  0.4205
   83SAPS  H10Y 7854  -0.135   2.260   9.335 -0.5976 -1.4111 -1.0468
   83SAPS  C311 7855  -0.198   2.388   9.185 -0.5714  0.2085 -0.7111
   83SAPS  H11X 7856  -0.136   2.473   9.219  1.8881 -2.2738  1.5737
   83SAPS  H11Y 7857  -0.293   2.424   9.138 -0.2731  0.4091 -1.1662
   83SAPS  C312 7858  -0.120   2.304   9.079 -0.2484  0.1074  0.0816
   83SAPS  H12X 7859  -0.186   2.220   9.047 -0.2371  0.3502 -0.5960
   83SAPS  H12Y 7860  -0.026   2.255   9.113  0.8653 -0.0058 -2.8623
   83SAPS  C313 7861  -0.104   2.376   8.944 -0.1706  0.3805 -0.1651
   83SAPS  H13X 7862  -0.054   2.475   8.953 -1.1931  1.0556 -1.5542
   83SAPS  H13Y 7863  -0.205   2.395   8.903 -1.2992 -3.0381  0.7074
   83SAPS  C314 7864  -0.015   2.295   8.855 -0.5877 -0.6343  0.3092
   83SAPS  H14X 7865  -0.055   2.191   8.863 -0.0687 -1.3528 -3.7578
   83SAPS  H14Y 7866   0.091   2.295   8.888 -0.5888 -2.0822  0.3842
   83SAPS  C315 7867  -0.026   2.328   8.709  0.4545  0.7964 -1.1104
   83SAPS  H15X 7868  -0.131   2.321   8.675  0.9918  1.3295 -3.0358
   83SAPS  H15Y 7869   0.028   2.255   8.645 -0.2035  0.0574 -0.8263
   83SAPS  C316 7870   0.035   2.465   8.663  0.6187 -0.0482 -0.4340
   83SAPS  H16X 7871   0.093   2.451   8.569  0.6209 -0.1852 -0.4113
   83SAPS  H16Y 7872   0.111   2.484   8.741 -0.4298  0.7132  0.4429
   83SAPS  C317 7873  -0.071   2.569   8.654  0.5714 -0.1371 -0.5276
   83SAPS  H17X 7874  -0.111   2.581   8.757 -0.4849 -0.2409 -0.9167
   83SAPS  H17Y 7875  -0.154   2.522   8.597 -1.1697  1.5541  0.4543
   83SAPS  C318 7876  -0.027   2.700   8.584 -0.0058  0.4688  1.0481
   83SAPS  H18X 7877   0.046   2.756   8.647 -0.4568  0.4736  1.5784
   83SAPS  H18Y 7878  -0.115   2.765   8.562  1.3025  2.2345  0.7884
   83SAPS  H18Z 7879   0.025   2.666   8.492 -1.4532 -3.3308  1.4405
   84SAPS     N 7880   0.240   5.701  11.241 -0.1149  0.1229  0.2913
   84SAPS   HN1 7881   0.166   5.754  11.190 -0.6146  0.2676  1.1481
   84SAPS   HN2 7882   0.209   5.605  11.215 -0.2972  1.0818 -3.8158
   84SAPS   HN3 7883   0.239   5.712  11.344 -1.8868 -1.0783  0.4267
   84SAPS   C12 7884   0.368   5.728  11.181 -0.7834  0.7936  0.7062
   84SAPS  H12A 7885   0.368   5.720  11.074  0.9916  1.3591  0.6361
   84SAPS   C13 7886   0.417   5.868  11.222 -0.1711  0.3334  0.1085
   84SAPS  O13A 7887   0.362   5.929  11.320 -0.1488  0.1229  1.1236
   84SAPS  O13B 7888   0.531   5.907  11.186  0.5203 -0.8587 -0.4093
   84SAPS   C11 7889   0.465   5.619  11.223 -0.3950 -0.9138  0.6540
   84SAPS  H11A 7890   0.506   5.643  11.324 -1.0828 -0.6027  0.8631
   84SAPS  H11B 7891   0.562   5.624  11.168 -0.6316 -0.4838  0.2680
   84SAPS     P 7892   0.456   5.373  11.120  0.0101  0.2937  0.0527
   84SAPS   O13 7893   0.571   5.305  11.180  0.8342  0.1902  0.4176
   84SAPS   O14 7894   0.331   5.307  11.086  0.1078  0.5393 -0.2153
   84SAPS   O12 7895   0.418   5.485  11.224  0.2027 -0.4243 -0.1029
   84SAPS   O11 7896   0.510   5.447  10.994 -0.2124 -0.0307 -0.2407
   84SAPS    C1 7897   0.431   5.512  10.890  0.2605  0.3662  0.1287
   84SAPS    HA 7898   0.323   5.513  10.917  0.8009 -1.6233  2.7229
   84SAPS    HB 7899   0.463   5.618  10.884  0.4381  0.2503 -3.8167
   84SAPS    C2 7900   0.448   5.441  10.757 -0.4341 -0.1649 -0.1026
   84SAPS    HS 7901   0.434   5.332  10.769  0.1648 -0.1902  0.4701
   84SAPS   O21 7902   0.580   5.475  10.714 -0.5592 -0.1317 -0.2990
   84SAPS   C21 7903   0.653   5.369  10.672  0.0558 -0.6477  0.5875
   84SAPS   O22 7904   0.616   5.253  10.664 -0.0909  0.2491  0.3411
   84SAPS   C22 7905   0.788   5.413  10.614 -0.3974 -0.4381  0.5233
   84SAPS   H2R 7906   0.780   5.522  10.597  0.0757 -0.3124  1.0710
   84SAPS   H2S 7907   0.862   5.399  10.696 -0.3541 -0.7047  0.4416
   84SAPS    C3 7908   0.346   5.492  10.657  1.0723  0.2388 -0.2640
   84SAPS    HX 7909   0.362   5.602  10.647 -1.1345  0.4233 -2.5955
   84SAPS    HY 7910   0.245   5.472  10.699  0.4167  4.2270  0.5416
   84SAPS   O31 7911   0.367   5.420  10.528  0.0267 -0.5433  0.3917
   84SAPS   C31 7912   0.318   5.290  10.523 -0.2183 -0.0297  0.0173
   84SAPS   O32 7913   0.238   5.243  10.601  0.0405  0.1190 -0.4576
   84SAPS   C32 7914   0.369   5.212  10.407  0.7415  0.0217  0.0304
   84SAPS   H2X 7915   0.465   5.165  10.436  0.4813 -0.7736 -0.3920
   84SAPS   H2Y 7916   0.374   5.281  10.320 -0.7832  3.2684  2.3062
   84SAPS   C23 7917   0.829   5.343  10.481 -0.0825 -0.4772 -0.2471
   84SAPS   H3R 7918   0.778   5.249  10.451 -0.8141  0.9102 -3.9190
   84SAPS   H3S 7919   0.937   5.324  10.497 -0.5043 -2.3533  0.5879
   84SAPS   C24 7920   0.824   5.434  10.354 -0.7599  0.0016  0.2057
   84SAPS   H4R 7921   0.874   5.377  10.273  0.1939  1.0548  0.0290
   84SAPS   H4S 7922   0.897   5.516  10.365  0.6717 -1.2024 -0.0021
   84SAPS   C25 7923   0.686   5.473  10.308  0.0281  0.2940  0.6383
   84SAPS   H5R 7924   0.636   5.549  10.370  0.0043  0.6062  0.2397
   84SAPS   C26 7925   0.636   5.443  10.184  0.5648 -0.3428  0.1197
   84SAPS   H6R 7926   0.531   5.467  10.162 -0.2175 -1.1892  2.6302
   84SAPS   C27 7927   0.707   5.368  10.080 -1.5912 -0.2014  0.1373
   84SAPS   H7R 7928   0.722   5.263  10.113  0.4256  0.6978  2.4531
   84SAPS   H7S 7929   0.810   5.410  10.068 -1.8222  0.4077  0.2235
   84SAPS   C28 7930   0.639   5.361   9.944 -0.2117  0.6392  0.0150
   84SAPS   H8R 7931   0.597   5.261   9.927 -0.0500  0.9069 -2.3418
   84SAPS   C29 7932   0.638   5.453   9.843 -0.1312 -0.1003 -0.3098
   84SAPS   H9R 7933   0.590   5.416   9.751 -0.0741 -1.7004  0.2712
   84SAPS  C210 7934   0.713   5.587   9.832 -0.2219 -0.5522 -0.2226
   84SAPS  H10R 7935   0.735   5.622   9.935 -0.8539 -0.5233 -0.0930
   84SAPS  H10S 7936   0.653   5.674   9.800 -0.6719  0.3041  2.6201
   84SAPS  C211 7937   0.843   5.578   9.756 -0.6026  0.9760 -0.0923
   84SAPS  H11R 7938   0.932   5.574   9.821 -1.5465  0.2925  1.2349
   84SAPS  C212 7939   0.867   5.575   9.617 -0.6963  0.5956  0.7225
   84SAPS  H12R 7940   0.971   5.576   9.583 -0.3923 -0.6560  1.5194
   84SAPS  C213 7941   0.766   5.586   9.512 -0.3598 -0.3339 -0.1450
   84SAPS  H13R 7942   0.715   5.683   9.526 -0.8388 -0.5326 -0.4961
   84SAPS  H13S 7943   0.687   5.512   9.540  1.2029 -0.9856  3.0613
   84SAPS  C214 7944   0.823   5.558   9.380 -0.3062  0.7410  0.3500
   84SAPS  H14R 7945   0.877   5.462   9.378  1.0921  1.3679  3.0179
   84SAPS  C215 7946   0.813   5.630   9.266  0.1856 -0.2728 -0.8230
   84SAPS  H15R 7947   0.853   5.579   9.177  0.8469 -1.2552  0.0170
   84SAPS  C216 7948   0.731   5.754   9.247  0.1198 -0.4080  0.4478
   84SAPS  H16R 7949   0.792   5.845   9.229 -1.1751  0.1278 -1.5029
   84SAPS  H16S 7950   0.672   5.783   9.336  1.8642  0.7991  1.2619
   84SAPS  C217 7951   0.627   5.754   9.128  0.3292  0.3792  0.0984
   84SAPS  H17R 7952   0.581   5.855   9.128  0.7313  0.5831 -1.7736
   84SAPS  H17S 7953   0.555   5.673   9.153  2.0442 -1.2711 -0.0676
   84SAPS  C218 7954   0.701   5.728   9.000  0.2026  0.0350 -0.3984
   84SAPS  H18R 7955   0.739   5.623   9.002  2.8906  0.9262  1.4371
   84SAPS  H18S 7956   0.794   5.788   9.003  0.8029 -0.9060  1.1264
   84SAPS  C219 7957   0.616   5.753   8.870  0.0963 -0.5026 -0.9726
   84SAPS  H19R 7958   0.519   5.699   8.872 -0.1647 -0.2381 -3.4780
   84SAPS  H19S 7959   0.676   5.711   8.786  1.6832  2.4050 -1.4291
   84SAPS  C220 7960   0.591   5.903   8.856  1.2580  0.4798  0.2186
   84SAPS  H20R 7961   0.518   5.920   8.774  1.0287 -1.3515 -0.0218
   84SAPS  H20S 7962   0.683   5.963   8.844  0.6602  2.8465  5.0126
   84SAPS  H20T 7963   0.540   5.943   8.946 -1.6466 -1.6595 -0.3365
   84SAPS   C33 7964   0.287   5.085  10.366 -0.3488  0.3077 -0.0141
   84SAPS   H3X 7965   0.180   5.101  10.391 -1.1500 -0.6252 -2.5337
   84SAPS   H3Y 7966   0.322   4.997  10.423 -0.0515 -0.4122 -1.2698
   84SAPS   C34 7967   0.305   5.038  10.217  0.1161 -0.2663  0.0617
   84SAPS   H4X 7968   0.267   5.121  10.153  0.1533 -1.1558 -1.1426
   84SAPS   H4Y 7969   0.238   4.952  10.197  0.6136 -1.2658  2.3493
   84SAPS   C35 7970   0.453   5.008  10.162 -0.2772 -0.1725 -0.3809
   84SAPS   H5X 7971   0.490   4.944  10.245  0.1321 -1.4347 -1.4940
   84SAPS   H5Y 7972   0.517   5.099  10.156 -0.3256 -0.1838 -1.2312
   84SAPS   C36 7973   0.446   4.937  10.031 -0.8705 -0.1956  0.9123
   84SAPS   H6X 7974   0.364   4.979   9.968  0.8988  1.0158 -0.6956
   84SAPS   H6Y 7975   0.424   4.831  10.055  0.4270 -0.4204  1.1264
   84SAPS   C37 7976   0.576   4.940   9.952  0.8772 -0.1311  0.0488
   84SAPS   H7X 7977   0.668   4.905  10.002  0.8182 -0.0815  0.1928
   84SAPS   H7Y 7978   0.595   5.044   9.917  1.2190  0.2424  1.2944
   84SAPS   C38 7979   0.568   4.842   9.835 -0.0775  0.5688 -0.5270
   84SAPS   H8X 7980   0.484   4.870   9.767 -1.4178  1.9071  1.5445
   84SAPS   H8Y 7981   0.543   4.739   9.870  0.3768 -0.0714 -2.0376
   84SAPS   C39 7982   0.691   4.827   9.737 -0.4952 -0.1587  0.0851
   84SAPS   H9X 7983   0.776   4.785   9.794 -0.0962 -0.5132 -0.7584
   84SAPS   H9Y 7984   0.718   4.930   9.704 -1.9798  0.8419  1.8039
   84SAPS  C310 7985   0.659   4.748   9.612  0.6307  0.3040  1.2815
   84SAPS  H10X 7986   0.599   4.810   9.542  0.2299 -3.3000 -1.9207
   84SAPS  H10Y 7987   0.596   4.657   9.615 -0.8401  1.0769 -1.8147
   84SAPS  C311 7988   0.797   4.714   9.541  0.4851  0.4853  0.9135
   84SAPS  H11X 7989   0.840   4.629   9.598 -0.2876 -2.2709 -2.2868
   84SAPS  H11Y 7990   0.869   4.797   9.558  1.1847  0.4977 -1.7318
   84SAPS  C312 7991   0.783   4.680   9.396  0.0441  0.4176  0.4745
   84SAPS  H12X 7992   0.730   4.757   9.337 -0.3090  1.8155  2.4953
   84SAPS  H12Y 7993   0.730   4.583   9.393  1.8459 -0.6357  1.1308
   84SAPS  C313 7994   0.915   4.653   9.315  0.1812 -0.5501  0.0525
   84SAPS  H13X 7995   0.984   4.582   9.367  2.4179  2.9529  2.2896
   84SAPS  H13Y 7996   0.962   4.753   9.307 -1.4718  0.3292  0.7628
   84SAPS  C314 7997   0.880   4.599   9.174 -0.3034  0.3199 -0.2987
   84SAPS  H14X 7998   0.795   4.656   9.131 -0.4677  0.6642  0.4705
   84SAPS  H14Y 7999   0.848   4.493   9.179  1.9039 -0.3573  0.6744
   84SAPS  C315 8000   0.998   4.602   9.077  0.1361  0.1533 -0.1950
   84SAPS  H15X 8001   1.085   4.544   9.112 -1.1049 -1.7832 -0.2153
   84SAPS  H15Y 8002   1.025   4.709   9.062  0.0899  0.3391  0.9953
   84SAPS  C316 8003   0.963   4.543   8.936  0.6750 -0.3407 -0.2259
   84SAPS  H16X 8004   0.893   4.608   8.879  0.5543 -1.9653 -2.0353
   84SAPS  H16Y 8005   0.902   4.453   8.957 -1.1691  1.3581  2.4155
   84SAPS  C317 8006   1.084   4.529   8.847 -0.6420 -0.5076 -0.4042
   84SAPS  H17X 8007   1.035   4.497   8.752 -1.4714  2.8230 -1.2325
   84SAPS  H17Y 8008   1.163   4.458   8.880  2.3245  2.5742 -0.3102
   84SAPS  C318 8009   1.158   4.661   8.822  1.2397 -0.5368  0.8109
   84SAPS  H18X 8010   1.195   4.702   8.918 -0.7395  1.9213  0.6286
   84SAPS  H18Y 8011   1.093   4.739   8.777  4.1144  1.1839 -0.6154
   84SAPS  H18Z 8012   1.245   4.645   8.755  0.0775  0.4894 -1.0610
   85SAPS     N 8013   5.611   4.870  11.040  0.4186  0.6555  0.2079
   85SAPS   HN1 8014   5.664   4.820  10.966  0.2296 -0.9947  1.1492
   85SAPS   HN2 8015   5.654   4.842  11.131  2.7742 -0.3629 -1.1276
   85SAPS   HN3 8016   5.510   4.845  11.031  0.4882  0.2325  0.5751
   85SAPS   C12 8017   5.631   5.021  11.014 -0.7127 -0.0961  0.1544
   85SAPS  H12A 8018   5.559   5.084  11.064 -2.3477 -3.6764  2.7295
   85SAPS   C13 8019   5.769   5.066  11.068 -0.5445 -0.0486 -0.0983
   85SAPS  O13A 8020   5.833   4.985  11.143 -0.3247  0.5015 -0.4044
   85SAPS  O13B 8021   5.820   5.180  11.048 -0.2458  0.1269 -0.3801
   85SAPS   C11 8022   5.632   5.039  10.859  0.3256 -0.2792 -0.1534
   85SAPS  H11A 8023   5.707   4.970  10.815  2.5796  1.1287  1.3151
   85SAPS  H11B 8024   5.658   5.142  10.827 -1.4463  0.4287  0.5484
   85SAPS     P 8025   5.395   5.121  10.761  0.1878  0.1403 -0.6168
   85SAPS   O13 8026   5.258   5.059  10.769 -0.0577 -0.2434  0.3414
   85SAPS   O14 8027   5.425   5.252  10.822 -0.1279 -0.5018 -0.2598
   85SAPS   O12 8028   5.499   5.014  10.809  0.3382  0.2940 -0.7073
   85SAPS   O11 8029   5.422   5.130  10.604  0.1899  0.2701 -0.3315
   85SAPS    C1 8030   5.469   5.017  10.536  0.0896  0.3682 -0.0947
   85SAPS    HA 8031   5.572   5.002  10.574  0.0654  1.3254  0.3670
   85SAPS    HB 8032   5.410   4.925  10.555 -1.1734  0.9848 -0.8972
   85SAPS    C2 8033   5.486   5.038  10.387 -0.2814 -0.0816  0.2591
   85SAPS    HS 8034   5.547   5.130  10.374 -1.5263  1.3170  3.3808
   85SAPS   O21 8035   5.360   5.046  10.314  0.2086  0.2776 -0.1960
   85SAPS   C21 8036   5.366   5.138  10.209 -0.0253  0.2858 -0.2669
   85SAPS   O22 8037   5.458   5.213  10.193  0.3605 -0.1099  0.0021
   85SAPS   C22 8038   5.251   5.121  10.114 -0.3987  0.1760 -0.1631
   85SAPS   H2R 8039   5.173   5.058  10.162  0.0683 -0.0039  0.3728
   85SAPS   H2S 8040   5.204   5.220  10.096 -0.0711  0.0085 -2.1154
   85SAPS    C3 8041   5.560   4.924  10.321  0.1498  0.3785  0.0582
   85SAPS    HX 8042   5.509   4.826  10.330  1.4023 -0.1716  1.6641
   85SAPS    HY 8043   5.659   4.918  10.372  0.5804 -1.0164 -0.8669
   85SAPS   O31 8044   5.575   4.938  10.176  0.2651 -0.0456 -0.1529
   85SAPS   C31 8045   5.690   4.975  10.122 -0.7776 -0.2282 -0.1906
   85SAPS   O32 8046   5.800   4.982  10.174 -0.6108 -0.0288  0.8094
   85SAPS   C32 8047   5.665   5.017   9.977 -0.8815  0.2686 -0.7164
   85SAPS   H2X 8048   5.602   5.108   9.981 -0.2777  0.6806 -0.3266
   85SAPS   H2Y 8049   5.603   4.937   9.932  0.6387 -1.7156  0.5203
   85SAPS   C23 8050   5.285   5.051   9.985  0.7785  0.6390 -0.7475
   85SAPS   H3R 8051   5.377   5.101   9.948  1.5333 -1.1567 -1.3740
   85SAPS   H3S 8052   5.201   5.057   9.913  0.1253 -1.5405 -0.2150
   85SAPS   C24 8053   5.302   4.895  10.001 -0.0470 -0.8348  0.2036
   85SAPS   H4R 8054   5.387   4.882  10.072  1.2870  1.2419 -0.9213
   85SAPS   H4S 8055   5.345   4.856   9.906 -1.1775 -2.6022  0.3725
   85SAPS   C25 8056   5.174   4.823  10.043  0.4312  0.0285 -0.7371
   85SAPS   H5R 8057   5.144   4.831  10.148 -0.9458 -1.0525 -1.0078
   85SAPS   C26 8058   5.092   4.749   9.971 -0.5445  0.4231  0.3594
   85SAPS   H6R 8059   5.006   4.694  10.013  1.2813 -1.3593  1.9584
   85SAPS   C27 8060   5.109   4.724   9.817 -0.2432  0.1955  0.1894
   85SAPS   H7R 8061   5.173   4.807   9.781  0.5621 -0.3515  0.3382
   85SAPS   H7S 8062   5.010   4.724   9.767 -0.1566 -1.6139 -0.0600
   85SAPS   C28 8063   5.178   4.592   9.796 -0.4588 -0.3725  0.1374
   85SAPS   H8R 8064   5.190   4.526   9.884 -2.4360 -2.1358 -0.8272
   85SAPS   C29 8065   5.195   4.544   9.672 -0.1453 -0.4440 -0.2825
   85SAPS   H9R 8066   5.254   4.453   9.657  0.2380 -0.4041  0.8214
   85SAPS  C210 8067   5.148   4.614   9.546 -0.4371  0.0247  0.0806
   85SAPS  H10R 8068   5.178   4.721   9.545 -2.6678  0.6930  0.3163
   85SAPS  H10S 8069   5.038   4.628   9.553 -0.5592  0.6281 -2.2635
   85SAPS  C211 8070   5.188   4.554   9.414 -0.2787 -0.5215  0.8264
   85SAPS  H11R 8071   5.176   4.445   9.412  1.4552 -0.7338 -1.0382
   85SAPS  C212 8072   5.242   4.602   9.300 -0.1343 -0.1910  0.1932
   85SAPS  H12R 8073   5.265   4.535   9.216  1.9547  1.1450 -0.3822
   85SAPS  C213 8074   5.281   4.740   9.266 -0.0478 -0.1022 -0.0119
   85SAPS  H13R 8075   5.391   4.752   9.270 -0.1581  0.6577  1.9949
   85SAPS  H13S 8076   5.237   4.806   9.344 -4.6223  0.0037 -2.3415
   85SAPS  C214 8077   5.216   4.787   9.144  0.3223  0.0930 -0.6486
   85SAPS  H14R 8078   5.106   4.779   9.141  0.3061  0.2893 -0.5637
   85SAPS  C215 8079   5.278   4.836   9.036  0.8654 -0.5920 -0.5262
   85SAPS  H15R 8080   5.218   4.873   8.951  0.3318 -2.5530 -1.0678
   85SAPS  C216 8081   5.426   4.854   9.030 -0.1695 -0.0131  0.4060
   85SAPS  H16R 8082   5.471   4.872   9.130 -1.6981  2.0050  0.7929
   85SAPS  H16S 8083   5.446   4.948   8.974 -3.1581  0.5794  0.1791
   85SAPS  C217 8084   5.494   4.731   8.965 -0.2747  0.3017 -0.5605
   85SAPS  H17R 8085   5.452   4.634   8.999  1.6815 -0.0109  1.2107
   85SAPS  H17S 8086   5.599   4.718   9.001 -1.0100 -0.6564  1.3989
   85SAPS  C218 8087   5.499   4.733   8.807 -0.6255  0.0593 -0.8490
   85SAPS  H18R 8088   5.570   4.809   8.770 -0.6050  0.5131  0.0978
   85SAPS  H18S 8089   5.401   4.765   8.766  0.0331  2.1135 -0.9173
   85SAPS  C219 8090   5.540   4.592   8.756 -0.3509 -0.0903  0.9965
   85SAPS  H19R 8091   5.459   4.517   8.747 -0.7619  0.4851 -0.5234
   85SAPS  H19S 8092   5.604   4.551   8.837 -0.6921  0.0681  1.3476
   85SAPS  C220 8093   5.619   4.600   8.627 -0.1305  0.0008  0.0836
   85SAPS  H20R 8094   5.557   4.599   8.535 -0.5128  2.8326  0.2175
   85SAPS  H20S 8095   5.675   4.504   8.622 -0.7891 -0.4860  1.4356
   85SAPS  H20T 8096   5.690   4.684   8.611 -0.1189 -0.3437 -1.9371
   85SAPS   C33 8097   5.798   5.042   9.908  0.0610 -0.0570 -0.0574
   85SAPS   H3X 8098   5.865   5.117   9.954 -0.5052 -0.1563  0.9637
   85SAPS   H3Y 8099   5.772   5.081   9.807  0.2821 -0.8491 -0.4295
   85SAPS   C34 8100   5.881   4.914   9.891  0.4134  0.2229 -0.3536
   85SAPS   H4X 8101   5.828   4.829   9.843 -0.5221  1.3034 -1.2936
   85SAPS   H4Y 8102   5.901   4.878   9.994  1.3290  0.2130 -0.5237
   85SAPS   C35 8103   6.014   4.928   9.808  0.0758  0.5065  0.5508
   85SAPS   H5X 8104   6.054   4.826   9.793 -2.5740 -0.6374  0.7342
   85SAPS   H5Y 8105   6.088   4.992   9.861  2.2954 -1.5963  0.1649
   85SAPS   C36 8106   6.003   4.982   9.666 -0.3433 -0.1824 -0.3650
   85SAPS   H6X 8107   5.993   5.091   9.683  0.6957 -0.2244  0.6376
   85SAPS   H6Y 8108   5.911   4.940   9.619 -0.6960  0.6163 -0.3929
   85SAPS   C37 8109   6.135   4.950   9.584 -1.2723  0.0196 -0.0958
   85SAPS   H7X 8110   6.220   4.986   9.646 -2.0184  0.9254  0.4289
   85SAPS   H7Y 8111   6.129   5.023   9.501  0.8795 -0.7508 -1.0113
   85SAPS   C38 8112   6.154   4.811   9.521 -0.2256  0.5226 -0.1636
   85SAPS   H8X 8113   6.077   4.779   9.448 -0.7625 -1.5097  1.2230
   85SAPS   H8Y 8114   6.141   4.746   9.610  2.0833 -0.0896 -0.2081
   85SAPS   C39 8115   6.295   4.781   9.465  0.1256  0.1734 -0.0967
   85SAPS   H9X 8116   6.310   4.683   9.415  1.4321 -0.9752  2.3638
   85SAPS   H9Y 8117   6.376   4.785   9.541 -0.0204 -1.9264  0.2271
   85SAPS  C310 8118   6.344   4.902   9.377 -0.8831 -0.1121  0.1761
   85SAPS  H10X 8119   6.453   4.894   9.356 -0.7457 -1.5084  1.2229
   85SAPS  H10Y 8120   6.337   5.003   9.423 -0.1235 -0.4023  0.9741
   85SAPS  C311 8121   6.275   4.915   9.242 -0.2241 -0.9563 -0.0603
   85SAPS  H11X 8122   6.167   4.900   9.263  0.1294 -2.3323  0.9071
   85SAPS  H11Y 8123   6.302   4.824   9.184  0.2820  0.9427 -3.0612
   85SAPS  C312 8124   6.298   5.039   9.152 -0.3121 -0.2255  0.1936
   85SAPS  H12X 8125   6.269   5.129   9.211 -0.4398  1.0992 -1.7773
   85SAPS  H12Y 8126   6.237   5.029   9.060  1.3079 -1.3529 -0.8101
   85SAPS  C313 8127   6.446   5.050   9.114 -0.7269  0.3071  0.5175
   85SAPS  H13X 8128   6.480   4.958   9.062  0.5628 -1.2861  3.8900
   85SAPS  H13Y 8129   6.507   5.050   9.207 -2.0007 -1.6665  1.4321
   85SAPS  C314 8130   6.488   5.171   9.037  0.0946  0.1196  0.1873
   85SAPS  H14X 8131   6.584   5.207   9.080 -0.5231 -0.3396  2.0365
   85SAPS  H14Y 8132   6.407   5.246   9.047 -2.0058 -2.0069  0.1299
   85SAPS  C315 8133   6.511   5.152   8.886 -0.1443  0.2918 -0.6338
   85SAPS  H15X 8134   6.581   5.068   8.865  0.6550  0.9810 -0.8035
   85SAPS  H15Y 8135   6.558   5.240   8.835  0.2212 -1.0363 -2.7187
   85SAPS  C316 8136   6.378   5.129   8.819  1.0983  0.4698 -0.7038
   85SAPS  H16X 8137   6.287   5.176   8.861  0.4148  0.3325 -1.9593
   85SAPS  H16Y 8138   6.356   5.020   8.830  0.9387  0.6285  0.6824
   85SAPS  C317 8139   6.388   5.151   8.667  0.3825 -0.0997 -0.4360
   85SAPS  H17X 8140   6.327   5.067   8.627 -0.6662  0.3307  0.2175
   85SAPS  H17Y 8141   6.493   5.130   8.637 -0.5215 -1.7871 -2.6514
   85SAPS  C318 8142   6.347   5.287   8.615 -0.1194 -0.0281  0.0200
   85SAPS  H18X 8143   6.407   5.373   8.652 -0.1947  0.6515 -1.3865
   85SAPS  H18Y 8144   6.242   5.294   8.649  0.1610 -1.9473  1.4375
   85SAPS  H18Z 8145   6.356   5.283   8.504  0.6664 -0.9987  0.0999
   86SAPS     N 8146   2.911   5.277  10.596 -0.4553  0.0275  0.1653
   86SAPS   HN1 8147   2.809   5.261  10.606 -0.3739 -0.4898  0.2152
   86SAPS   HN2 8148   2.933   5.332  10.510 -1.0937  0.0118 -0.0176
   86SAPS   HN3 8149   2.956   5.184  10.582 -0.7652 -0.2272  0.7958
   86SAPS   C12 8150   2.955   5.350  10.721 -0.0243 -0.2739  0.3330
   86SAPS  H12A 8151   2.913   5.287  10.799  0.3508 -1.5432 -0.4671
   86SAPS   C13 8152   3.104   5.366  10.736 -0.3431 -0.1305 -0.1106
   86SAPS  O13A 8153   3.178   5.342  10.641  0.1395 -0.0734  0.3172
   86SAPS  O13B 8154   3.155   5.397  10.847  0.2903  0.0395 -0.6993
   86SAPS   C11 8155   2.867   5.481  10.735 -0.5235  0.3291 -0.2827
   86SAPS  H11A 8156   2.907   5.551  10.658  2.3551  0.2914  1.0575
   86SAPS  H11B 8157   2.878   5.526  10.837  1.2896 -1.7933  0.5353
   86SAPS     P 8158   2.618   5.576  10.725  0.1394  0.2790  0.0144
   86SAPS   O13 8159   2.483   5.528  10.687  0.5073  0.2340  0.1149
   86SAPS   O14 8160   2.626   5.653  10.852 -0.3251  0.2565 -0.2905
   86SAPS   O12 8161   2.724   5.466  10.706  0.3129 -0.2836 -0.2656
   86SAPS   O11 8162   2.680   5.669  10.613 -0.4099 -0.2062 -0.0789
   86SAPS    C1 8163   2.642   5.663  10.477  0.5298 -0.0899  0.5679
   86SAPS    HA 8164   2.559   5.590  10.469  3.3947 -3.4904 -0.5862
   86SAPS    HB 8165   2.613   5.763  10.437  0.5725 -1.5441 -3.5705
   86SAPS    C2 8166   2.752   5.598  10.384  0.3854  0.2049 -0.4873
   86SAPS    HS 8167   2.763   5.501  10.436  2.0199  1.1988  1.1659
   86SAPS   O21 8168   2.872   5.672  10.409 -0.3222  0.4391  0.1780
   86SAPS   C21 8169   2.982   5.600  10.411  0.1706  0.6637 -0.4249
   86SAPS   O22 8170   2.994   5.479  10.421 -0.1054  0.1652 -0.1387
   86SAPS   C22 8171   3.097   5.702  10.424 -0.1356 -0.3311 -0.2612
   86SAPS   H2R 8172   3.053   5.804  10.424  0.3357 -0.1160 -1.2295
   86SAPS   H2S 8173   3.148   5.680  10.520  0.4498  0.7880 -0.2964
   86SAPS    C3 8174   2.713   5.583  10.235 -0.3361 -0.6721 -0.5189
   86SAPS    HX 8175   2.801   5.524  10.201  1.4210  0.6876  1.3922
   86SAPS    HY 8176   2.716   5.683  10.187  1.4689 -0.3522  0.1736
   86SAPS   O31 8177   2.603   5.498  10.214  0.2786  0.1902 -0.7636
   86SAPS   C31 8178   2.490   5.556  10.199  1.0747 -0.3460 -0.7320
   86SAPS   O32 8179   2.465   5.677  10.204 -0.7748 -0.1419 -0.3249
   86SAPS   C32 8180   2.391   5.446  10.169 -0.1653 -0.1229  0.3114
   86SAPS   H2X 8181   2.397   5.375  10.254  0.9925 -1.4355 -0.7920
   86SAPS   H2Y 8182   2.421   5.380  10.084 -0.5310 -2.3133  1.8093
   86SAPS   C23 8183   3.195   5.696  10.310  0.4384 -0.2933 -0.3213
   86SAPS   H3R 8184   3.197   5.590  10.276 -3.5596 -0.4740 -0.4659
   86SAPS   H3S 8185   3.298   5.725  10.343  1.5740 -1.4448 -2.5857
   86SAPS   C24 8186   3.158   5.773  10.185  1.0546  0.5001  0.3072
   86SAPS   H4R 8187   3.229   5.747  10.103  0.5928  2.8311 -0.9016
   86SAPS   H4S 8188   3.168   5.882  10.202  0.8603  0.5978 -0.1780
   86SAPS   C25 8189   3.015   5.765  10.132 -0.5860 -0.1710  0.2968
   86SAPS   H5R 8190   2.942   5.835  10.175  0.4865  0.1222  1.7441
   86SAPS   C26 8191   2.978   5.694  10.021 -0.2077  0.4654 -0.7960
   86SAPS   H6R 8192   2.873   5.697   9.989 -0.9193 -0.1136  1.2826
   86SAPS   C27 8193   3.058   5.597   9.934  0.5289 -0.2036 -0.6607
   86SAPS   H7R 8194   3.163   5.633   9.933  0.5824 -0.2451  1.2071
   86SAPS   H7S 8195   3.022   5.608   9.829  1.2360 -1.0508 -1.0075
   86SAPS   C28 8196   3.037   5.458   9.984 -0.6342  0.2349  0.0774
   86SAPS   H8R 8197   3.117   5.420  10.049 -0.4564 -1.4962 -1.0921
   86SAPS   C29 8198   2.944   5.371   9.949 -0.2533  0.5370 -0.1580
   86SAPS   H9R 8199   2.953   5.280  10.010  3.4081  1.7073  1.2998
   86SAPS  C210 8200   2.838   5.385   9.838 -0.0495 -0.1110 -0.4144
   86SAPS  H10R 8201   2.787   5.286   9.829 -1.5041  0.5796 -0.1628
   86SAPS  H10S 8202   2.880   5.406   9.738  0.3887  1.8685  0.1584
   86SAPS  C211 8203   2.730   5.484   9.871 -0.5201 -0.3918 -0.1166
   86SAPS  H11R 8204   2.711   5.512   9.975 -0.9546 -2.9406  0.5581
   86SAPS  C212 8205   2.634   5.528   9.786 -0.4635 -0.2863  0.1332
   86SAPS  H12R 8206   2.554   5.594   9.823 -0.1680 -0.2145  0.6454
   86SAPS  C213 8207   2.645   5.511   9.635 -0.2435  0.0897  0.2033
   86SAPS  H13R 8208   2.661   5.403   9.616 -0.2777 -0.3543  2.4500
   86SAPS  H13S 8209   2.732   5.568   9.597 -0.5108  0.8817  0.7386
   86SAPS  C214 8210   2.535   5.575   9.551 -0.0322  0.5198 -0.2206
   86SAPS  H14R 8211   2.485   5.500   9.488 -1.1425 -0.3294  1.5891
   86SAPS  C215 8212   2.498   5.702   9.552 -0.3409 -0.0595  0.6305
   86SAPS  H15R 8213   2.426   5.734   9.475 -1.1568 -1.6563  0.6845
   86SAPS  C216 8214   2.570   5.811   9.631  0.3273 -0.3906 -0.7062
   86SAPS  H16R 8215   2.647   5.866   9.571 -1.0418  0.8316 -1.4079
   86SAPS  H16S 8216   2.627   5.779   9.721  1.2364 -1.2410 -1.5547
   86SAPS  C217 8217   2.476   5.924   9.670  0.6391  0.2023 -0.1622
   86SAPS  H17R 8218   2.387   5.873   9.713  0.7820  1.0423  1.1798
   86SAPS  H17S 8219   2.454   5.984   9.579 -2.2036  0.3380  0.5214
   86SAPS  C218 8220   2.526   6.017   9.775 -0.4379 -0.5289  0.8085
   86SAPS  H18R 8221   2.452   6.101   9.773 -1.0305 -1.0553 -0.9471
   86SAPS  H18S 8222   2.628   6.057   9.758 -0.9152  0.1522 -0.5976
   86SAPS  C219 8223   2.527   5.952   9.912  0.2117 -0.5913  0.5195
   86SAPS  H19R 8224   2.587   5.859   9.904  0.5754 -0.2397 -1.0307
   86SAPS  H19S 8225   2.423   5.921   9.936 -0.0130  0.4904  0.9781
   86SAPS  C220 8226   2.580   6.034  10.029 -0.4504  0.6993 -0.3166
   86SAPS  H20R 8227   2.688   6.058  10.017  0.2065 -0.7868  2.0541
   86SAPS  H20S 8228   2.558   5.984  10.126  0.8111  0.9525  0.1168
   86SAPS  H20T 8229   2.533   6.135  10.033 -1.4089  0.3227 -1.3228
   86SAPS   C33 8230   2.249   5.485  10.137  0.3397  0.4364  0.6232
   86SAPS   H3X 8231   2.198   5.567  10.191 -0.2090 -0.1954  1.0686
   86SAPS   H3Y 8232   2.192   5.392  10.160  1.1197 -0.4830 -0.9781
   86SAPS   C34 8233   2.241   5.517   9.988 -0.2584 -0.1677 -0.2518
   86SAPS   H4X 8234   2.251   5.421   9.934  2.1688  1.1122 -2.2975
   86SAPS   H4Y 8235   2.316   5.595   9.962 -3.0490  3.2223  0.9515
   86SAPS   C35 8236   2.106   5.580   9.956 -0.6525  0.0755  0.3968
   86SAPS   H5X 8237   2.080   5.655  10.034 -0.6599  0.4959 -0.0058
   86SAPS   H5Y 8238   2.035   5.496   9.960 -1.5067  0.6627 -1.3920
   86SAPS   C36 8239   2.100   5.645   9.820 -0.6938 -0.3519 -0.6810
   86SAPS   H6X 8240   2.172   5.727   9.840 -0.3208 -1.2447  2.1388
   86SAPS   H6Y 8241   2.000   5.694   9.812 -1.0135 -0.8924 -0.1421
   86SAPS   C37 8242   2.131   5.542   9.713 -0.3445 -0.3721  0.0844
   86SAPS   H7X 8243   2.075   5.449   9.733  0.6256 -1.1321 -0.6101
   86SAPS   H7Y 8244   2.234   5.498   9.711 -0.6389 -1.1276  0.8814
   86SAPS   C38 8245   2.105   5.592   9.567 -0.4309 -0.1487  0.5370
   86SAPS   H8X 8246   2.174   5.677   9.548 -0.2127 -0.5123 -0.3146
   86SAPS   H8Y 8247   1.996   5.613   9.557  0.0680  2.3562 -0.2303
   86SAPS   C39 8248   2.133   5.480   9.462 -0.6667 -0.1893 -0.2078
   86SAPS   H9X 8249   2.069   5.391   9.479 -0.6139 -0.6563 -2.2568
   86SAPS   H9Y 8250   2.239   5.445   9.469 -0.3351  1.0291  1.7133
   86SAPS  C310 8251   2.117   5.538   9.323 -0.2832  0.0323 -0.2260
   86SAPS  H10X 8252   2.171   5.631   9.296 -1.8880  0.8110 -0.8906
   86SAPS  H10Y 8253   2.009   5.563   9.331  0.1979  1.6183  3.0145
   86SAPS  C311 8254   2.168   5.435   9.210  0.1571 -0.5055  0.1249
   86SAPS  H11X 8255   2.109   5.344   9.232 -0.6016  0.5465  2.7995
   86SAPS  H11Y 8256   2.271   5.398   9.227  0.4329  0.5299  0.8322
   86SAPS  C312 8257   2.139   5.478   9.065  0.0538 -0.3004 -0.0987
   86SAPS  H12X 8258   2.205   5.565   9.044  1.5476 -1.3942 -0.0798
   86SAPS  H12Y 8259   2.030   5.501   9.064  0.0971 -0.0109 -2.2832
   86SAPS  C313 8260   2.163   5.365   8.962 -0.0218  0.5293 -0.0086
   86SAPS  H13X 8261   2.100   5.277   8.988 -1.0194  1.7616  2.0310
   86SAPS  H13Y 8262   2.266   5.334   8.986 -0.5696 -1.6942 -0.2951
   86SAPS  C314 8263   2.147   5.405   8.815  0.1772 -0.5609  0.3667
   86SAPS  H14X 8264   2.215   5.493   8.806 -2.0453  1.1830 -0.4306
   86SAPS  H14Y 8265   2.046   5.448   8.800  0.4005 -0.1852 -0.0732
   86SAPS  C315 8266   2.178   5.292   8.718  0.0833  0.2525  1.2226
   86SAPS  H15X 8267   2.146   5.335   8.620  1.3401 -1.7026 -0.1236
   86SAPS  H15Y 8268   2.114   5.201   8.726 -1.5324  0.9112 -2.3104
   86SAPS  C316 8269   2.330   5.255   8.706  0.3006 -0.5582  0.3385
   86SAPS  H16X 8270   2.353   5.192   8.617  3.3339 -1.3486  1.5439
   86SAPS  H16Y 8271   2.364   5.195   8.793  0.3395  0.8511  1.3279
   86SAPS  C317 8272   2.419   5.379   8.707  0.4172  0.4674 -0.6329
   86SAPS  H17X 8273   2.415   5.410   8.813  2.6088 -1.8225  0.2014
   86SAPS  H17Y 8274   2.383   5.468   8.650  1.7390  1.4313  0.0015
   86SAPS  C318 8275   2.566   5.361   8.660 -0.6215 -0.1545 -0.6530
   86SAPS  H18X 8276   2.582   5.379   8.552 -1.6434 -1.5719 -1.0710
   86SAPS  H18Y 8277   2.603   5.261   8.692 -1.4624  0.4122  2.4479
   86SAPS  H18Z 8278   2.638   5.427   8.712 -2.1019  1.5916 -0.7264
   87SAPS     N 8279   1.295   0.486  10.632 -0.0948  0.0693 -0.0443
   87SAPS   HN1 8280   1.371   0.432  10.585  0.2102  3.2329 -3.6794
   87SAPS   HN2 8281   1.207   0.488  10.576  0.6411  2.2309 -1.2060
   87SAPS   HN3 8282   1.327   0.585  10.629  1.9610 -0.5970 -1.5358
   87SAPS   C12 8283   1.260   0.435  10.764  0.5626  0.6337  0.5056
   87SAPS  H12A 8284   1.201   0.345  10.756  3.7067 -1.5062 -0.8404
   87SAPS   C13 8285   1.379   0.394  10.858 -0.3032  0.2606  0.0542
   87SAPS  O13A 8286   1.499   0.436  10.840 -0.0739  0.3396  0.6245
   87SAPS  O13B 8287   1.347   0.360  10.972 -0.0261 -0.7712 -0.3626
   87SAPS   C11 8288   1.187   0.558  10.834  0.0987  0.3435  0.3416
   87SAPS  H11A 8289   1.257   0.643  10.849  1.0678 -0.8299  3.0777
   87SAPS  H11B 8290   1.148   0.512  10.927  1.3882 -0.2550  0.6176
   87SAPS     P 8291   0.952   0.662  10.806  0.1426 -0.1623  0.0858
   87SAPS   O13 8292   0.860   0.544  10.817 -0.4630 -0.0262  0.0171
   87SAPS   O14 8293   0.978   0.749  10.927 -0.0279  0.3062 -0.2871
   87SAPS   O12 8294   1.087   0.609  10.745 -0.0564  0.3036 -0.0728
   87SAPS   O11 8295   0.891   0.764  10.695  0.2596  0.4341  0.2397
   87SAPS    C1 8296   0.949   0.757  10.567 -0.0241  0.1939  0.3076
   87SAPS    HA 8297   0.940   0.856  10.518 -0.5421 -1.4186 -3.1785
   87SAPS    HB 8298   1.057   0.731  10.563 -0.3590 -1.1523 -0.9090
   87SAPS    C2 8299   0.878   0.645  10.480  0.2137 -0.1393 -0.4385
   87SAPS    HS 8300   0.885   0.553  10.543  3.5042 -0.5750 -1.2903
   87SAPS   O21 8301   0.938   0.626  10.352 -0.6622 -0.3914 -0.1345
   87SAPS   C21 8302   1.060   0.563  10.349  0.4763  0.0414 -0.4561
   87SAPS   O22 8303   1.109   0.497  10.440 -0.2151 -0.5252  0.6691
   87SAPS   C22 8304   1.119   0.582  10.209 -0.8543  0.3335 -0.2010
   87SAPS   H2R 8305   1.131   0.691  10.190 -0.5734 -0.1565 -3.4208
   87SAPS   H2S 8306   1.223   0.544  10.211 -0.3985  0.9874 -4.1256
   87SAPS    C3 8307   0.726   0.678  10.468 -0.2118  0.7280 -0.4549
   87SAPS    HX 8308   0.685   0.704  10.568 -0.5723 -0.5181 -0.2710
   87SAPS    HY 8309   0.662   0.597  10.428 -0.0142  0.5851 -0.4766
   87SAPS   O31 8310   0.704   0.794  10.391  0.1905  0.1770  0.5338
   87SAPS   C31 8311   0.707   0.780  10.261 -0.4227 -0.4069 -0.9365
   87SAPS   O32 8312   0.670   0.677  10.202 -0.4437  0.0748 -1.0053
   87SAPS   C32 8313   0.742   0.911  10.197 -1.4589 -0.2516  0.0954
   87SAPS   H2X 8314   0.839   0.953  10.230 -1.5236  0.4167 -0.5630
   87SAPS   H2Y 8315   0.662   0.975  10.239  0.0544  0.8792  1.3772
   87SAPS   C23 8316   1.054   0.508  10.089  0.6078 -0.0388 -0.1151
   87SAPS   H3R 8317   0.957   0.557  10.063 -1.3501 -2.1286  2.6261
   87SAPS   H3S 8318   1.025   0.404  10.114 -1.8610  1.2083  2.8163
   87SAPS   C24 8319   1.147   0.514   9.967 -0.1416 -0.0905 -0.6296
   87SAPS   H4R 8320   1.181   0.619   9.957  1.3836 -0.4306  0.6874
   87SAPS   H4S 8321   1.089   0.494   9.874 -0.1768 -2.4400 -0.1628
   87SAPS   C25 8322   1.266   0.418   9.971  0.2036 -0.2624 -0.8436
   87SAPS   H5R 8323   1.262   0.359  10.063 -1.6901  0.2061 -0.5840
   87SAPS   C26 8324   1.364   0.412   9.888  0.8934  0.5313  0.2217
   87SAPS   H6R 8325   1.449   0.348   9.917 -1.8675 -5.1185 -2.6107
   87SAPS   C27 8326   1.367   0.492   9.763  0.4905 -0.1340  0.2368
   87SAPS   H7R 8327   1.282   0.563   9.750 -0.3175 -0.8443  1.4870
   87SAPS   H7S 8328   1.357   0.415   9.684 -2.6938  3.4343 -3.2930
   87SAPS   C28 8329   1.498   0.565   9.744  0.1397 -0.6838 -0.2620
   87SAPS   H8R 8330   1.541   0.622   9.829  0.3296 -0.5884 -0.4201
   87SAPS   C29 8331   1.574   0.570   9.632 -0.6334 -0.0573 -0.0990
   87SAPS   H9R 8332   1.666   0.630   9.638 -1.0487  0.6131 -0.3830
   87SAPS  C210 8333   1.540   0.498   9.505  0.4985 -0.5160 -0.6752
   87SAPS  H10R 8334   1.499   0.396   9.517  0.6866 -0.8787 -2.7109
   87SAPS  H10S 8335   1.643   0.489   9.465 -0.1061 -0.4376 -2.3281
   87SAPS  C211 8336   1.451   0.576   9.411 -0.1636  0.0060 -0.1424
   87SAPS  H11R 8337   1.350   0.610   9.439 -0.5816 -0.3770 -1.1234
   87SAPS  C212 8338   1.490   0.616   9.287  0.2537 -0.7418 -0.4753
   87SAPS  H12R 8339   1.409   0.670   9.235 -0.1649 -0.5195  0.3864
   87SAPS  C213 8340   1.619   0.601   9.216  0.3028 -0.3672 -0.8389
   87SAPS  H13R 8341   1.692   0.663   9.273 -0.5358  0.6532 -0.8449
   87SAPS  H13S 8342   1.610   0.651   9.118 -1.1697  0.0806 -0.4907
   87SAPS  C214 8343   1.663   0.468   9.175  0.0269  0.1511 -0.5179
   87SAPS  H14R 8344   1.596   0.386   9.205 -1.2379  0.2952 -2.7282
   87SAPS  C215 8345   1.779   0.445   9.109  0.3589 -0.0831 -0.2580
   87SAPS  H15R 8346   1.807   0.340   9.092 -0.6062 -0.4577  0.3787
   87SAPS  C216 8347   1.886   0.539   9.069  0.1600  0.3073  0.1085
   87SAPS  H16R 8348   1.944   0.569   9.159  1.0421  0.7996 -0.6184
   87SAPS  H16S 8349   1.838   0.629   9.024 -1.8541 -0.2375  1.0372
   87SAPS  C217 8350   1.994   0.483   8.984 -0.1985  0.0454  0.7798
   87SAPS  H17R 8351   2.050   0.397   9.027  0.0018  1.1604  2.8511
   87SAPS  H17S 8352   2.077   0.552   8.959  1.7478 -2.0780  1.0885
   87SAPS  C218 8353   1.936   0.422   8.850 -0.3626  0.2224  0.2919
   87SAPS  H18R 8354   1.872   0.498   8.800 -0.1116 -0.5486 -1.2546
   87SAPS  H18S 8355   1.867   0.338   8.871  0.3549 -0.7416 -1.0509
   87SAPS  C219 8356   2.039   0.371   8.741  0.6205  0.1274 -0.0203
   87SAPS  H19R 8357   1.978   0.334   8.655  0.2405  0.8643 -0.0773
   87SAPS  H19S 8358   2.089   0.286   8.792  0.3324  0.2891  0.5336
   87SAPS  C220 8359   2.136   0.477   8.688 -0.3621 -0.1717 -0.2037
   87SAPS  H20R 8360   2.072   0.564   8.662  0.9017  0.4056 -1.4902
   87SAPS  H20S 8361   2.193   0.426   8.608  1.3825 -2.6689  2.4056
   87SAPS  H20T 8362   2.212   0.497   8.766 -2.0897 -1.4915  1.9464
   87SAPS   C33 8363   0.742   0.905  10.037 -0.5624  0.4015 -0.0946
   87SAPS   H3X 8364   0.729   1.012  10.011 -1.0511  0.7542  1.5324
   87SAPS   H3Y 8365   0.659   0.842  10.000 -0.6799  0.0997  0.6800
   87SAPS   C34 8366   0.883   0.852   9.984 -0.2708 -0.6643  1.2927
   87SAPS   H4X 8367   0.906   0.748  10.016  1.0091 -0.4168  1.2146
   87SAPS   H4Y 8368   0.965   0.911  10.030  0.0395 -0.4940  0.5408
   87SAPS   C35 8369   0.910   0.873   9.836 -0.0980  0.4216 -0.1615
   87SAPS   H5X 8370   1.000   0.821   9.796  1.3350  2.3327  0.3962
   87SAPS   H5Y 8371   0.898   0.980   9.809  0.1026  0.7857  1.1210
   87SAPS   C36 8372   0.794   0.812   9.749 -0.3924  0.2466  0.3481
   87SAPS   H6X 8373   0.818   0.849   9.647 -1.9663  0.2776 -0.0388
   87SAPS   H6Y 8374   0.702   0.863   9.786  1.3116  2.0455  2.4043
   87SAPS   C37 8375   0.764   0.659   9.748 -0.0572  0.1853  0.2215
   87SAPS   H7X 8376   0.750   0.620   9.851 -0.3797  0.3227  0.2323
   87SAPS   H7Y 8377   0.843   0.595   9.704  1.0261  2.3804 -1.1834
   87SAPS   C38 8378   0.631   0.620   9.680  0.0626 -0.3386  0.0995
   87SAPS   H8X 8379   0.542   0.663   9.732 -0.3368 -0.6922 -0.2817
   87SAPS   H8Y 8380   0.613   0.510   9.691 -0.2693 -0.1132  2.3800
   87SAPS   C39 8381   0.640   0.671   9.533 -0.1415  0.6516  0.0490
   87SAPS   H9X 8382   0.745   0.658   9.499  0.5970  1.4760  1.8771
   87SAPS   H9Y 8383   0.612   0.778   9.525  0.4979  0.8932  0.8547
   87SAPS  C310 8384   0.544   0.583   9.441  0.4662  0.7579 -0.1408
   87SAPS  H10X 8385   0.443   0.593   9.488 -0.2710 -1.4579 -1.1327
   87SAPS  H10Y 8386   0.572   0.475   9.447  1.1678  0.9138 -0.5427
   87SAPS  C311 8387   0.524   0.622   9.292  0.5876 -0.2220  0.2501
   87SAPS  H11X 8388   0.495   0.728   9.276  0.3816 -0.5056 -1.3868
   87SAPS  H11Y 8389   0.445   0.559   9.247  2.2577 -1.8182 -0.5925
   87SAPS  C312 8390   0.653   0.611   9.210  0.2908  0.4988 -0.0789
   87SAPS  H12X 8391   0.735   0.661   9.266 -0.3985 -0.1184  1.5473
   87SAPS  H12Y 8392   0.637   0.675   9.121 -1.4537  0.4894  0.1941
   87SAPS  C313 8393   0.668   0.465   9.173  1.0530 -1.5939 -0.2098
   87SAPS  H13X 8394   0.573   0.438   9.121  1.3767  0.6835 -2.1830
   87SAPS  H13Y 8395   0.654   0.407   9.267  0.3829 -2.0240 -0.5680
   87SAPS  C314 8396   0.789   0.440   9.086 -0.2052 -1.2754 -0.0348
   87SAPS  H14X 8397   0.879   0.434   9.151 -0.1303 -1.0298 -0.1119
   87SAPS  H14Y 8398   0.811   0.524   9.016 -1.9057  1.1251  2.1259
   87SAPS  C315 8399   0.777   0.301   9.026 -0.3497  0.1206 -0.1015
   87SAPS  H15X 8400   0.742   0.227   9.101  0.2160 -1.3306 -1.2217
   87SAPS  H15Y 8401   0.874   0.258   8.991 -1.6370 -0.3599 -3.4785
   87SAPS  C316 8402   0.691   0.305   8.901  0.0893 -0.1659  0.6241
   87SAPS  H16X 8403   0.717   0.392   8.837 -2.5648 -0.2816 -0.7216
   87SAPS  H16Y 8404   0.584   0.326   8.922 -0.5109 -1.4107 -1.0117
   87SAPS  C317 8405   0.704   0.173   8.827  0.0542 -0.8728 -0.4747
   87SAPS  H17X 8406   0.630   0.098   8.863  1.6163 -2.3781 -0.2400
   87SAPS  H17Y 8407   0.797   0.123   8.863  0.6898 -0.1895 -1.1322
   87SAPS  C318 8408   0.697   0.172   8.676  0.2296  0.7405  0.5361
   87SAPS  H18X 8409   0.603   0.222   8.642  0.6847  2.4749  1.7048
   87SAPS  H18Y 8410   0.694   0.069   8.636 -1.8609  1.6452 -1.9195
   87SAPS  H18Z 8411   0.784   0.220   8.626 -0.9760  0.5571 -1.9291
   88SAPS     N 8412   2.749   5.829  11.016  1.0755  0.3517  0.0012
   88SAPS   HN1 8413   2.695   5.781  10.941  1.0187 -1.2769  1.0377
   88SAPS   HN2 8414   2.840   5.856  10.974  0.9051 -2.4426 -2.5751
   88SAPS   HN3 8415   2.752   5.757  11.091 -2.0216 -0.7450 -0.7581
   88SAPS   C12 8416   2.674   5.943  11.060  0.1027 -0.1552 -0.1742
   88SAPS  H12A 8417   2.578   5.947  11.011 -0.2960  1.0563  0.6520
   88SAPS   C13 8418   2.658   5.945  11.213  0.4839 -0.1935 -0.3273
   88SAPS  O13A 8419   2.717   5.856  11.283 -0.2135 -0.1101 -0.5940
   88SAPS  O13B 8420   2.589   6.034  11.268  0.1380 -0.0776  0.5840
   88SAPS   C11 8421   2.750   6.074  11.011 -0.2609 -0.9373  0.4365
   88SAPS  H11A 8422   2.851   6.071  11.058 -0.2859  0.0745  0.5726
   88SAPS  H11B 8423   2.703   6.172  11.035 -0.6177 -1.0020  0.0097
   88SAPS     P 8424   2.670   6.094  10.762  0.1301  0.6520 -0.5845
   88SAPS   O13 8425   2.577   5.983  10.763  0.1687  0.1078  0.0282
   88SAPS   O14 8426   2.620   6.226  10.790  0.5761 -0.1810 -0.1758
   88SAPS   O12 8427   2.779   6.068  10.868  0.1869 -0.0701  0.1446
   88SAPS   O11 8428   2.745   6.093  10.617  0.6319  0.1352 -0.5375
   88SAPS    C1 8429   2.832   6.206  10.590 -0.0593 -0.1140 -0.4339
   88SAPS    HA 8430   2.792   6.302  10.628  0.4405 -0.4348  0.9604
   88SAPS    HB 8431   2.931   6.185  10.635 -0.2358 -0.9506 -0.4248
   88SAPS    C2 8432   2.841   6.236  10.432  0.0318  0.0784 -0.4991
   88SAPS    HS 8433   2.925   6.307  10.416 -0.8166  1.0829 -0.5106
   88SAPS   O21 8434   2.716   6.287  10.382  0.1043 -0.4480 -0.0280
   88SAPS   C21 8435   2.707   6.423  10.386 -0.0927  0.5672  0.3737
   88SAPS   O22 8436   2.799   6.497  10.412  0.4011 -0.4007  0.8179
   88SAPS   C22 8437   2.577   6.471  10.322  0.0291  0.8080 -0.0155
   88SAPS   H2R 8438   2.492   6.473  10.394  1.9635  0.3369  2.4244
   88SAPS   H2S 8439   2.608   6.574  10.297  0.2889  0.3458 -1.6989
   88SAPS    C3 8440   2.884   6.106  10.359  0.0898 -0.4970  0.3852
   88SAPS    HX 8441   2.811   6.028  10.391 -0.2447 -0.5350 -0.4529
   88SAPS    HY 8442   2.986   6.074  10.388  0.3328  0.2743  0.4051
   88SAPS   O31 8443   2.878   6.118  10.211 -0.3921 -0.3515 -0.1289
   88SAPS   C31 8444   2.988   6.140  10.146 -0.0686 -0.3656 -0.4230
   88SAPS   O32 8445   3.099   6.142  10.198 -0.6030 -0.3150 -0.3779
   88SAPS   C32 8446   2.962   6.169   9.999  0.4803 -0.5268  0.1237
   88SAPS   H2X 8447   3.039   6.241   9.966 -0.8350 -0.0262 -2.0196
   88SAPS   H2Y 8448   2.862   6.218   9.993  0.5880 -0.2892  0.2482
   88SAPS   C23 8449   2.546   6.398  10.191  0.8700  0.4256  0.1325
   88SAPS   H3R 8450   2.465   6.327  10.218  1.9450 -0.6642  0.5689
   88SAPS   H3S 8451   2.635   6.339  10.162 -0.4782 -1.3208 -0.6514
   88SAPS   C24 8452   2.499   6.494  10.087  0.6023  0.1738  0.2690
   88SAPS   H4R 8453   2.554   6.587  10.060  0.0193 -0.1219 -2.1741
   88SAPS   H4S 8454   2.402   6.526  10.130 -1.2519 -1.5719 -2.3086
   88SAPS   C25 8455   2.449   6.434   9.958 -0.1047 -0.2582 -0.2240
   88SAPS   H5R 8456   2.341   6.414   9.960 -0.3129  0.7796 -0.7425
   88SAPS   C26 8457   2.520   6.407   9.846  0.4862 -0.5605  0.6237
   88SAPS   H6R 8458   2.455   6.377   9.761 -1.3995 -0.4301  1.9566
   88SAPS   C27 8459   2.664   6.422   9.811  0.4168  0.9775  0.2825
   88SAPS   H7R 8460   2.692   6.319   9.781 -1.1330  0.9310 -1.1842
   88SAPS   H7S 8461   2.716   6.452   9.904  1.9803  0.1654 -0.3013
   88SAPS   C28 8462   2.699   6.527   9.707  0.2326 -0.2094 -0.2581
   88SAPS   H8R 8463   2.732   6.621   9.752  0.3616 -1.7471  3.1511
   88SAPS   C29 8464   2.706   6.492   9.577 -0.6112  0.0501 -0.0881
   88SAPS   H9R 8465   2.750   6.568   9.510  1.2865  0.5116  1.5885
   88SAPS  C210 8466   2.674   6.366   9.507 -0.0209  0.1475 -0.2437
   88SAPS  H10R 8467   2.574   6.334   9.543 -0.0245 -0.6739 -0.9444
   88SAPS  H10S 8468   2.750   6.289   9.534 -0.1919  0.5513  1.5677
   88SAPS  C211 8469   2.669   6.383   9.360  0.0010 -0.2288  0.3127
   88SAPS  H11R 8470   2.648   6.485   9.327  0.8559 -0.1989 -0.1502
   88SAPS  C212 8471   2.697   6.301   9.261  0.0385  0.8499  0.4193
   88SAPS  H12R 8472   2.699   6.347   9.162  0.1090 -0.1673 -0.0665
   88SAPS  C213 8473   2.733   6.156   9.257  0.9602  0.3111 -1.0322
   88SAPS  H13R 8474   2.824   6.129   9.314  0.4663  0.2363 -0.2646
   88SAPS  H13S 8475   2.751   6.142   9.148  0.6319  1.4171 -1.2484
   88SAPS  C214 8476   2.617   6.063   9.299 -0.5545  0.6041 -0.3907
   88SAPS  H14R 8477   2.535   6.104   9.359 -1.7752 -0.6369 -1.1624
   88SAPS  C215 8478   2.605   5.932   9.256  0.5095  0.4208 -0.1780
   88SAPS  H15R 8479   2.515   5.884   9.295 -0.2878  2.1117  0.1840
   88SAPS  C216 8480   2.705   5.862   9.166 -0.1771 -0.1815  0.1110
   88SAPS  H16R 8481   2.786   5.832   9.236 -0.1548 -1.8550 -0.5668
   88SAPS  H16S 8482   2.745   5.936   9.093 -1.2267  0.2454 -0.0472
   88SAPS  C217 8483   2.642   5.734   9.098 -0.0250  1.0922 -0.6753
   88SAPS  H17R 8484   2.565   5.772   9.028 -0.0478  1.2828 -0.5488
   88SAPS  H17S 8485   2.580   5.688   9.178  0.5355  1.7803  0.1883
   88SAPS  C218 8486   2.738   5.634   9.035  0.3124 -0.3026 -0.2293
   88SAPS  H18R 8487   2.806   5.594   9.113 -0.0628 -2.9408 -1.1372
   88SAPS  H18S 8488   2.806   5.683   8.961  0.8098 -0.1874  0.2948
   88SAPS  C219 8489   2.671   5.511   8.984 -0.0176  0.0961  0.0415
   88SAPS  H19R 8490   2.747   5.439   8.944  0.9735  0.5907  0.9733
   88SAPS  H19S 8491   2.613   5.542   8.895 -0.1572  1.8554  0.7063
   88SAPS  C220 8492   2.574   5.439   9.086 -0.2819 -0.2581  0.2699
   88SAPS  H20R 8493   2.533   5.346   9.042  0.0597  0.3741 -1.4453
   88SAPS  H20S 8494   2.491   5.510   9.106  0.7652  0.8157  0.9610
   88SAPS  H20T 8495   2.622   5.424   9.185  1.0394  3.2456  0.3065
   88SAPS   C33 8496   2.969   6.047   9.907 -0.0659 -1.0580 -0.3311
   88SAPS   H3X 8497   2.881   5.982   9.924 -1.8589  1.1627 -0.6026
   88SAPS   H3Y 8498   3.058   5.988   9.940 -1.4072 -2.3486  1.1554
   88SAPS   C34 8499   2.985   6.080   9.758 -0.0157  0.1189  0.0748
   88SAPS   H4X 8500   3.081   6.131   9.735 -0.2819 -0.0111 -1.4703
   88SAPS   H4Y 8501   2.893   6.134   9.726  0.7133  1.0969 -0.4237
   88SAPS   C35 8502   2.984   5.949   9.681 -0.4499  0.1708  0.4274
   88SAPS   H5X 8503   2.905   5.875   9.709  1.1029 -2.5951 -1.9601
   88SAPS   H5Y 8504   3.082   5.906   9.709  0.1826  0.6285 -0.9901
   88SAPS   C36 8505   2.985   5.978   9.530  0.6098  0.1721 -0.5860
   88SAPS   H6X 8506   3.043   6.070   9.506  1.3325 -0.4440 -1.2210
   88SAPS   H6Y 8507   2.881   5.997   9.495  0.6841  3.7639  0.7022
   88SAPS   C37 8508   3.032   5.865   9.442 -0.3337 -0.4802  0.3741
   88SAPS   H7X 8509   3.142   5.875   9.452 -0.4965  1.0435  0.9426
   88SAPS   H7Y 8510   3.006   5.887   9.336  0.8620  1.2355  0.3852
   88SAPS   C38 8511   3.006   5.723   9.491 -0.3371 -0.2098  0.0319
   88SAPS   H8X 8512   2.899   5.706   9.514 -0.0553 -0.0839  1.4934
   88SAPS   H8Y 8513   3.066   5.709   9.583  1.2194  1.8336 -0.5806
   88SAPS   C39 8514   3.059   5.622   9.390 -0.5341  0.7037 -0.4750
   88SAPS   H9X 8515   3.170   5.628   9.386 -0.5912  1.1629 -2.6898
   88SAPS   H9Y 8516   3.011   5.639   9.291 -1.6667 -0.0748 -0.0764
   88SAPS  C310 8517   3.015   5.478   9.436  0.5374 -0.1169  1.2230
   88SAPS  H10X 8518   2.913   5.484   9.481  0.8424  2.4495  1.6833
   88SAPS  H10Y 8519   3.084   5.440   9.514  0.3426 -1.3918  0.8062
   88SAPS  C311 8520   3.020   5.380   9.323  0.1671  0.2680  0.4119
   88SAPS  H11X 8521   3.129   5.369   9.307  0.4673  1.4040  1.5079
   88SAPS  H11Y 8522   2.970   5.413   9.229  3.8697  0.7129 -1.6019
   88SAPS  C312 8523   2.960   5.242   9.365  0.2363 -0.3353 -0.3636
   88SAPS  H12X 8524   2.940   5.172   9.282 -2.1604 -0.2943  0.0936
   88SAPS  H12Y 8525   2.861   5.278   9.402  0.8907  0.5952  0.5735
   88SAPS  C313 8526   3.044   5.175   9.478 -0.1487  0.3530  0.2323
   88SAPS  H13X 8527   3.055   5.253   9.556 -3.3105  1.2754 -0.0899
   88SAPS  H13Y 8528   3.148   5.158   9.442  0.9073 -1.5640  3.7821
   88SAPS  C314 8529   2.982   5.043   9.533 -0.4255 -0.5278  0.1419
   88SAPS  H14X 8530   3.065   5.001   9.593  0.6372  1.1006 -0.1250
   88SAPS  H14Y 8531   2.957   4.980   9.445  0.0085  1.1686 -1.2537
   88SAPS  C315 8532   2.855   5.069   9.613 -0.4218 -0.0141 -0.7036
   88SAPS  H15X 8533   2.784   5.134   9.557  0.1845 -0.1587 -1.6587
   88SAPS  H15Y 8534   2.888   5.124   9.704  0.6499 -2.1861  0.3084
   88SAPS  C316 8535   2.790   4.939   9.657 -0.2982  0.0820  0.0177
   88SAPS  H16X 8536   2.868   4.861   9.649  0.7481  1.1385 -0.2634
   88SAPS  H16Y 8537   2.700   4.915   9.595  0.3836 -0.3681 -0.8206
   88SAPS  C317 8538   2.729   4.923   9.797 -0.3945  0.6509 -0.5223
   88SAPS  H17X 8539   2.659   5.006   9.823 -0.5281  1.0371 -2.0255
   88SAPS  H17Y 8540   2.813   4.929   9.870  0.1043  0.4481 -1.0752
   88SAPS  C318 8541   2.634   4.801   9.810 -0.2402 -0.3759 -0.4390
   88SAPS  H18X 8542   2.685   4.706   9.781 -2.8897 -1.6995 -1.0850
   88SAPS  H18Y 8543   2.541   4.806   9.749  1.5315  1.2018 -3.1948
   88SAPS  H18Z 8544   2.611   4.793   9.918  1.9424 -0.9949  0.0166
   89SAPS     N 8545   4.136   1.658  11.014  0.1109  0.2122 -0.3213
   89SAPS   HN1 8546   4.200   1.702  10.944  0.5330 -0.8455 -0.6258
   89SAPS   HN2 8547   4.071   1.732  11.046  1.6531  1.5116 -0.0317
   89SAPS   HN3 8548   4.200   1.635  11.093  0.3604 -0.4704 -0.7088
   89SAPS   C12 8549   4.074   1.541  10.950  0.7525  0.1133  0.1968
   89SAPS  H12A 8550   4.152   1.466  10.961 -0.6526 -1.4689 -0.2061
   89SAPS   C13 8551   3.950   1.488  11.024 -0.9668 -0.1040  0.3217
   89SAPS  O13A 8552   3.924   1.529  11.138 -0.7431  0.3200 -0.6409
   89SAPS  O13B 8553   3.900   1.381  10.978  0.3259  0.5813 -0.4572
   89SAPS   C11 8554   4.024   1.580  10.808 -0.5161  0.1761  0.0820
   89SAPS  H11A 8555   3.983   1.491  10.756 -0.1960 -0.0305  0.1803
   89SAPS  H11B 8556   4.115   1.610  10.752 -0.0089  1.4512  1.5279
   89SAPS     P 8557   3.872   1.760  10.695 -0.0501 -0.3772 -0.0193
   89SAPS   O13 8558   3.772   1.676  10.623  0.3809 -0.3233  0.7799
   89SAPS   O14 8559   3.817   1.882  10.756 -0.4352  0.0290  0.3168
   89SAPS   O12 8560   3.920   1.677  10.818  0.1137 -0.2528  0.6530
   89SAPS   O11 8561   3.995   1.802  10.606  1.0181  0.5470  0.6557
   89SAPS    C1 8562   4.030   1.931  10.577 -0.1488 -0.3335  0.2882
   89SAPS    HA 8563   4.024   2.000  10.664 -0.1026  0.4537 -0.3245
   89SAPS    HB 8564   4.139   1.925  10.559  0.2432  2.3177  1.3999
   89SAPS    C2 8565   3.961   1.993  10.457 -0.6329  0.4100  0.1319
   89SAPS    HS 8566   3.851   1.993  10.472 -0.7290  2.2869 -0.2454
   89SAPS   O21 8567   4.003   1.920  10.342  1.2897  0.2675 -0.0500
   89SAPS   C21 8568   3.904   1.869  10.274  0.0774  1.2105 -0.6796
   89SAPS   O22 8569   3.786   1.864  10.306 -0.7930 -0.7246  0.0832
   89SAPS   C22 8570   3.971   1.799  10.158  0.3909  0.1004 -0.3727
   89SAPS   H2R 8571   4.030   1.880  10.108  1.1013 -0.8272 -1.0706
   89SAPS   H2S 8572   4.046   1.728  10.198 -0.1948 -1.2972 -1.6531
   89SAPS    C3 8573   4.001   2.143  10.443  0.3473 -0.3247  0.3105
   89SAPS    HX 8574   4.108   2.152  10.470  0.3329  1.9429 -0.2187
   89SAPS    HY 8575   3.949   2.207  10.517 -0.4224 -1.0984  0.4615
   89SAPS   O31 8576   3.993   2.205  10.307 -0.1635  0.0022  0.3808
   89SAPS   C31 8577   3.876   2.208  10.260  0.2984  0.3002 -1.2398
   89SAPS   O32 8578   3.775   2.187  10.330 -0.6039  0.5004  0.1697
   89SAPS   C32 8579   3.873   2.236  10.107  0.7280 -0.4036 -1.1592
   89SAPS   H2X 8580   3.794   2.169  10.067 -1.6264  1.2513  0.4296
   89SAPS   H2Y 8581   3.969   2.196  10.067  1.6991  0.2024  0.4668
   89SAPS   C23 8582   3.873   1.716  10.068 -0.7825 -0.9289 -0.6383
   89SAPS   H3R 8583   3.791   1.676  10.131  0.8835 -2.1461  0.8575
   89SAPS   H3S 8584   3.940   1.633  10.039  1.6677  0.0425  1.7898
   89SAPS   C24 8585   3.835   1.780   9.929  0.2599 -0.8027  0.0650
   89SAPS   H4R 8586   3.806   1.699   9.858  3.1324 -0.4397 -1.6682
   89SAPS   H4S 8587   3.932   1.820   9.895 -1.1383  2.4101 -0.4834
   89SAPS   C25 8588   3.737   1.896   9.954  0.2564  0.4355  0.0333
   89SAPS   H5R 8589   3.713   1.922  10.058  0.1973 -2.4631  0.8364
   89SAPS   C26 8590   3.685   1.967   9.854  0.0160  0.0350 -0.1752
   89SAPS   H6R 8591   3.602   2.036   9.875 -0.1136 -0.7057  2.1080
   89SAPS   C27 8592   3.707   1.954   9.705 -0.0598  0.7314 -0.3302
   89SAPS   H7R 8593   3.609   1.915   9.670 -0.2175 -0.1192  0.9940
   89SAPS   H7S 8594   3.783   1.878   9.673 -0.3072  0.6258 -0.6795
   89SAPS   C28 8595   3.757   2.076   9.636  0.0615 -0.4789 -0.3862
   89SAPS   H8R 8596   3.850   2.123   9.671 -0.2524  1.4729 -2.0004
   89SAPS   C29 8597   3.696   2.138   9.534 -0.6392  0.2250  0.1270
   89SAPS   H9R 8598   3.737   2.233   9.498 -1.0653  0.6625  0.7664
   89SAPS  C210 8599   3.567   2.092   9.461  1.0628  0.7847 -1.2804
   89SAPS  H10R 8600   3.515   2.011   9.516  1.1980  1.2660 -0.4184
   89SAPS  H10S 8601   3.603   2.056   9.363  3.9855 -0.6842  0.2324
   89SAPS  C211 8602   3.469   2.206   9.441 -0.3192 -0.5207 -0.9786
   89SAPS  H11R 8603   3.450   2.261   9.535  0.2139 -0.6704 -0.7791
   89SAPS  C212 8604   3.408   2.235   9.324 -0.2327 -0.6727 -0.0107
   89SAPS  H12R 8605   3.338   2.320   9.327 -0.2780 -0.7315  1.3069
   89SAPS  C213 8606   3.418   2.171   9.186  0.3633 -0.2818  0.9907
   89SAPS  H13R 8607   3.338   2.218   9.126  0.0657  0.8702  2.2255
   89SAPS  H13S 8608   3.404   2.061   9.188  0.1204 -0.2627  0.3041
   89SAPS  C214 8609   3.558   2.187   9.123  0.5014 -0.6814 -0.5925
   89SAPS  H14R 8610   3.627   2.257   9.172 -0.1965 -1.4858  1.6490
   89SAPS  C215 8611   3.611   2.122   9.014  0.5141  0.1388  0.0958
   89SAPS  H15R 8612   3.708   2.151   8.973  0.3272 -2.0128 -2.0871
   89SAPS  C216 8613   3.538   2.023   8.932 -0.1813  0.1739  0.4382
   89SAPS  H16R 8614   3.430   2.042   8.944  0.1418  0.8817  2.5654
   89SAPS  H16S 8615   3.559   1.928   8.985  1.7942  0.1035 -0.3615
   89SAPS  C217 8616   3.589   2.019   8.785  0.0670 -0.6349 -0.7829
   89SAPS  H17R 8617   3.579   1.917   8.741 -2.6575 -0.2283 -1.2637
   89SAPS  H17S 8618   3.694   2.053   8.777 -0.5048  1.2131 -0.9088
   89SAPS  C218 8619   3.498   2.118   8.702  0.1257  0.4287 -0.2049
   89SAPS  H18R 8620   3.549   2.129   8.603  0.0594  2.3043 -0.0612
   89SAPS  H18S 8621   3.502   2.216   8.754  0.9750  0.6160 -0.5987
   89SAPS  C219 8622   3.361   2.058   8.678  0.4590 -0.0901 -0.2672
   89SAPS  H19R 8623   3.304   2.096   8.766  1.4625  0.9582 -0.0291
   89SAPS  H19S 8624   3.365   1.948   8.671 -0.3665 -0.1758  0.3777
   89SAPS  C220 8625   3.299   2.106   8.549 -0.1537 -0.0888  0.0544
   89SAPS  H20R 8626   3.242   2.021   8.504  0.0020  0.8674 -2.0697
   89SAPS  H20S 8627   3.372   2.126   8.467  1.9960  4.1264  2.6917
   89SAPS  H20T 8628   3.235   2.196   8.553 -2.5503 -1.6983  0.2201
   89SAPS   C33 8629   3.854   2.386  10.085 -0.0567 -0.4939  0.3726
   89SAPS   H3X 8630   3.951   2.437  10.102 -0.3839  0.6030 -0.8434
   89SAPS   H3Y 8631   3.784   2.421  10.164 -0.3144 -3.5405  1.6513
   89SAPS   C34 8632   3.790   2.424   9.954  0.1070  0.5773 -0.6210
   89SAPS   H4X 8633   3.766   2.532   9.960  1.8605  0.9772 -0.4073
   89SAPS   H4Y 8634   3.691   2.380   9.930  0.2971  0.0194 -0.3994
   89SAPS   C35 8635   3.880   2.411   9.833 -0.0333 -0.2715 -0.4882
   89SAPS   H5X 8636   3.892   2.300   9.829 -0.9343 -0.3436 -1.6213
   89SAPS   H5Y 8637   3.972   2.465   9.864 -1.1933  0.4221  1.9892
   89SAPS   C36 8638   3.816   2.458   9.702  0.3502  0.0341 -0.7880
   89SAPS   H6X 8639   3.770   2.559   9.696  0.4076  0.1008 -0.1783
   89SAPS   H6Y 8640   3.731   2.386   9.696 -0.0765  0.6032 -1.7841
   89SAPS   C37 8641   3.895   2.436   9.568  0.2355  0.2626 -0.6028
   89SAPS   H7X 8642   3.921   2.328   9.566  3.8246  1.0146 -0.6550
   89SAPS   H7Y 8643   3.997   2.474   9.592 -0.0087 -0.7212  2.4893
   89SAPS   C38 8644   3.826   2.482   9.443 -0.0141 -0.6092 -1.2326
   89SAPS   H8X 8645   3.808   2.591   9.457  2.0214 -0.3096 -0.4876
   89SAPS   H8Y 8646   3.724   2.440   9.432 -0.3651  0.3519 -1.8123
   89SAPS   C39 8647   3.913   2.467   9.325  0.0195 -0.3031  0.2935
   89SAPS   H9X 8648   3.919   2.358   9.304 -1.3071 -1.0282  3.2542
   89SAPS   H9Y 8649   4.011   2.519   9.323 -0.9929  1.7589  1.2882
   89SAPS  C310 8650   3.844   2.520   9.204  0.1246  0.4287  0.6464
   89SAPS  H10X 8651   3.840   2.629   9.224  1.2151  0.7232 -0.6431
   89SAPS  H10Y 8652   3.739   2.486   9.189 -0.2675  0.7496  2.4397
   89SAPS  C311 8653   3.938   2.516   9.086  0.0552  0.6885 -0.4110
   89SAPS  H11X 8654   3.975   2.412   9.075 -0.2719  0.6950 -1.8632
   89SAPS  H11Y 8655   4.027   2.582   9.092  0.5111  0.4613 -3.1340
   89SAPS  C312 8656   3.871   2.545   8.950 -0.2238 -0.0769 -0.6548
   89SAPS  H12X 8657   3.816   2.641   8.957 -1.1069 -0.5846 -0.4306
   89SAPS  H12Y 8658   3.800   2.461   8.934  0.4032 -0.7640  0.1143
   89SAPS  C313 8659   3.979   2.538   8.839 -0.1157 -0.1695  0.4172
   89SAPS  H13X 8660   4.033   2.441   8.852 -0.4598 -0.4530 -0.2149
   89SAPS  H13Y 8661   4.057   2.616   8.850  0.9401 -1.1127 -0.1056
   89SAPS  C314 8662   3.933   2.551   8.691  0.2402 -0.3103 -0.5997
   89SAPS  H14X 8663   3.918   2.660   8.675  1.6520  0.0853  0.5625
   89SAPS  H14Y 8664   3.837   2.495   8.680  0.1742 -0.9784  2.4381
   89SAPS  C315 8665   4.044   2.488   8.599  0.2376 -0.2872  0.3929
   89SAPS  H15X 8666   4.068   2.384   8.630 -1.1359 -0.4254  1.0941
   89SAPS  H15Y 8667   4.129   2.556   8.621 -0.3548  0.2301  1.1780
   89SAPS  C316 8668   4.014   2.497   8.453 -0.3361 -0.3289 -0.0177
   89SAPS  H16X 8669   3.988   2.603   8.430 -1.6462 -0.4119  0.9269
   89SAPS  H16Y 8670   3.933   2.422   8.439  1.2566 -2.2315  0.4873
   89SAPS  C317 8671   4.121   2.458   8.360  0.6780  0.7573  0.0650
   89SAPS  H17X 8672   4.176   2.369   8.396 -1.1962  0.0282  1.2818
   89SAPS  H17Y 8673   4.193   2.542   8.352  1.1003  0.5182  1.2347
   89SAPS  C318 8674   4.069   2.429   8.218 -0.2555  0.2521  0.3720
   89SAPS  H18X 8675   4.147   2.383   8.154 -0.6440 -0.3238  0.3078
   89SAPS  H18Y 8676   4.025   2.525   8.181 -2.8896 -0.2210  2.0197
   89SAPS  H18Z 8677   3.983   2.359   8.221 -1.1713  1.2702 -0.9610
   90SAPS     N 8678   5.244   1.372  10.809 -0.5672 -0.3557 -0.8069
   90SAPS   HN1 8679   5.163   1.417  10.762 -0.7136  0.8306  0.5192
   90SAPS   HN2 8680   5.311   1.448  10.835 -1.5185  0.3128 -0.2378
   90SAPS   HN3 8681   5.288   1.315  10.734  0.1639  0.6590 -1.1705
   90SAPS   C12 8682   5.190   1.294  10.930  0.0430  0.1067 -0.2735
   90SAPS  H12A 8683   5.274   1.238  10.968 -0.8019 -1.6357 -0.8908
   90SAPS   C13 8684   5.149   1.384  11.051  0.2674 -0.1740 -0.0992
   90SAPS  O13A 8685   5.203   1.497  11.068 -0.2706 -0.0622  0.3481
   90SAPS  O13B 8686   5.112   1.316  11.149  0.5023  0.0452  0.3611
   90SAPS   C11 8687   5.070   1.215  10.890 -0.1637  0.7141  0.6954
   90SAPS  H11A 8688   4.990   1.285  10.858 -0.5506 -0.7159 -1.7425
   90SAPS  H11B 8689   5.037   1.160  10.981 -0.7249 -0.1715 -0.0255
   90SAPS     P 8690   4.965   1.030  10.736 -0.0244 -0.1241 -0.3046
   90SAPS   O13 8691   4.988   0.886  10.766  0.4910 -0.1435  0.1824
   90SAPS   O14 8692   4.843   1.095  10.789  0.1761  0.3899 -0.5100
   90SAPS   O12 8693   5.093   1.117  10.779  0.1161 -0.7369 -0.5714
   90SAPS   O11 8694   4.969   1.050  10.583 -0.6017 -0.3153  0.7596
   90SAPS    C1 8695   4.861   1.014  10.499  0.1793 -0.0500  1.2084
   90SAPS    HA 8696   4.781   0.969  10.560 -0.4677 -0.0140  0.4066
   90SAPS    HB 8697   4.830   1.098  10.433  2.6787  0.1064  0.1041
   90SAPS    C2 8698   4.892   0.894  10.402 -0.0995  0.3014 -0.6732
   90SAPS    HS 8699   4.864   0.799  10.453 -2.2433  0.9874 -0.5048
   90SAPS   O21 8700   5.034   0.887  10.369 -0.5187 -1.2062  0.1408
   90SAPS   C21 8701   5.077   0.774  10.317 -0.6266  0.2757 -0.5479
   90SAPS   O22 8702   5.012   0.671  10.316  0.0683 -0.8186  0.1276
   90SAPS   C22 8703   5.230   0.780  10.271  0.6045  0.3493  0.4112
   90SAPS   H2R 8704   5.268   0.877  10.309 -0.6797  1.1238 -0.2179
   90SAPS   H2S 8705   5.286   0.700  10.324  1.2032  0.4342 -0.0751
   90SAPS    C3 8706   4.805   0.915  10.284  0.5663  0.4289  0.5073
   90SAPS    HX 8707   4.850   0.998  10.225 -0.7432  0.6883 -0.1468
   90SAPS    HY 8708   4.702   0.953  10.301  0.7450  0.3244  1.9137
   90SAPS   O31 8709   4.795   0.805  10.198  0.2520  0.1415  0.2981
   90SAPS   C31 8710   4.717   0.694  10.227  0.3084  0.0219 -0.6050
   90SAPS   O32 8711   4.643   0.684  10.321  0.7553 -0.0057  0.0151
   90SAPS   C32 8712   4.745   0.591  10.123  0.5343  0.3689 -0.2466
   90SAPS   H2X 8713   4.796   0.505  10.172 -1.0366  0.5306  1.8255
   90SAPS   H2Y 8714   4.798   0.643  10.040 -0.3697  1.2494 -0.2884
   90SAPS   C23 8715   5.258   0.766  10.117 -0.1478  0.9214  0.7729
   90SAPS   H3R 8716   5.200   0.686  10.067  0.3996 -0.0008  1.5894
   90SAPS   H3S 8717   5.363   0.735  10.100 -1.6674 -3.2496 -2.7039
   90SAPS   C24 8718   5.250   0.898  10.033  0.0567 -0.2969 -0.0635
   90SAPS   H4R 8719   5.290   0.873   9.933 -0.5820 -0.4877 -0.2746
   90SAPS   H4S 8720   5.314   0.969  10.090 -1.4395  1.3058 -0.2846
   90SAPS   C25 8721   5.113   0.965  10.018  0.0211  0.3408 -0.1022
   90SAPS   H5R 8722   5.092   1.043  10.093  2.1951  0.4684  0.4601
   90SAPS   C26 8723   5.019   0.938   9.926 -0.3342 -0.0921  0.1403
   90SAPS   H6R 8724   4.923   0.991   9.933 -1.0583 -1.1110 -1.5664
   90SAPS   C27 8725   5.030   0.825   9.811 -0.1173  0.2108  0.4973
   90SAPS   H7R 8726   4.939   0.762   9.822 -0.1182  0.1474  0.1297
   90SAPS   H7S 8727   5.109   0.750   9.832 -0.9612 -0.9060 -0.2293
   90SAPS   C28 8728   5.036   0.891   9.679  1.2620  0.6051 -0.0790
   90SAPS   H8R 8729   5.022   1.000   9.670 -0.1845  0.3557 -1.3115
   90SAPS   C29 8730   5.029   0.822   9.564 -0.7249 -0.3265  0.2863
   90SAPS   H9R 8731   5.027   0.883   9.472  1.2703  0.7653  0.9008
   90SAPS  C210 8732   5.024   0.670   9.563 -0.0407 -0.1096  0.2508
   90SAPS  H10R 8733   4.916   0.650   9.542 -0.2209  2.0385 -1.2024
   90SAPS  H10S 8734   5.034   0.623   9.663 -3.9686  2.1552  1.9678
   90SAPS  C211 8735   5.113   0.612   9.452 -0.1609  0.8387  1.2694
   90SAPS  H11R 8736   5.209   0.568   9.484  0.4737 -0.2739 -1.8098
   90SAPS  C212 8737   5.073   0.591   9.325  0.1835 -0.7777 -0.0779
   90SAPS  H12R 8738   5.136   0.548   9.246 -1.5463 -0.6386 -1.5767
   90SAPS  C213 8739   4.935   0.622   9.268  0.6042 -0.0896 -0.1087
   90SAPS  H13R 8740   4.941   0.729   9.237 -1.2659 -0.7180 -3.0200
   90SAPS  H13S 8741   4.857   0.620   9.347 -0.8153  0.6005 -1.4306
   90SAPS  C214 8742   4.921   0.529   9.149  0.1490  0.2789 -0.3375
   90SAPS  H14R 8743   4.952   0.425   9.166 -1.2873  0.0275  0.9720
   90SAPS  C215 8744   4.895   0.561   9.021  0.4403 -0.4480  0.2468
   90SAPS  H15R 8745   4.897   0.491   8.937  0.1249  1.7379 -1.7017
   90SAPS  C216 8746   4.865   0.699   8.971  0.0568 -0.1999 -0.9448
   90SAPS  H16R 8747   4.838   0.764   9.057  0.9397  0.2301 -0.9869
   90SAPS  H16S 8748   4.775   0.699   8.905  0.1858 -0.0035 -1.1238
   90SAPS  C217 8749   4.997   0.748   8.903 -0.2304 -0.0546  0.3729
   90SAPS  H17R 8750   5.085   0.722   8.965 -1.0799 -1.3985  1.0640
   90SAPS  H17S 8751   4.991   0.859   8.892 -0.9113 -0.2905 -2.6032
   90SAPS  C218 8752   5.020   0.691   8.764  0.7334  0.7552 -1.1281
   90SAPS  H18R 8753   4.945   0.733   8.695 -1.0589 -3.8271 -2.3141
   90SAPS  H18S 8754   5.002   0.582   8.758 -0.9637  0.8610  0.7159
   90SAPS  C219 8755   5.155   0.727   8.698  0.0732 -0.8704  0.5171
   90SAPS  H19R 8756   5.165   0.666   8.605  2.6716  0.5524 -0.2424
   90SAPS  H19S 8757   5.237   0.691   8.764 -0.3400 -1.6320  0.6301
   90SAPS  C220 8758   5.173   0.878   8.669 -0.8406 -0.2392  0.4464
   90SAPS  H20R 8759   5.161   0.940   8.760 -1.6451  1.4594 -0.7674
   90SAPS  H20S 8760   5.106   0.913   8.587 -0.8711 -0.6247  0.3029
   90SAPS  H20T 8761   5.280   0.890   8.641 -0.2546  0.9788  2.9521
   90SAPS   C33 8762   4.605   0.533  10.071 -0.0887  0.3129 -0.3213
   90SAPS   H3X 8763   4.539   0.510  10.158 -0.9059  1.4902 -0.6007
   90SAPS   H3Y 8764   4.632   0.440  10.018  0.7615  0.0860  0.4801
   90SAPS   C34 8765   4.542   0.625   9.968  0.9228  0.6335 -0.4069
   90SAPS   H4X 8766   4.618   0.644   9.889  1.5882  2.0234  0.5472
   90SAPS   H4Y 8767   4.516   0.724  10.009 -0.4695 -0.7565  2.3276
   90SAPS   C35 8768   4.421   0.557   9.906  0.1041 -0.6915 -0.7836
   90SAPS   H5X 8769   4.346   0.534   9.985 -0.8515  0.2520 -1.3860
   90SAPS   H5Y 8770   4.441   0.461   9.854 -1.7657 -0.6574 -1.6521
   90SAPS   C36 8771   4.352   0.655   9.810  0.0304 -0.0017  0.2702
   90SAPS   H6X 8772   4.422   0.673   9.726  0.0137  1.4109  0.5321
   90SAPS   H6Y 8773   4.334   0.751   9.864 -1.9903 -0.1093 -0.1384
   90SAPS   C37 8774   4.213   0.606   9.773  0.4776 -0.5623 -0.2156
   90SAPS   H7X 8775   4.149   0.636   9.859  0.5607 -0.5554 -0.1568
   90SAPS   H7Y 8776   4.211   0.495   9.766  0.9995 -0.6245  0.5492
   90SAPS   C38 8777   4.187   0.688   9.647  0.2922  0.0592  0.4404
   90SAPS   H8X 8778   4.271   0.692   9.574  0.2714 -0.8855  0.3551
   90SAPS   H8Y 8779   4.166   0.787   9.693 -0.2414  0.1072  0.0995
   90SAPS   C39 8780   4.058   0.654   9.570  0.4277 -0.3906 -0.4032
   90SAPS   H9X 8781   3.977   0.631   9.642 -1.7548  2.5958 -1.6783
   90SAPS   H9Y 8782   4.077   0.557   9.519 -0.4991 -1.6356  1.5243
   90SAPS  C310 8783   3.994   0.766   9.483 -0.1812 -0.6723  0.4845
   90SAPS  H10X 8784   4.018   0.869   9.518 -0.2565  0.8017 -3.3369
   90SAPS  H10Y 8785   3.884   0.757   9.491 -0.1406 -0.8145  0.8868
   90SAPS  C311 8786   4.029   0.761   9.333 -0.5252  0.5871  0.3300
   90SAPS  H11X 8787   4.024   0.655   9.302  1.1822  0.6127 -0.1196
   90SAPS  H11Y 8788   4.137   0.783   9.317 -0.1023 -0.6028  1.4186
   90SAPS  C312 8789   3.952   0.857   9.254  0.4170  0.5335 -0.2125
   90SAPS  H12X 8790   3.978   0.847   9.146  0.0573  0.9064 -0.3342
   90SAPS  H12Y 8791   3.986   0.957   9.287  1.4102  0.4250 -0.8473
   90SAPS  C313 8792   3.798   0.838   9.266  0.1046 -0.2084 -0.2070
   90SAPS  H13X 8793   3.772   0.885   9.363 -0.9930  0.1105 -0.6330
   90SAPS  H13Y 8794   3.766   0.733   9.278 -1.1218  0.0339 -1.1521
   90SAPS  C314 8795   3.716   0.901   9.150 -0.3619  0.2661 -0.4187
   90SAPS  H14X 8796   3.774   0.991   9.122  0.1008  0.0722 -0.0875
   90SAPS  H14Y 8797   3.621   0.940   9.192  0.2278 -1.2811  2.6611
   90SAPS  C315 8798   3.693   0.803   9.041 -0.0427  0.8579  0.2879
   90SAPS  H15X 8799   3.637   0.714   9.077 -0.0334  0.7203 -0.0364
   90SAPS  H15Y 8800   3.784   0.761   8.993 -1.0840  2.2913 -3.2520
   90SAPS  C316 8801   3.604   0.873   8.939 -0.0313 -0.4078 -0.1438
   90SAPS  H16X 8802   3.663   0.957   8.897  0.8572 -0.7122  0.4619
   90SAPS  H16Y 8803   3.515   0.920   8.986 -0.1228  1.8938 -2.3982
   90SAPS  C317 8804   3.554   0.788   8.817 -0.3285  0.4189  0.0546
   90SAPS  H17X 8805   3.453   0.747   8.834 -1.3769  2.5469 -0.7449
   90SAPS  H17Y 8806   3.610   0.694   8.796 -0.0557  0.4224  0.7200
   90SAPS  C318 8807   3.549   0.864   8.681  0.3348  0.5379 -0.3986
   90SAPS  H18X 8808   3.654   0.870   8.648  0.4195  0.1454 -0.2102
   90SAPS  H18Y 8809   3.500   0.963   8.684 -0.3012  0.2072  1.0831
   90SAPS  H18Z 8810   3.505   0.803   8.599  1.9397  1.5867 -2.0886
   91SAPS     N 8811   2.221   0.154   5.793  0.3238  0.2981  0.3003
   91SAPS   HN1 8812   2.191   0.176   5.890  0.4618  2.3262 -0.0820
   91SAPS   HN2 8813   2.230   0.237   5.731 -0.2425  1.1123  1.2802
   91SAPS   HN3 8814   2.149   0.094   5.747  1.2943  0.5828 -1.6920
   91SAPS   C12 8815   2.345   0.063   5.780  0.2364 -0.4955  0.2020
   91SAPS  H12A 8816   2.319  -0.035   5.818 -0.7508 -1.2265 -2.1715
   91SAPS   C13 8817   2.392   0.046   5.637 -0.2021 -0.7750  0.4998
   91SAPS  O13A 8818   2.335   0.102   5.542 -0.0906 -0.0865  0.4379
   91SAPS  O13B 8819   2.504  -0.010   5.628  0.4244  0.1064 -0.2469
   91SAPS   C11 8820   2.459   0.115   5.867 -0.3447 -0.6834  0.8287
   91SAPS  H11A 8821   2.493   0.210   5.821  0.4397 -1.3484  0.0288
   91SAPS  H11B 8822   2.534   0.034   5.859 -0.0974 -0.2316 -2.6127
   91SAPS     P 8823   2.489   0.186   6.110  0.0554  0.4018 -0.1450
   91SAPS   O13 8824   2.618   0.114   6.121 -0.2723  0.4282  0.1103
   91SAPS   O14 8825   2.479   0.332   6.097  0.2584  0.0177  0.0799
   91SAPS   O12 8826   2.407   0.126   5.999  0.2611 -0.3240  0.4677
   91SAPS   O11 8827   2.392   0.145   6.233 -0.1387  0.6124 -0.5186
   91SAPS    C1 8828   2.359   0.250   6.328 -0.2426 -0.1176  0.3882
   91SAPS    HA 8829   2.314   0.342   6.284  1.1884  0.0566 -0.8093
   91SAPS    HB 8830   2.287   0.206   6.400 -1.4307  0.6782 -0.2714
   91SAPS    C2 8831   2.483   0.281   6.423  0.1870 -0.0031 -0.2475
   91SAPS    HS 8832   2.552   0.345   6.364  1.0390 -0.2122  0.4891
   91SAPS   O21 8833   2.529   0.155   6.478  0.2850  0.2147 -0.1576
   91SAPS   C21 8834   2.656   0.146   6.510  0.4182 -0.3502 -0.2331
   91SAPS   O22 8835   2.739   0.232   6.476 -0.1968  0.6250  0.1195
   91SAPS   C22 8836   2.683   0.021   6.589  0.2714 -0.5983 -0.2112
   91SAPS   H2R 8837   2.646   0.035   6.692  0.3335  0.5785 -0.3443
   91SAPS   H2S 8838   2.643  -0.066   6.531  2.2573  0.2022 -3.0099
   91SAPS    C3 8839   2.434   0.369   6.541 -0.1616  0.1214 -0.5849
   91SAPS    HX 8840   2.368   0.302   6.599  0.5966  0.7253  1.0515
   91SAPS    HY 8841   2.375   0.455   6.501 -2.2171  0.2191  2.3333
   91SAPS   O31 8842   2.530   0.398   6.640  0.5376  0.3566  0.3299
   91SAPS   C31 8843   2.620   0.483   6.618 -0.5712 -0.2857  0.5970
   91SAPS   O32 8844   2.628   0.561   6.522 -0.4486 -0.0487  0.0307
   91SAPS   C32 8845   2.716   0.493   6.744  0.4567 -0.5137  0.0394
   91SAPS   H2X 8846   2.654   0.521   6.832 -0.5093 -1.2418 -0.3945
   91SAPS   H2Y 8847   2.775   0.584   6.719  0.5607  0.2602  2.7340
   91SAPS   C23 8848   2.836  -0.009   6.590 -0.0953 -0.0128  0.0269
   91SAPS   H3R 8849   2.899   0.079   6.617 -0.5976  0.8565 -1.4895
   91SAPS   H3S 8850   2.861  -0.036   6.485 -3.0242 -0.0568 -0.7321
   91SAPS   C24 8851   2.883  -0.135   6.668 -0.5589  0.5752  0.1565
   91SAPS   H4R 8852   2.975  -0.176   6.622 -1.9894 -2.5413 -0.1392
   91SAPS   H4S 8853   2.807  -0.215   6.657 -0.3535 -0.1964  3.2447
   91SAPS   C25 8854   2.918  -0.100   6.806 -0.3944 -0.0056 -0.2435
   91SAPS   H5R 8855   2.997  -0.024   6.818  0.2387 -0.9924  2.7732
   91SAPS   C26 8856   2.844  -0.121   6.915 -0.2618  0.3533 -0.3070
   91SAPS   H6R 8857   2.896  -0.092   7.008  0.3668  0.4339 -0.6742
   91SAPS   C27 8858   2.718  -0.213   6.929  0.5948  0.1415  0.3183
   91SAPS   H7R 8859   2.739  -0.321   6.943  0.8727  0.0809 -0.5179
   91SAPS   H7S 8860   2.663  -0.201   6.834  1.7147 -1.7762 -0.6323
   91SAPS   C28 8861   2.618  -0.146   7.036 -0.2858  0.0420  0.0934
   91SAPS   H8R 8862   2.584  -0.044   7.014 -0.4759 -0.2778 -1.2200
   91SAPS   C29 8863   2.571  -0.198   7.151  0.3350  0.6096  0.6152
   91SAPS   H9R 8864   2.503  -0.144   7.219 -0.4019  2.7608 -1.6603
   91SAPS  C210 8865   2.599  -0.339   7.202 -0.2101 -0.2167  0.1252
   91SAPS  H10R 8866   2.633  -0.331   7.307  1.0331  0.8612 -0.3228
   91SAPS  H10S 8867   2.675  -0.388   7.137 -0.6943 -0.8780  0.0415
   91SAPS  C211 8868   2.472  -0.420   7.205  0.2980  0.9287  0.6703
   91SAPS  H11R 8869   2.459  -0.480   7.114  1.3454  1.3229  0.2381
   91SAPS  C212 8870   2.393  -0.459   7.307 -0.5430  0.5368  0.3931
   91SAPS  H12R 8871   2.306  -0.521   7.282  0.4001 -0.4536 -0.5280
   91SAPS  C213 8872   2.428  -0.422   7.457  0.5416  0.3293  0.2570
   91SAPS  H13R 8873   2.536  -0.406   7.475  0.6515 -1.1318  1.0411
   91SAPS  H13S 8874   2.396  -0.505   7.524 -1.3206  1.2659  0.5966
   91SAPS  C214 8875   2.365  -0.295   7.498  0.0298  0.0417 -0.1137
   91SAPS  H14R 8876   2.339  -0.226   7.416  0.2925  1.0521  0.6269
   91SAPS  C215 8877   2.339  -0.268   7.628  0.2149  0.5397  1.2025
   91SAPS  H15R 8878   2.283  -0.177   7.655  0.1565 -0.1848  3.7501
   91SAPS  C216 8879   2.362  -0.370   7.741 -0.1034 -0.2104  0.0014
   91SAPS  H16R 8880   2.457  -0.427   7.736  0.1719  0.0939  1.3987
   91SAPS  H16S 8881   2.271  -0.434   7.741 -0.6761  0.5755  0.6491
   91SAPS  C217 8882   2.369  -0.310   7.888  0.1868 -0.3101 -0.5953
   91SAPS  H17R 8883   2.423  -0.386   7.948 -1.7010 -0.0987  1.4917
   91SAPS  H17S 8884   2.270  -0.283   7.932  0.0317 -2.2141  0.3495
   91SAPS  C218 8885   2.460  -0.186   7.894  0.2200  0.3250  0.4890
   91SAPS  H18R 8886   2.460  -0.132   7.797  1.7665 -0.2675  0.1366
   91SAPS  H18S 8887   2.564  -0.224   7.898  0.1051  0.1087  2.0329
   91SAPS  C219 8888   2.430  -0.090   7.997  0.2150 -0.3484  0.0118
   91SAPS  H19R 8889   2.342  -0.031   7.963  1.3945  1.7384  0.4028
   91SAPS  H19S 8890   2.509  -0.013   8.009 -0.2975  0.0049  1.2607
   91SAPS  C220 8891   2.418  -0.133   8.143 -0.5152 -0.0166 -0.1048
   91SAPS  H20R 8892   2.352  -0.221   8.159 -0.1731 -0.3066 -0.2567
   91SAPS  H20S 8893   2.387  -0.044   8.202  0.2561  1.1656 -1.3953
   91SAPS  H20T 8894   2.516  -0.168   8.182 -1.0654 -1.9749 -0.3579
   91SAPS   C33 8895   2.812   0.379   6.774  0.6210  0.3533 -0.1630
   91SAPS   H3X 8896   2.901   0.419   6.827  0.8285  0.6120 -0.7051
   91SAPS   H3Y 8897   2.856   0.324   6.689  0.9057  1.4502 -0.7377
   91SAPS   C34 8898   2.755   0.275   6.866 -0.2835  0.2362  0.3365
   91SAPS   H4X 8899   2.816   0.182   6.876 -0.7492 -0.1563 -0.4293
   91SAPS   H4Y 8900   2.652   0.249   6.833 -0.2688  0.1727  0.3396
   91SAPS   C35 8901   2.757   0.325   7.002  0.5948 -0.5831 -0.0712
   91SAPS   H5X 8902   2.690   0.413   6.992  0.6117 -0.5923 -0.2706
   91SAPS   H5Y 8903   2.862   0.354   7.026  0.3567  0.0849  0.2050
   91SAPS   C36 8904   2.699   0.232   7.109 -0.1321  0.2296 -0.2822
   91SAPS   H6X 8905   2.756   0.137   7.109 -0.0067  0.2561 -2.1292
   91SAPS   H6Y 8906   2.598   0.201   7.075 -0.6579  0.1284  1.3273
   91SAPS   C37 8907   2.672   0.285   7.250 -0.0838 -0.7498  0.1861
   91SAPS   H7X 8908   2.598   0.366   7.237  0.4430 -0.5500 -1.8737
   91SAPS   H7Y 8909   2.770   0.320   7.290  1.4387 -2.0242 -2.1670
   91SAPS   C38 8910   2.600   0.187   7.345 -0.4493  1.1104  0.1538
   91SAPS   H8X 8911   2.668   0.099   7.349 -0.3543  1.0990 -1.1700
   91SAPS   H8Y 8912   2.516   0.151   7.283  1.2201  0.0257 -1.5879
   91SAPS   C39 8913   2.559   0.245   7.481 -0.2377 -0.4360 -0.4858
   91SAPS   H9X 8914   2.516   0.346   7.463 -0.8069 -0.5799  0.0160
   91SAPS   H9Y 8915   2.653   0.260   7.538  1.0196 -0.0916 -2.5341
   91SAPS  C310 8916   2.463   0.162   7.569 -0.0873 -0.6404  0.0325
   91SAPS  H10X 8917   2.506   0.061   7.589  0.5911 -0.0918  1.5139
   91SAPS  H10Y 8918   2.367   0.143   7.516 -0.4636 -2.1532  1.1623
   91SAPS  C311 8919   2.418   0.229   7.701 -0.8008  0.8168  0.0686
   91SAPS  H11X 8920   2.392   0.336   7.695 -0.8068  0.8863  1.1770
   91SAPS  H11Y 8921   2.489   0.200   7.781 -1.1429 -2.9515 -0.7935
   91SAPS  C312 8922   2.279   0.171   7.742 -0.0529  0.5719 -0.1327
   91SAPS  H12X 8923   2.295   0.063   7.760  0.7855  0.7481  0.2306
   91SAPS  H12Y 8924   2.208   0.186   7.658  0.5076 -1.1766 -0.9644
   91SAPS  C313 8925   2.235   0.222   7.877 -0.5685  0.4985 -0.5295
   91SAPS  H13X 8926   2.226   0.332   7.868  3.0915  1.1913  2.0668
   91SAPS  H13Y 8927   2.317   0.200   7.950 -0.6943  1.3892 -0.1031
   91SAPS  C314 8928   2.098   0.167   7.921 -0.1242  0.3973  0.6776
   91SAPS  H14X 8929   2.117   0.058   7.934 -0.6450  0.5059  2.5173
   91SAPS  H14Y 8930   2.017   0.188   7.847 -1.9785  0.1164  2.5222
   91SAPS  C315 8931   2.060   0.231   8.058  0.1641  0.3206  0.1206
   91SAPS  H15X 8932   2.028   0.336   8.044 -2.5526 -0.0307  2.7857
   91SAPS  H15Y 8933   2.148   0.221   8.125  0.9381 -0.2387 -0.9383
   91SAPS  C316 8934   1.930   0.165   8.116 -0.3091  0.5685 -0.1952
   91SAPS  H16X 8935   1.949   0.056   8.117  1.3439  0.7662 -2.2248
   91SAPS  H16Y 8936   1.850   0.183   8.042  0.3081  0.4997 -0.8928
   91SAPS  C317 8937   1.890   0.228   8.249 -0.1903  0.6107  0.1860
   91SAPS  H17X 8938   1.785   0.202   8.273 -1.0969  3.5956 -0.2130
   91SAPS  H17Y 8939   1.898   0.338   8.235  2.1129  0.4273 -0.2869
   91SAPS  C318 8940   1.992   0.188   8.364  0.5054 -0.1861  0.5732
   91SAPS  H18X 8941   2.101   0.205   8.347  0.4818 -0.9169 -0.3989
   91SAPS  H18Y 8942   1.978   0.080   8.387  0.2718 -0.3833 -0.4600
   91SAPS  H18Z 8943   1.972   0.251   8.453 -0.5686 -1.3634  1.2055
   92SAPS     N 8944   1.041   3.272   6.290 -0.0118  0.2286 -0.3286
   92SAPS   HN1 8945   0.971   3.297   6.362 -0.8539  0.6357 -1.2619
   92SAPS   HN2 8946   1.095   3.185   6.306 -0.5787  0.0152  0.4889
   92SAPS   HN3 8947   1.118   3.342   6.290 -0.3779  0.6383 -0.3394
   92SAPS   C12 8948   0.966   3.265   6.160 -0.2664  0.0449 -0.0408
   92SAPS  H12A 8949   0.925   3.358   6.126 -1.1634  0.3927  1.8347
   92SAPS   C13 8950   1.045   3.198   6.043  0.1306  0.0407 -0.3200
   92SAPS  O13A 8951   1.156   3.155   6.065 -0.7752 -0.2604  0.1392
   92SAPS  O13B 8952   1.000   3.223   5.926 -0.7461 -0.2777 -0.5586
   92SAPS   C11 8953   0.845   3.168   6.174 -0.5611 -0.8650 -0.3996
   92SAPS  H11A 8954   0.880   3.074   6.222 -0.1520 -1.3487 -1.6228
   92SAPS  H11B 8955   0.810   3.134   6.074 -3.3432  0.7269 -0.0841
   92SAPS     P 8956   0.618   3.150   6.303 -0.5801  0.1649 -0.3865
   92SAPS   O13 8957   0.532   3.230   6.395  0.4182 -0.0176  0.1510
   92SAPS   O14 8958   0.554   3.076   6.193  0.1427 -0.1751 -0.0887
   92SAPS   O12 8959   0.740   3.239   6.248  0.2613  0.3375 -0.7062
   92SAPS   O11 8960   0.694   3.043   6.389 -0.4749 -0.3174  0.4224
   92SAPS    C1 8961   0.732   3.077   6.524  0.2039  0.2302  0.7099
   92SAPS    HA 8962   0.753   3.185   6.535 -0.1477  0.5031 -1.0082
   92SAPS    HB 8963   0.649   3.067   6.597 -1.4599  0.1390 -1.1068
   92SAPS    C2 8964   0.857   2.980   6.562 -0.6083 -0.8129  0.3048
   92SAPS    HS 8965   0.842   2.943   6.665  1.4202  0.6903  1.1930
   92SAPS   O21 8966   0.984   3.052   6.573  0.2354 -0.1310 -0.5056
   92SAPS   C21 8967   0.976   3.149   6.661  0.2614  0.4694 -0.3452
   92SAPS   O22 8968   0.882   3.177   6.735  0.3161 -0.5162 -0.0846
   92SAPS   C22 8969   1.119   3.213   6.673  0.0763 -0.2768 -0.5587
   92SAPS   H2R 8970   1.188   3.135   6.711 -0.3186 -1.1030 -1.4849
   92SAPS   H2S 8971   1.137   3.248   6.569  1.9329  2.4759  0.5735
   92SAPS    C3 8972   0.868   2.856   6.464 -0.5285  0.3593 -0.4419
   92SAPS    HX 8973   0.939   2.876   6.381 -0.7926  2.9386 -0.1354
   92SAPS    HY 8974   0.770   2.821   6.425  0.1529 -2.2168 -0.0794
   92SAPS   O31 8975   0.925   2.750   6.547  0.5497  0.2531 -0.5639
   92SAPS   C31 8976   0.938   2.634   6.497  0.1356 -0.1648  0.0030
   92SAPS   O32 8977   0.934   2.608   6.374  0.3922 -0.0453  0.0455
   92SAPS   C32 8978   0.963   2.533   6.609  0.2802  0.4544  0.5433
   92SAPS   H2X 8979   1.049   2.553   6.676 -0.0812  0.4877  1.0048
   92SAPS   H2Y 8980   0.991   2.440   6.554  0.2938  0.9116 -0.2273
   92SAPS   C23 8981   1.110   3.328   6.764  0.1240 -1.0838 -0.9015
   92SAPS   H3R 8982   1.058   3.308   6.860  0.2333  1.1183 -0.3151
   92SAPS   H3S 8983   1.062   3.418   6.721 -0.6199 -0.8139  0.4409
   92SAPS   C24 8984   1.252   3.371   6.804  0.0669  0.1264 -0.7767
   92SAPS   H4R 8985   1.245   3.471   6.853  2.8733  0.3396 -0.6531
   92SAPS   H4S 8986   1.305   3.392   6.709 -1.3681  2.4165 -1.1679
   92SAPS   C25 8987   1.323   3.276   6.890 -0.0794  0.2256 -0.1151
   92SAPS   H5R 8988   1.384   3.206   6.830  0.2718  1.7574 -1.6363
   92SAPS   C26 8989   1.320   3.263   7.023 -0.2294 -0.0955 -0.3576
   92SAPS   H6R 8990   1.380   3.185   7.073  2.7910  2.3702  0.1555
   92SAPS   C27 8991   1.248   3.353   7.116 -0.1127 -0.1990  0.2765
   92SAPS   H7R 8992   1.161   3.302   7.162 -2.2389  2.0021 -1.0886
   92SAPS   H7S 8993   1.211   3.442   7.061  1.2759 -0.2960 -0.8879
   92SAPS   C28 8994   1.338   3.394   7.227  0.3825 -0.7995 -0.5279
   92SAPS   H8R 8995   1.399   3.484   7.207 -0.1022 -0.4049 -0.2465
   92SAPS   C29 8996   1.350   3.350   7.354  0.3414 -0.2342  1.4126
   92SAPS   H9R 8997   1.432   3.392   7.415  1.4709  0.0247 -0.2086
   92SAPS  C210 8998   1.268   3.243   7.426 -0.0474 -0.2594 -0.0712
   92SAPS  H10R 8999   1.189   3.199   7.361  1.1444 -0.8862 -1.1425
   92SAPS  H10S 9000   1.217   3.293   7.511 -2.0158 -2.2392  0.0069
   92SAPS  C211 9001   1.363   3.138   7.480  1.0793  0.0749 -0.8817
   92SAPS  H11R 9002   1.367   3.047   7.418  0.6876 -0.4167 -0.1976
   92SAPS  C212 9003   1.432   3.146   7.595  0.1989 -0.7091  0.4161
   92SAPS  H12R 9004   1.488   3.058   7.632  1.3568 -1.1974 -2.2414
   92SAPS  C213 9005   1.433   3.272   7.687  0.0047 -0.1155  0.1745
   92SAPS  H13R 9006   1.430   3.365   7.626 -0.1160  0.3689  0.9005
   92SAPS  H13S 9007   1.530   3.274   7.742  0.0098  1.4388  0.1465
   92SAPS  C214 9008   1.319   3.289   7.784  0.5863  0.3649  0.0669
   92SAPS  H14R 9009   1.226   3.318   7.733 -0.6691 -2.5102  0.5196
   92SAPS  C215 9010   1.311   3.279   7.918 -0.5661 -0.3069 -0.4557
   92SAPS  H15R 9011   1.227   3.320   7.976  0.4170  2.9119 -1.1031
   92SAPS  C216 9012   1.421   3.233   8.002 -0.2010 -0.0906 -0.4213
   92SAPS  H16R 9013   1.491   3.168   7.945 -0.1605 -0.6418  0.2481
   92SAPS  H16S 9014   1.381   3.171   8.085  1.4193  0.7543  1.0495
   92SAPS  C217 9015   1.509   3.342   8.060  0.1510 -0.6294 -0.0978
   92SAPS  H17R 9016   1.531   3.412   7.976  0.4720  0.2910  0.7391
   92SAPS  H17S 9017   1.601   3.299   8.105 -1.2553 -1.1258  2.4542
   92SAPS  C218 9018   1.440   3.428   8.170  0.1100  0.5768 -0.2579
   92SAPS  H18R 9019   1.339   3.463   8.141 -0.9385 -1.4579  0.7449
   92SAPS  H18S 9020   1.501   3.518   8.195 -0.8473  1.5939 -1.4072
   92SAPS  C219 9021   1.429   3.348   8.310  0.3471  0.1885  0.2228
   92SAPS  H19R 9022   1.531   3.331   8.350  0.2687 -0.9411 -0.0090
   92SAPS  H19S 9023   1.370   3.257   8.288 -0.3318  1.1466 -2.3234
   92SAPS  C220 9024   1.346   3.431   8.412 -0.2745  0.7846 -0.7015
   92SAPS  H20R 9025   1.407   3.516   8.449  0.2163  0.8216 -1.5686
   92SAPS  H20S 9026   1.326   3.361   8.496  0.1058 -1.1801 -2.1811
   92SAPS  H20T 9027   1.245   3.468   8.384 -1.5973  0.2742  2.8260
   92SAPS   C33 9028   0.836   2.499   6.688 -0.3915  0.3636  0.0279
   92SAPS   H3X 9029   0.761   2.439   6.632 -0.6481 -1.3012  2.0319
   92SAPS   H3Y 9030   0.788   2.593   6.723  0.4843 -0.0244  2.4658
   92SAPS   C34 9031   0.881   2.401   6.807  0.2782  0.3728  0.3035
   92SAPS   H4X 9032   0.961   2.331   6.776  2.1935  1.4462  2.5120
   92SAPS   H4Y 9033   0.785   2.349   6.830  1.7466 -2.8837 -0.3753
   92SAPS   C35 9034   0.932   2.475   6.928  0.0319  0.6489  0.1334
   92SAPS   H5X 9035   0.929   2.586   6.917 -0.9066  0.5654 -0.6203
   92SAPS   H5Y 9036   1.041   2.456   6.926  0.4529  1.9040  3.8613
   92SAPS   C36 9037   0.862   2.424   7.056  0.1426 -0.0339  0.3264
   92SAPS   H6X 9038   0.870   2.313   7.053 -0.6168 -0.1520  1.6789
   92SAPS   H6Y 9039   0.755   2.450   7.047  0.7364  2.8323  0.7580
   92SAPS   C37 9040   0.915   2.473   7.187  0.1446  0.3395 -0.5189
   92SAPS   H7X 9041   0.911   2.584   7.185  3.4823  0.9316  4.9919
   92SAPS   H7Y 9042   1.023   2.445   7.183 -0.1103 -0.6597 -0.5100
   92SAPS   C38 9043   0.846   2.414   7.303  0.2270 -0.1719 -0.1337
   92SAPS   H8X 9044   0.884   2.320   7.348  0.2499  0.2583  0.7673
   92SAPS   H8Y 9045   0.737   2.401   7.286  0.0308 -0.8780  1.4139
   92SAPS   C39 9046   0.862   2.518   7.415 -0.0449  0.5567 -0.3144
   92SAPS   H9X 9047   0.805   2.608   7.384 -1.4171 -0.1751  0.0186
   92SAPS   H9Y 9048   0.971   2.540   7.409  0.0270  0.1180 -0.7489
   92SAPS  C310 9049   0.798   2.470   7.549 -0.3229 -0.6976  0.2499
   92SAPS  H10X 9050   0.863   2.386   7.581  2.3600  0.8594 -0.8400
   92SAPS  H10Y 9051   0.692   2.441   7.529 -0.8273 -0.7679  2.6876
   92SAPS  C311 9052   0.809   2.574   7.664 -0.4806  0.4469 -0.0354
   92SAPS  H11X 9053   0.723   2.645   7.661 -1.6162 -0.9179 -1.1643
   92SAPS  H11Y 9054   0.900   2.631   7.637  0.4876 -0.1821  1.7644
   92SAPS  C312 9055   0.812   2.512   7.802  0.0755  0.1347 -0.3369
   92SAPS  H12X 9056   0.893   2.436   7.799  0.5241  0.5682  0.5340
   92SAPS  H12Y 9057   0.710   2.472   7.823 -0.0366 -0.5156 -1.9481
   92SAPS  C313 9058   0.836   2.617   7.915 -0.0590 -0.4631  0.4076
   92SAPS  H13X 9059   0.805   2.710   7.863  0.5223 -1.4413 -1.8215
   92SAPS  H13Y 9060   0.944   2.631   7.936 -0.0902  1.7459 -0.5486
   92SAPS  C314 9061   0.753   2.608   8.041 -0.5168 -0.0670 -0.2333
   92SAPS  H14X 9062   0.758   2.503   8.076 -0.9023 -0.3422 -0.9629
   92SAPS  H14Y 9063   0.654   2.646   8.008 -0.3075 -0.3926 -1.3127
   92SAPS  C315 9064   0.794   2.711   8.152 -0.5806  0.2330  0.3467
   92SAPS  H15X 9065   0.788   2.809   8.102 -2.5821 -0.3124 -0.5859
   92SAPS  H15Y 9066   0.899   2.702   8.187  0.4969 -0.5520 -2.7562
   92SAPS  C316 9067   0.700   2.696   8.277 -0.5887 -0.3088  0.5426
   92SAPS  H16X 9068   0.751   2.634   8.353 -0.0455 -0.7804 -0.1956
   92SAPS  H16Y 9069   0.606   2.644   8.248  1.3613 -3.0129 -1.5029
   92SAPS  C317 9070   0.665   2.841   8.322  0.3506 -0.0085 -0.6830
   92SAPS  H17X 9071   0.627   2.898   8.234  0.0558  0.7293 -0.0940
   92SAPS  H17Y 9072   0.759   2.892   8.352  1.3404 -3.1523  2.1260
   92SAPS  C318 9073   0.552   2.836   8.434 -0.2811 -1.1681 -0.3093
   92SAPS  H18X 9074   0.454   2.803   8.391  0.2719 -2.1355 -0.8646
   92SAPS  H18Y 9075   0.537   2.941   8.469  2.4858  0.2821 -2.9661
   92SAPS  H18Z 9076   0.576   2.779   8.526  0.9909  0.9610  0.7444
   93SAPS     N 9077   0.276   5.676   6.154 -0.0773  0.3345  0.0969
   93SAPS   HN1 9078   0.323   5.719   6.235 -1.0009  1.2221  0.1683
   93SAPS   HN2 9079   0.324   5.583   6.146 -0.8851 -0.0596 -0.3367
   93SAPS   HN3 9080   0.300   5.733   6.070 -1.3328 -0.0940 -0.5860
   93SAPS   C12 9081   0.129   5.647   6.165  0.1315 -0.0621 -0.1574
   93SAPS  H12A 9082   0.084   5.738   6.131  1.5768  0.5539 -0.5050
   93SAPS   C13 9083   0.082   5.534   6.071 -0.3775 -0.1838  0.1346
   93SAPS  O13A 9084   0.161   5.458   6.011  0.2590  0.5447  0.0134
   93SAPS  O13B 9085  -0.041   5.506   6.084  0.0181 -0.1984  0.3759
   93SAPS   C11 9086   0.081   5.624   6.316 -0.3875  0.8249  0.2401
   93SAPS  H11A 9087  -0.029   5.627   6.312 -0.5278 -2.1542 -0.9173
   93SAPS  H11B 9088   0.121   5.710   6.375  0.8597  0.8460 -0.5925
   93SAPS     P 9089   0.259   5.464   6.443  0.5818  0.1445  0.3324
   93SAPS   O13 9090   0.247   5.336   6.512 -0.0917  0.1953  0.1566
   93SAPS   O14 9091   0.367   5.469   6.348  0.5135 -0.4602 -0.1789
   93SAPS   O12 9092   0.122   5.497   6.368 -0.7016  0.3179  0.1311
   93SAPS   O11 9093   0.261   5.579   6.550 -1.1441  0.5735 -0.0473
   93SAPS    C1 9094   0.372   5.587   6.647  0.4464 -0.2211 -0.2479
   93SAPS    HA 9095   0.460   5.545   6.594  0.4036 -0.4743 -0.1186
   93SAPS    HB 9096   0.396   5.693   6.671 -1.6133  0.4191 -0.8009
   93SAPS    C2 9097   0.343   5.521   6.789 -1.4957 -0.2374  0.1703
   93SAPS    HS 9098   0.301   5.419   6.777  0.5539 -1.0097 -0.9777
   93SAPS   O21 9099   0.249   5.601   6.856 -0.2309  0.2112  0.5262
   93SAPS   C21 9100   0.162   5.548   6.939  0.2974 -0.0261 -0.0083
   93SAPS   O22 9101   0.140   5.431   6.954  0.1034 -0.1761  0.2577
   93SAPS   C22 9102   0.094   5.666   7.018  0.7845 -0.0553 -0.0097
   93SAPS   H2R 9103   0.165   5.709   7.092  0.4948 -0.8209  0.7301
   93SAPS   H2S 9104   0.067   5.742   6.941  0.0637  0.6345  0.8983
   93SAPS    C3 9105   0.481   5.519   6.864 -0.6236 -0.5780 -0.8432
   93SAPS    HX 9106   0.540   5.612   6.854 -1.9004  0.1076 -2.5182
   93SAPS    HY 9107   0.548   5.445   6.816 -1.3026 -0.9062 -1.3077
   93SAPS   O31 9108   0.459   5.492   7.005  0.8722  0.2746  0.8822
   93SAPS   C31 9109   0.476   5.366   7.045 -0.5823  0.7209  1.1656
   93SAPS   O32 9110   0.516   5.272   6.976  0.1738  0.0357  0.3329
   93SAPS   C32 9111   0.445   5.355   7.193 -0.9723 -0.8465 -1.0549
   93SAPS   H2X 9112   0.403   5.448   7.239 -0.6798 -0.9990 -0.4802
   93SAPS   H2Y 9113   0.541   5.333   7.243  0.6570  1.2841 -3.0441
   93SAPS   C23 9114  -0.040   5.628   7.085  0.1380  0.2853  0.4650
   93SAPS   H3R 9115  -0.106   5.582   7.008 -1.0158 -0.0347  1.6022
   93SAPS   H3S 9116  -0.089   5.725   7.107 -0.3802  0.1667 -0.1446
   93SAPS   C24 9117  -0.014   5.553   7.213 -0.2777  0.6435  0.0905
   93SAPS   H4R 9118   0.062   5.613   7.266  0.2099  1.1072 -1.0967
   93SAPS   H4S 9119   0.031   5.453   7.193 -0.4645  0.1648  1.8654
   93SAPS   C25 9120  -0.139   5.530   7.287  0.0438  0.1313 -0.4619
   93SAPS   H5R 9121  -0.218   5.480   7.229 -1.4229 -0.0585  1.6130
   93SAPS   C26 9122  -0.158   5.558   7.416 -0.1570 -0.2736 -0.3681
   93SAPS   H6R 9123  -0.254   5.531   7.464  0.5957  0.0779  1.4084
   93SAPS   C27 9124  -0.046   5.622   7.498  0.3721 -0.3362  0.4164
   93SAPS   H7R 9125  -0.005   5.710   7.444 -0.4258  0.2428  0.7366
   93SAPS   H7S 9126   0.030   5.544   7.521 -2.4711 -2.8267  2.0761
   93SAPS   C28 9127  -0.097   5.673   7.627 -0.5971 -0.5379  0.3398
   93SAPS   H8R 9128  -0.128   5.778   7.621  0.3848 -0.2234  0.5069
   93SAPS   C29 9129  -0.120   5.606   7.741  0.3075 -0.8768 -0.4827
   93SAPS   H9R 9130  -0.161   5.660   7.827  2.0957  1.6776 -1.1098
   93SAPS  C210 9131  -0.099   5.462   7.757 -0.2189  0.5530  1.0653
   93SAPS  H10R 9132   0.006   5.435   7.778 -1.0112 -2.5275  1.5439
   93SAPS  H10S 9133  -0.110   5.412   7.659  1.3601  1.8159  0.2019
   93SAPS  C211 9134  -0.185   5.391   7.862  0.4201 -0.1842  0.1443
   93SAPS  H11R 9135  -0.120   5.359   7.945 -0.6124  1.8438  1.8520
   93SAPS  C212 9136  -0.317   5.369   7.865  0.1872  0.5200  0.2315
   93SAPS  H12R 9137  -0.358   5.319   7.954 -0.0790  1.8963  0.9083
   93SAPS  C213 9138  -0.418   5.404   7.757  0.1083 -0.0606  0.2641
   93SAPS  H13R 9139  -0.369   5.453   7.669 -1.2707  0.4074 -0.2714
   93SAPS  H13S 9140  -0.487   5.484   7.791 -1.4744 -2.0100  1.9166
   93SAPS  C214 9141  -0.502   5.282   7.718  0.6730 -0.5795 -0.5444
   93SAPS  H14R 9142  -0.453   5.204   7.657  1.6297 -1.0833  0.8118
   93SAPS  C215 9143  -0.621   5.263   7.766  0.1661 -0.1542  0.5307
   93SAPS  H15R 9144  -0.684   5.178   7.738 -2.6568  1.4352  1.5936
   93SAPS  C216 9145  -0.697   5.341   7.875 -1.0131 -0.2009  0.2126
   93SAPS  H16R 9146  -0.806   5.347   7.852 -1.6330 -2.0540  2.3510
   93SAPS  H16S 9147  -0.669   5.447   7.889 -1.3305 -0.1983  0.8528
   93SAPS  C217 9148  -0.689   5.259   8.000  0.6854  0.8123 -0.4707
   93SAPS  H17R 9149  -0.586   5.259   8.041  0.6593  0.2281 -0.3954
   93SAPS  H17S 9150  -0.718   5.153   7.981 -2.3253  1.4224  0.2178
   93SAPS  C218 9151  -0.784   5.307   8.106  0.1570  0.0585  0.3179
   93SAPS  H18R 9152  -0.886   5.285   8.067  0.5728 -0.6801 -0.4066
   93SAPS  H18S 9153  -0.779   5.415   8.132 -0.9945 -0.3564  2.4639
   93SAPS  C219 9154  -0.762   5.228   8.236 -0.5482 -0.2815 -0.3289
   93SAPS  H19R 9155  -0.653   5.239   8.254 -0.7086  1.7290 -0.3428
   93SAPS  H19S 9156  -0.784   5.122   8.211  2.7242 -1.1447 -0.0227
   93SAPS  C220 9157  -0.838   5.273   8.352  0.1275 -0.3561  0.2703
   93SAPS  H20R 9158  -0.808   5.380   8.351  0.7531 -0.5251 -0.1627
   93SAPS  H20S 9159  -0.799   5.236   8.449 -1.1197  2.2368  1.8672
   93SAPS  H20T 9160  -0.948   5.264   8.342  0.3380 -2.1261 -0.9340
   93SAPS   C33 9161   0.341   5.244   7.218  0.0564  0.1513 -0.7108
   93SAPS   H3X 9162   0.376   5.149   7.174  1.0067 -0.2248  0.7913
   93SAPS   H3Y 9163   0.254   5.282   7.160  1.4017 -0.7553 -3.5136
   93SAPS   C34 9164   0.313   5.237   7.371  0.6553 -0.0404 -0.3453
   93SAPS   H4X 9165   0.208   5.210   7.396  0.3467 -0.6943 -2.1355
   93SAPS   H4Y 9166   0.330   5.339   7.411  1.8877  0.6120 -2.3896
   93SAPS   C35 9167   0.402   5.130   7.434 -0.7591  0.8583 -0.7703
   93SAPS   H5X 9168   0.505   5.169   7.423 -1.1725  1.4922 -2.9139
   93SAPS   H5Y 9169   0.399   5.043   7.365  0.9249  1.0040 -1.0573
   93SAPS   C36 9170   0.356   5.093   7.579  0.2388  0.7065  0.5545
   93SAPS   H6X 9171   0.424   5.015   7.621  1.6613  1.0969 -0.9383
   93SAPS   H6Y 9172   0.262   5.035   7.576  2.1463 -2.6817  1.6954
   93SAPS   C37 9173   0.338   5.219   7.676  0.6175  0.0657  0.0187
   93SAPS   H7X 9174   0.276   5.296   7.625 -2.9535 -2.8846 -0.5511
   93SAPS   H7Y 9175   0.440   5.259   7.688  0.7117 -0.5708  1.6457
   93SAPS   C38 9176   0.267   5.182   7.815  0.6030 -0.7136  0.7273
   93SAPS   H8X 9177   0.309   5.085   7.850 -2.2614 -1.9887  0.9506
   93SAPS   H8Y 9178   0.162   5.156   7.787  0.3433  1.5296 -0.6793
   93SAPS   C39 9179   0.264   5.290   7.928 -0.5650 -0.5358 -0.0362
   93SAPS   H9X 9180   0.218   5.385   7.892  1.1826 -0.2742 -1.7503
   93SAPS   H9Y 9181   0.370   5.302   7.962 -0.9829  0.7939  0.9073
   93SAPS  C310 9182   0.179   5.244   8.049  0.3137 -0.1776  0.1834
   93SAPS  H10X 9183   0.229   5.156   8.097 -0.1766 -0.4418  0.2135
   93SAPS  H10Y 9184   0.080   5.207   8.017  1.0187 -0.3554 -1.9651
   93SAPS  C311 9185   0.151   5.367   8.141  0.7817 -0.9553  0.4866
   93SAPS  H11X 9186   0.105   5.454   8.090  2.3324 -0.8410 -0.8352
   93SAPS  H11Y 9187   0.250   5.402   8.177  0.6867 -0.5039  0.3096
   93SAPS  C312 9188   0.065   5.332   8.261  0.4471  0.1101  0.3817
   93SAPS  H12X 9189   0.115   5.264   8.333 -0.6421 -0.8810  0.2363
   93SAPS  H12Y 9190  -0.027   5.279   8.229 -0.5166  0.1577  2.8266
   93SAPS  C313 9191   0.026   5.456   8.349 -0.0070  0.0701 -0.6292
   93SAPS  H13X 9192  -0.005   5.543   8.287 -1.2655  0.3562  0.3493
   93SAPS  H13Y 9193   0.123   5.488   8.395 -0.6129  1.6919 -0.4081
   93SAPS  C314 9194  -0.073   5.432   8.467  0.0917  0.3533  0.0534
   93SAPS  H14X 9195  -0.172   5.398   8.429  0.6343 -0.0866 -1.0081
   93SAPS  H14Y 9196  -0.100   5.532   8.506 -1.2398  0.5375 -1.2644
   93SAPS  C315 9197  -0.028   5.330   8.570  0.4041  0.1840 -0.2162
   93SAPS  H15X 9198   0.023   5.248   8.516 -0.0855 -0.8094  0.7956
   93SAPS  H15Y 9199  -0.113   5.282   8.623  1.3340 -0.2382  0.9211
   93SAPS  C316 9200   0.053   5.402   8.679 -0.3336  0.0450 -0.2233
   93SAPS  H16X 9201  -0.009   5.488   8.712 -2.1106 -0.6308 -1.6492
   93SAPS  H16Y 9202   0.148   5.437   8.632 -0.2860 -2.8933 -2.6834
   93SAPS  C317 9203   0.078   5.300   8.790  0.2239  0.1602 -0.0528
   93SAPS  H17X 9204   0.150   5.226   8.749  0.3675  0.9868 -1.3432
   93SAPS  H17Y 9205  -0.014   5.243   8.818  1.4391 -2.4041 -0.9852
   93SAPS  C318 9206   0.135   5.369   8.909  0.4193  0.3009 -0.2817
   93SAPS  H18X 9207   0.203   5.454   8.888 -1.2942  1.5990 -0.8014
   93SAPS  H18Y 9208   0.174   5.292   8.979 -1.3544  0.4253  0.8848
   93SAPS  H18Z 9209   0.056   5.408   8.976  1.1866 -0.4328  1.1040
   94SAPS     N 9210   1.891   0.874   5.759  0.3412 -0.4108  0.1618
   94SAPS   HN1 9211   1.867   0.888   5.659  1.2907  2.8699  0.2736
   94SAPS   HN2 9212   1.819   0.804   5.786  0.2640  0.1933  1.6777
   94SAPS   HN3 9213   1.876   0.964   5.811  4.4060  0.9874 -0.7637
   94SAPS   C12 9214   2.023   0.821   5.778 -0.1761 -0.9459  0.7843
   94SAPS  H12A 9215   2.038   0.769   5.685 -1.5739  1.8121 -1.1317
   94SAPS   C13 9216   2.138   0.919   5.800 -1.0516 -0.4137 -0.0972
   94SAPS  O13A 9217   2.106   1.035   5.829  0.0225  0.6533 -0.6287
   94SAPS  O13B 9218   2.257   0.874   5.823 -0.4939  0.3406  0.2764
   94SAPS   C11 9219   2.027   0.728   5.898 -0.3062  0.2565  0.1039
   94SAPS  H11A 9220   1.998   0.800   5.978  0.0204  0.9511 -0.3915
   94SAPS  H11B 9221   2.129   0.687   5.907 -0.4092 -0.6768 -2.1750
   94SAPS     P 9222   1.944   0.499   5.965  0.0843  0.3072 -0.0897
   94SAPS   O13 9223   1.822   0.417   5.981  0.2707 -0.5769 -0.5916
   94SAPS   O14 9224   2.062   0.433   5.911 -0.0331  0.2831 -0.0737
   94SAPS   O12 9225   1.924   0.625   5.872  0.4522  0.7598  0.5988
   94SAPS   O11 9226   1.981   0.562   6.103  0.2845  0.3673 -0.2764
   94SAPS    C1 9227   2.048   0.494   6.208  0.4653  0.6529  0.3433
   94SAPS    HA 9228   1.992   0.405   6.244 -0.6697  1.3766  0.4387
   94SAPS    HB 9229   2.147   0.453   6.180 -0.4628 -0.3307 -1.6390
   94SAPS    C2 9230   2.087   0.580   6.331  0.9993  0.1366 -0.0414
   94SAPS    HS 9231   2.189   0.555   6.368 -0.5167 -2.2708  2.9027
   94SAPS   O21 9232   1.995   0.557   6.439 -0.0923  0.2882 -0.4088
   94SAPS   C21 9233   2.019   0.441   6.504 -0.9129 -0.5408  0.4827
   94SAPS   O22 9234   2.111   0.367   6.489 -0.0438 -0.0146  0.1713
   94SAPS   C22 9235   1.910   0.409   6.605 -0.2108  0.4927  0.5681
   94SAPS   H2R 9236   1.822   0.374   6.547  0.6370 -2.7803  1.0175
   94SAPS   H2S 9237   1.929   0.315   6.661 -0.5740  1.7931  2.9609
   94SAPS    C3 9238   2.083   0.735   6.287  0.4577  0.4954  0.2588
   94SAPS    HX 9239   1.989   0.759   6.233  0.7267 -0.3977 -0.6488
   94SAPS    HY 9240   2.157   0.758   6.207  0.6384 -1.0571 -0.0472
   94SAPS   O31 9241   2.102   0.814   6.400  0.1444  0.1425 -0.1437
   94SAPS   C31 9242   2.225   0.816   6.449 -0.1277 -0.7750 -0.2486
   94SAPS   O32 9243   2.318   0.755   6.401 -0.2275 -0.0486  0.2795
   94SAPS   C32 9244   2.236   0.915   6.575 -0.0146 -0.0339 -0.0573
   94SAPS   H2X 9245   2.174   1.000   6.539  0.1143 -0.7680 -2.1298
   94SAPS   H2Y 9246   2.341   0.948   6.583 -0.6127  2.0373 -0.1026
   94SAPS   C23 9247   1.867   0.519   6.691 -0.7242  0.0287  0.0604
   94SAPS   H3R 9248   1.757   0.512   6.701 -0.5135 -0.2760  3.0580
   94SAPS   H3S 9249   1.876   0.614   6.635  0.6938  0.0739  0.3343
   94SAPS   C24 9250   1.941   0.536   6.820 -0.5757  0.5775 -0.0820
   94SAPS   H4R 9251   2.052   0.530   6.815 -0.5005 -1.8543  2.1176
   94SAPS   H4S 9252   1.906   0.447   6.878  0.5918 -0.7955 -1.4027
   94SAPS   C25 9253   1.893   0.662   6.891  0.3378 -0.9851  0.4113
   94SAPS   H5R 9254   1.867   0.736   6.814  1.1338  0.1893  1.2490
   94SAPS   C26 9255   1.838   0.687   7.004  0.0984  0.8393 -0.5732
   94SAPS   H6R 9256   1.801   0.789   7.022  1.2088  1.3484 -1.0667
   94SAPS   C27 9257   1.822   0.583   7.111  0.3303 -0.0212  0.1061
   94SAPS   H7R 9258   1.905   0.599   7.183  0.9031 -0.1954 -0.5040
   94SAPS   H7S 9259   1.838   0.481   7.072  0.8241  0.5206 -1.1561
   94SAPS   C28 9260   1.680   0.587   7.182 -0.4415 -0.8168  0.9169
   94SAPS   H8R 9261   1.598   0.570   7.111  0.4667  0.6417 -0.5688
   94SAPS   C29 9262   1.658   0.595   7.311 -1.0288 -0.3992 -0.2454
   94SAPS   H9R 9263   1.554   0.591   7.347 -0.6766 -0.7115  0.7674
   94SAPS  C210 9264   1.771   0.591   7.426 -0.4341  0.3999 -0.0929
   94SAPS  H10R 9265   1.849   0.517   7.397  0.6284  1.1531  0.7743
   94SAPS  H10S 9266   1.725   0.552   7.520 -0.7958  0.0991 -0.3917
   94SAPS  C211 9267   1.832   0.726   7.465  0.1735  0.5770  0.8002
   94SAPS  H11R 9268   1.862   0.774   7.371 -1.8581  1.7009  0.6727
   94SAPS  C212 9269   1.854   0.783   7.590 -0.1996 -0.0548 -0.3144
   94SAPS  H12R 9270   1.884   0.889   7.592 -1.9588  0.4740  2.1479
   94SAPS  C213 9271   1.829   0.738   7.729 -0.0234  0.7625 -0.6982
   94SAPS  H13R 9272   1.927   0.723   7.778 -0.0195 -0.4157 -1.0183
   94SAPS  H13S 9273   1.786   0.636   7.714  1.0695  0.4529 -1.9445
   94SAPS  C214 9274   1.744   0.831   7.819  0.6503 -0.3474 -0.6029
   94SAPS  H14R 9275   1.643   0.859   7.784 -0.5894 -1.4749  1.8413
   94SAPS  C215 9276   1.768   0.877   7.946  0.3987  0.6705 -0.2546
   94SAPS  H15R 9277   1.688   0.932   7.997  0.5239  0.1155  0.5540
   94SAPS  C216 9278   1.881   0.840   8.043 -0.3476  0.1895  0.1485
   94SAPS  H16R 9279   1.929   0.922   8.101  1.7291 -1.0795  0.3505
   94SAPS  H16S 9280   1.964   0.793   7.986 -0.6167 -2.2051  1.6375
   94SAPS  C217 9281   1.844   0.724   8.138 -0.5567 -0.5740  0.3836
   94SAPS  H17R 9282   1.820   0.629   8.086 -0.5001 -1.6214  2.1875
   94SAPS  H17S 9283   1.754   0.745   8.200 -1.4036 -1.3879 -0.5400
   94SAPS  C218 9284   1.961   0.695   8.244 -0.4450 -1.0195  0.0460
   94SAPS  H18R 9285   1.913   0.644   8.330  1.1150  0.4333  1.8510
   94SAPS  H18S 9286   1.996   0.791   8.287  2.5424 -0.9725 -2.1720
   94SAPS  C219 9287   2.075   0.607   8.193  0.5588  0.0016 -0.0326
   94SAPS  H19R 9288   2.110   0.673   8.110 -1.6252 -0.7874 -1.6989
   94SAPS  H19S 9289   2.042   0.507   8.158  0.9723 -0.3574  0.5821
   94SAPS  C220 9290   2.181   0.555   8.294 -0.2686 -0.0244  0.1232
   94SAPS  H20R 9291   2.129   0.493   8.370 -0.9280 -0.3818 -0.6012
   94SAPS  H20S 9292   2.224   0.647   8.339  0.9603 -0.8156  0.6110
   94SAPS  H20T 9293   2.263   0.495   8.250  0.4397  1.5035 -0.6998
   94SAPS   C33 9294   2.184   0.843   6.702  0.3532  0.0657  0.3009
   94SAPS   H3X 9295   2.077   0.821   6.682  0.1449  0.2808  1.1486
   94SAPS   H3Y 9296   2.180   0.915   6.786 -0.5136  1.5060 -0.9249
   94SAPS   C34 9297   2.266   0.716   6.739 -0.4622 -0.0221  0.4245
   94SAPS   H4X 9298   2.250   0.646   6.653  1.7925  0.6821 -0.6313
   94SAPS   H4Y 9299   2.230   0.672   6.835 -2.8502 -1.0502 -0.8506
   94SAPS   C35 9300   2.416   0.735   6.756 -0.1735  0.2650  0.5580
   94SAPS   H5X 9301   2.464   0.762   6.660 -2.6858  1.0909 -0.5501
   94SAPS   H5Y 9302   2.467   0.643   6.792 -0.7551 -0.5391 -0.6288
   94SAPS   C36 9303   2.447   0.843   6.850 -0.4122 -0.3816 -0.6591
   94SAPS   H6X 9304   2.401   0.821   6.948 -0.5227  2.2550 -0.0603
   94SAPS   H6Y 9305   2.400   0.938   6.817  1.5301  0.5165 -0.9817
   94SAPS   C37 9306   2.596   0.867   6.866 -0.6446  0.2681  0.2642
   94SAPS   H7X 9307   2.640   0.952   6.809  1.5777 -0.4038  0.8870
   94SAPS   H7Y 9308   2.647   0.774   6.833  0.6169 -0.2667  3.3572
   94SAPS   C38 9309   2.637   0.870   7.018  0.7222 -0.5064 -0.1375
   94SAPS   H8X 9310   2.575   0.947   7.067  0.5135  0.4880 -1.9158
   94SAPS   H8Y 9311   2.740   0.910   7.030  0.5061  0.6897 -1.8383
   94SAPS   C39 9312   2.622   0.739   7.096 -0.4266  0.2614  0.3484
   94SAPS   H9X 9313   2.694   0.676   7.039 -0.0272  2.8856 -2.2808
   94SAPS   H9Y 9314   2.524   0.688   7.090 -0.7135  0.8626 -0.1222
   94SAPS  C310 9315   2.664   0.750   7.239  0.4174  0.4487 -0.0587
   94SAPS  H10X 9316   2.579   0.783   7.303 -0.6610  0.1808 -1.3214
   94SAPS  H10Y 9317   2.747   0.823   7.246  1.2683 -0.5159  0.1472
   94SAPS  C311 9318   2.713   0.616   7.289 -0.0018  0.6070 -0.6419
   94SAPS  H11X 9319   2.789   0.591   7.213  0.4158 -4.9191  1.1205
   94SAPS  H11Y 9320   2.627   0.545   7.287  1.3596 -1.1776  0.8708
   94SAPS  C312 9321   2.763   0.620   7.435  0.0957  0.0435  0.1676
   94SAPS  H12X 9322   2.838   0.702   7.442 -1.0806  1.1188  0.6560
   94SAPS  H12Y 9323   2.818   0.525   7.444  1.3341  0.7340  0.0665
   94SAPS  C313 9324   2.645   0.623   7.534  0.4234 -0.2074 -0.9114
   94SAPS  H13X 9325   2.579   0.546   7.488  1.3593 -1.3404 -0.4119
   94SAPS  H13Y 9326   2.593   0.720   7.521 -0.3026 -0.0477  2.3308
   94SAPS  C314 9327   2.687   0.592   7.675 -0.8823 -0.4719  0.1853
   94SAPS  H14X 9328   2.751   0.670   7.721 -1.0859  0.1796 -0.6098
   94SAPS  H14Y 9329   2.742   0.497   7.663  1.3845  0.5336  1.9964
   94SAPS  C315 9330   2.569   0.569   7.766 -0.2930 -1.0618  0.2322
   94SAPS  H15X 9331   2.508   0.493   7.713 -1.3405 -0.0339 -0.0761
   94SAPS  H15Y 9332   2.512   0.664   7.770  1.4525  0.0755 -0.6326
   94SAPS  C316 9333   2.620   0.541   7.907  0.3232  0.7281 -0.3860
   94SAPS  H16X 9334   2.691   0.619   7.945 -1.0827  1.2012  1.3889
   94SAPS  H16Y 9335   2.681   0.453   7.877  0.0444  0.9980 -1.8048
   94SAPS  C317 9336   2.512   0.516   8.007 -0.2280  0.1647  0.1346
   94SAPS  H17X 9337   2.422   0.485   7.950  0.2825 -0.8594 -0.1311
   94SAPS  H17Y 9338   2.493   0.616   8.052  1.8631  0.6372  0.0755
   94SAPS  C318 9339   2.539   0.425   8.123 -0.5467  1.0988 -0.1392
   94SAPS  H18X 9340   2.503   0.478   8.214  0.0305  2.5873 -0.7566
   94SAPS  H18Y 9341   2.649   0.415   8.135 -0.5616  3.1178  2.8860
   94SAPS  H18Z 9342   2.491   0.325   8.113  1.2804  0.2543 -0.9767
   95SAPS     N 9343   6.281   4.428   6.518 -0.1461 -0.0882 -0.3195
   95SAPS   HN1 9344   6.228   4.407   6.605  0.2674  2.5836  0.6860
   95SAPS   HN2 9345   6.379   4.393   6.514  0.6824  2.1124 -0.5228
   95SAPS   HN3 9346   6.288   4.532   6.514  1.1055 -0.1372  0.2497
   95SAPS   C12 9347   6.215   4.353   6.407 -0.3333  0.3762 -0.3468
   95SAPS  H12A 9348   6.109   4.369   6.401 -0.1449  1.3433 -1.3388
   95SAPS   C13 9349   6.283   4.391   6.269  0.0006 -0.1835  0.3671
   95SAPS  O13A 9350   6.337   4.504   6.253 -0.3679 -0.2124 -0.1621
   95SAPS  O13B 9351   6.239   4.320   6.169 -0.5370 -0.4738  0.2470
   95SAPS   C11 9352   6.225   4.198   6.433  0.3773  1.0672  0.5028
   95SAPS  H11A 9353   6.327   4.160   6.412 -0.9550 -2.2121 -0.6581
   95SAPS  H11B 9354   6.146   4.170   6.360 -0.4415  0.6193  1.5227
   95SAPS     P 9355   6.153   4.020   6.617 -0.0489 -0.1173  0.1448
   95SAPS   O13 9356   6.022   4.023   6.693 -0.0256  0.2913  0.3729
   95SAPS   O14 9357   6.163   3.920   6.512 -0.1918 -0.0342 -0.7436
   95SAPS   O12 9358   6.179   4.169   6.564  0.0064  0.3174  0.2531
   95SAPS   O11 9359   6.269   3.989   6.716  0.3746 -0.3955  0.1967
   95SAPS    C1 9360   6.393   4.056   6.710  0.5261 -0.4845  0.6060
   95SAPS    HA 9361   6.442   4.041   6.611  1.2714  3.6885  0.1710
   95SAPS    HB 9362   6.386   4.164   6.735  0.1475 -0.6578  1.2942
   95SAPS    C2 9363   6.490   3.992   6.812  0.1681  0.0397 -0.6237
   95SAPS    HS 9364   6.507   3.884   6.794  1.8260 -0.4439  2.8258
   95SAPS   O21 9365   6.433   4.005   6.944 -0.1725 -0.1955  0.3482
   95SAPS   C21 9366   6.356   3.913   6.992 -0.3178 -0.5337  0.5209
   95SAPS   O22 9367   6.328   3.805   6.946 -0.1865 -0.5270  0.4430
   95SAPS   C22 9368   6.275   3.988   7.097  0.0981 -0.3707 -0.5179
   95SAPS   H2R 9369   6.343   4.061   7.146 -0.5036  0.4290 -0.8616
   95SAPS   H2S 9370   6.194   4.045   7.047 -0.2092  1.2489  1.6489
   95SAPS    C3 9371   6.625   4.056   6.794  0.0193  0.0027  0.2252
   95SAPS    HX 9372   6.668   4.028   6.696  0.4601  1.2221  0.0530
   95SAPS    HY 9373   6.686   4.017   6.879 -2.5930 -0.2316  2.1061
   95SAPS   O31 9374   6.615   4.199   6.806 -0.3696  0.3030 -0.5178
   95SAPS   C31 9375   6.734   4.258   6.791 -0.0749 -0.0182  1.1327
   95SAPS   O32 9376   6.836   4.193   6.770  0.7533 -0.2137 -0.3422
   95SAPS   C32 9377   6.708   4.406   6.783  0.2362 -0.0677 -1.2668
   95SAPS   H2X 9378   6.617   4.429   6.723 -0.8891 -1.4565 -0.1588
   95SAPS   H2Y 9379   6.798   4.456   6.741 -0.4156  0.4298 -2.1005
   95SAPS   C23 9380   6.199   3.895   7.203  0.7229 -0.8306  0.9820
   95SAPS   H3R 9381   6.283   3.840   7.250  1.5001 -0.9190 -0.4426
   95SAPS   H3S 9382   6.142   3.814   7.153  1.3969 -0.5698 -0.2543
   95SAPS   C24 9383   6.107   3.975   7.305 -0.8149 -0.0790 -0.4037
   95SAPS   H4R 9384   6.180   4.033   7.365 -0.5028 -1.4312  0.5510
   95SAPS   H4S 9385   6.055   3.911   7.379  0.2696 -1.2784 -0.6475
   95SAPS   C25 9386   6.006   4.061   7.231  0.3245 -0.5761 -0.2599
   95SAPS   H5R 9387   6.017   4.059   7.122 -0.4942 -0.3545 -0.3535
   95SAPS   C26 9388   5.932   4.151   7.291 -0.2345  0.3595 -0.2884
   95SAPS   H6R 9389   5.860   4.203   7.227 -1.8292 -0.9529  0.3704
   95SAPS   C27 9390   5.923   4.183   7.436 -0.2046  0.1303  0.8301
   95SAPS   H7R 9391   5.948   4.090   7.491 -0.0363  0.2362  0.9345
   95SAPS   H7S 9392   5.816   4.199   7.461  0.6319  4.5512  2.4048
   95SAPS   C28 9393   6.018   4.296   7.485 -0.3440  0.2282  0.1641
   95SAPS   H8R 9394   6.076   4.349   7.408 -2.6437  2.1411 -0.3696
   95SAPS   C29 9395   6.040   4.304   7.616 -0.2708  0.3664 -0.6975
   95SAPS   H9R 9396   6.117   4.374   7.652 -0.8513  1.1741 -0.9895
   95SAPS  C210 9397   5.979   4.220   7.728 -1.0589  0.0547  0.5168
   95SAPS  H10R 9398   6.030   4.122   7.723 -1.2085  0.0128 -0.4571
   95SAPS  H10S 9399   5.876   4.195   7.697 -0.1949 -0.4419 -2.2555
   95SAPS  C211 9400   6.014   4.283   7.861  0.6644 -0.8098 -0.2690
   95SAPS  H11R 9401   6.028   4.391   7.876 -0.5149 -0.7871  0.9141
   95SAPS  C212 9402   6.038   4.208   7.978  0.0767  0.6515  0.1220
   95SAPS  H12R 9403   6.067   4.257   8.072 -5.2031  1.1090  1.8299
   95SAPS  C213 9404   6.038   4.056   7.989  0.3535  0.1246  0.2383
   95SAPS  H13R 9405   6.110   4.020   8.066 -3.0852  0.4413  3.9466
   95SAPS  H13S 9406   6.058   3.995   7.899  0.0195  1.4179 -0.7379
   95SAPS  C214 9407   5.892   4.025   8.020 -0.1759 -0.7081  0.4590
   95SAPS  H14R 9408   5.829   4.010   7.931  0.0817  0.2573  0.1023
   95SAPS  C215 9409   5.836   4.015   8.143  0.5505  0.7552 -0.8017
   95SAPS  H15R 9410   5.728   4.004   8.158  0.6360  2.3805  1.3689
   95SAPS  C216 9411   5.908   4.025   8.273  0.1330  0.0630  0.1479
   95SAPS  H16R 9412   5.907   4.130   8.308 -0.9702  0.8865 -2.1361
   95SAPS  H16S 9413   6.015   3.993   8.267  0.5868  0.9381  2.5674
   95SAPS  C217 9414   5.844   3.921   8.366  0.4094  0.6671 -0.3255
   95SAPS  H17R 9415   5.865   3.819   8.328 -0.5611  0.6151 -0.7588
   95SAPS  H17S 9416   5.738   3.951   8.381 -0.2211 -1.1018 -0.9027
   95SAPS  C218 9417   5.902   3.923   8.514 -0.6724 -0.1200  0.7941
   95SAPS  H18R 9418   5.922   4.028   8.544 -0.1229  0.0650 -0.1683
   95SAPS  H18S 9419   6.002   3.874   8.510 -0.9527 -0.6317 -0.5791
   95SAPS  C219 9420   5.808   3.844   8.608 -0.3055 -1.0287  0.7146
   95SAPS  H19R 9421   5.702   3.851   8.575 -0.0633 -0.4802  0.0324
   95SAPS  H19S 9422   5.793   3.893   8.707  0.1009 -0.5242  0.5343
   95SAPS  C220 9423   5.849   3.699   8.629  1.3599  0.0401  0.4956
   95SAPS  H20R 9424   5.753   3.662   8.671 -0.6879  3.4239 -0.8777
   95SAPS  H20S 9425   5.939   3.690   8.695  1.9531 -1.5553 -0.4632
   95SAPS  H20T 9426   5.862   3.638   8.537 -0.9688  0.5701 -0.2424
   95SAPS   C33 9427   6.698   4.459   6.926  0.0430  0.4290 -0.3216
   95SAPS   H3X 9428   6.607   4.418   6.976 -0.4043 -0.0446 -1.4876
   95SAPS   H3Y 9429   6.675   4.568   6.931  0.0755  0.4344 -0.2912
   95SAPS   C34 9430   6.824   4.427   7.013  0.0156  0.1971 -0.7792
   95SAPS   H4X 9431   6.919   4.475   6.981  0.6111 -1.6796 -2.0075
   95SAPS   H4Y 9432   6.850   4.320   7.003 -0.2564 -0.2492  2.2380
   95SAPS   C35 9433   6.795   4.447   7.165  0.2763 -0.3766  0.3835
   95SAPS   H5X 9434   6.881   4.414   7.228  1.8151  1.1092 -0.8266
   95SAPS   H5Y 9435   6.707   4.387   7.193 -0.4253  0.8950  0.9719
   95SAPS   C36 9436   6.748   4.590   7.203  0.3066 -0.3383 -0.3473
   95SAPS   H6X 9437   6.641   4.593   7.174  0.1454 -4.2677 -0.6760
   95SAPS   H6Y 9438   6.797   4.673   7.148 -0.6856  0.1816 -0.4563
   95SAPS   C37 9439   6.749   4.622   7.350  0.7207  0.1433 -0.3957
   95SAPS   H7X 9440   6.685   4.712   7.362  1.0698  0.8328 -3.0596
   95SAPS   H7Y 9441   6.846   4.646   7.399  0.5808 -1.4768  0.7292
   95SAPS   C38 9442   6.696   4.525   7.444 -0.2960  0.2816 -0.1190
   95SAPS   H8X 9443   6.767   4.439   7.449 -2.1610 -1.3651 -0.7189
   95SAPS   H8Y 9444   6.600   4.478   7.413  0.3033 -2.3647  1.6752
   95SAPS   C39 9445   6.672   4.583   7.582 -0.1137  0.4305 -0.4566
   95SAPS   H9X 9446   6.627   4.684   7.592 -1.8376 -0.4036  0.8204
   95SAPS   H9Y 9447   6.766   4.606   7.637 -0.1313 -2.4072  0.9425
   95SAPS  C310 9448   6.598   4.484   7.674  0.5532 -0.1003 -0.0185
   95SAPS  H10X 9449   6.669   4.402   7.694  0.7344 -0.0673 -0.5047
   95SAPS  H10Y 9450   6.508   4.451   7.618 -0.8744 -0.0781  2.1702
   95SAPS  C311 9451   6.577   4.556   7.808 -0.2265 -0.0127 -0.2188
   95SAPS  H11X 9452   6.475   4.599   7.816 -0.9320 -1.8103  1.1876
   95SAPS  H11Y 9453   6.637   4.647   7.829 -1.2487  0.0206  3.2416
   95SAPS  C312 9454   6.599   4.461   7.925 -0.1236 -0.7105 -0.3471
   95SAPS  H12X 9455   6.539   4.370   7.908  0.5787 -0.7574 -3.1663
   95SAPS  H12Y 9456   6.550   4.502   8.016 -0.5803  1.1682 -1.3630
   95SAPS  C313 9457   6.746   4.412   7.954 -0.6191  0.0153 -0.1354
   95SAPS  H13X 9458   6.821   4.480   7.908  1.1870  0.2723  2.8933
   95SAPS  H13Y 9459   6.752   4.308   7.916 -0.3761 -0.0545  0.0916
   95SAPS  C314 9460   6.776   4.387   8.103 -0.8655 -0.2169 -0.5703
   95SAPS  H14X 9461   6.724   4.470   8.155  0.3308 -0.0174  0.3556
   95SAPS  H14Y 9462   6.881   4.400   8.136 -1.5267 -1.4892  2.2862
   95SAPS  C315 9463   6.729   4.258   8.167 -0.4804  0.0623 -0.3112
   95SAPS  H15X 9464   6.775   4.239   8.266  3.1568 -0.3211 -1.9064
   95SAPS  H15Y 9465   6.769   4.167   8.117  0.6523 -0.5706  1.6446
   95SAPS  C316 9466   6.578   4.224   8.167 -0.7101 -0.0246 -0.3488
   95SAPS  H16X 9467   6.544   4.198   8.064 -1.6293  3.0184 -0.9261
   95SAPS  H16Y 9468   6.515   4.309   8.201  1.1719  0.6659  1.6144
   95SAPS  C317 9469   6.535   4.109   8.256 -0.0861  0.4018 -1.1451
   95SAPS  H17X 9470   6.573   4.139   8.356 -0.3025  2.1556 -1.5530
   95SAPS  H17Y 9471   6.601   4.024   8.229 -0.2199 -0.1991  0.3595
   95SAPS  C318 9472   6.386   4.067   8.246  0.4332 -0.3175 -0.7028
   95SAPS  H18X 9473   6.360   4.074   8.138  2.6123  2.8617 -1.1637
   95SAPS  H18Y 9474   6.328   4.146   8.297  4.8367  0.8809  3.1308
   95SAPS  H18Z 9475   6.365   3.973   8.301  1.5112 -0.4951 -0.5701
   96SAPS     N 9476   1.057   5.483   5.911  0.0594 -0.0064 -0.0296
   96SAPS   HN1 9477   1.047   5.403   5.975  1.9325 -0.9669 -0.8463
   96SAPS   HN2 9478   1.028   5.455   5.815 -1.3768  0.9536  0.0934
   96SAPS   HN3 9479   1.160   5.499   5.906  0.2813 -1.1396  0.7747
   96SAPS   C12 9480   0.978   5.602   5.954 -1.0372 -0.4849 -1.1438
   96SAPS  H12A 9481   1.013   5.690   5.901  1.7702 -0.0629  1.1815
   96SAPS   C13 9482   0.825   5.603   5.920  0.5501 -0.1387 -0.5993
   96SAPS  O13A 9483   0.799   5.555   5.804 -0.4410  0.0666 -0.1891
   96SAPS  O13B 9484   0.759   5.694   5.975  0.1176  0.5091 -0.7208
   96SAPS   C11 9485   1.004   5.628   6.108 -0.3037  0.2823 -0.0094
   96SAPS  H11A 9486   0.958   5.545   6.166 -2.4313  1.6732  0.3981
   96SAPS  H11B 9487   0.956   5.725   6.134  0.0081  0.2024  0.9089
   96SAPS     P 9488   1.210   5.727   6.244 -0.1096 -0.0254 -0.2440
   96SAPS   O13 9489   1.355   5.750   6.213  0.5164 -0.4952  0.8243
   96SAPS   O14 9490   1.122   5.849   6.263 -0.4909 -0.3872 -0.1306
   96SAPS   O12 9491   1.148   5.627   6.139  0.3668 -0.1251  0.0755
   96SAPS   O11 9492   1.209   5.641   6.372  0.1920 -0.0678 -0.4029
   96SAPS    C1 9493   1.095   5.634   6.464 -0.7282  0.2207 -0.0677
   96SAPS    HA 9494   1.002   5.668   6.413 -0.4907  0.0993 -0.5933
   96SAPS    HB 9495   1.074   5.528   6.491 -0.5977  0.1622 -0.1917
   96SAPS    C2 9496   1.124   5.704   6.602 -0.0197  0.1519 -0.0812
   96SAPS    HS 9497   1.230   5.680   6.627 -0.4892 -0.4059  1.4502
   96SAPS   O21 9498   1.028   5.647   6.693 -0.5906 -0.3972  0.0736
   96SAPS   C21 9499   1.078   5.649   6.820  0.0356  0.6663 -0.0501
   96SAPS   O22 9500   1.196   5.651   6.852  0.5370 -0.1062 -0.2599
   96SAPS   C22 9501   0.958   5.654   6.914 -0.2937 -0.3243 -0.8520
   96SAPS   H2R 9502   0.892   5.740   6.889  1.6930  0.5450 -3.5658
   96SAPS   H2S 9503   0.888   5.569   6.897 -3.3889  2.0026 -0.7934
   96SAPS    C3 9504   1.115   5.849   6.599  0.1903  0.9593  0.5249
   96SAPS    HX 9505   1.014   5.876   6.561  0.0614  0.2029  0.3184
   96SAPS    HY 9506   1.180   5.890   6.519 -1.3551  2.7848  0.1452
   96SAPS   O31 9507   1.135   5.906   6.729  0.2961 -1.0434 -0.4056
   96SAPS   C31 9508   1.257   5.929   6.762  0.0865 -0.1658 -0.6231
   96SAPS   O32 9509   1.352   5.934   6.687  0.2310  0.3327  0.3352
   96SAPS   C32 9510   1.263   5.944   6.916  0.5387 -0.7617 -0.8967
   96SAPS   H2X 9511   1.274   5.842   6.957  0.4048 -0.9259 -1.2630
   96SAPS   H2Y 9512   1.160   5.975   6.944  0.2675 -2.2680 -0.1257
   96SAPS   C23 9513   0.995   5.668   7.065  0.3009 -0.3363  0.8336
   96SAPS   H3R 9514   0.902   5.706   7.113 -0.0211 -0.0487  0.0118
   96SAPS   H3S 9515   1.069   5.746   7.093 -1.6546  1.6377  0.8045
   96SAPS   C24 9516   1.034   5.539   7.133  0.0125 -0.1412  0.2778
   96SAPS   H4R 9517   1.063   5.550   7.240  1.3655  0.1525 -0.1079
   96SAPS   H4S 9518   1.131   5.510   7.087 -0.0156 -0.2575  0.2911
   96SAPS   C25 9519   0.939   5.422   7.117 -1.2236  0.1607  0.5125
   96SAPS   H5R 9520   0.926   5.380   7.016 -1.4298 -0.1268  0.6575
   96SAPS   C26 9521   0.880   5.356   7.218  0.1733 -0.6028 -0.5294
   96SAPS   H6R 9522   0.825   5.262   7.200 -1.1322 -0.0777  0.4911
   96SAPS   C27 9523   0.882   5.401   7.367 -0.0626 -0.2015  0.0394
   96SAPS   H7R 9524   0.786   5.362   7.407 -0.6838 -1.9105 -2.7949
   96SAPS   H7S 9525   0.878   5.512   7.375  2.4358 -0.0291 -0.2611
   96SAPS   C28 9526   1.002   5.350   7.452  0.5203  0.3350  0.0611
   96SAPS   H8R 9527   1.065   5.274   7.403  2.1575  0.4633  1.8555
   96SAPS   C29 9528   1.036   5.405   7.571  0.4773 -0.1693  0.1714
   96SAPS   H9R 9529   1.125   5.371   7.625  1.0804 -0.2829 -0.8737
   96SAPS  C210 9530   0.962   5.512   7.640  0.8433  0.3384  0.2133
   96SAPS  H10R 9531   0.885   5.551   7.570  1.7422 -1.2682 -1.7728
   96SAPS  H10S 9532   1.012   5.610   7.653  0.1969  0.5838  0.9174
   96SAPS  C211 9533   0.888   5.466   7.767 -1.4874 -0.3337  0.6355
   96SAPS  H11R 9534   0.835   5.371   7.752 -1.2521 -0.1386 -1.8437
   96SAPS  C212 9535   0.892   5.527   7.880  0.4113 -0.0569 -0.0288
   96SAPS  H12R 9536   0.824   5.492   7.959 -1.9098  0.1980 -1.7881
   96SAPS  C213 9537   0.950   5.663   7.910  0.9160 -0.7299  0.0123
   96SAPS  H13R 9538   0.893   5.742   7.857  0.7385 -0.7040  0.2414
   96SAPS  H13S 9539   1.049   5.662   7.860  0.5763 -2.8143 -0.6989
   96SAPS  C214 9540   0.950   5.709   8.055 -0.5183  0.0144 -0.0196
   96SAPS  H14R 9541   0.898   5.806   8.062 -0.8324  0.0648 -2.2797
   96SAPS  C215 9542   0.996   5.648   8.170  0.5480 -0.2244  0.1648
   96SAPS  H15R 9543   0.984   5.710   8.260 -2.9910 -0.9407  0.3365
   96SAPS  C216 9544   1.073   5.517   8.169  0.3051 -0.5204  0.7232
   96SAPS  H16R 9545   1.107   5.492   8.066 -1.8781 -2.3521  0.3643
   96SAPS  H16S 9546   1.014   5.427   8.199  0.6351 -1.1047 -0.3206
   96SAPS  C217 9547   1.199   5.511   8.254  0.0548 -0.1854 -0.3161
   96SAPS  H17R 9548   1.264   5.600   8.238 -0.3644  0.1908  0.0521
   96SAPS  H17S 9549   1.259   5.428   8.211 -1.4643 -1.2369 -0.4658
   96SAPS  C218 9550   1.172   5.486   8.403  1.4677  0.0195 -0.0078
   96SAPS  H18R 9551   1.108   5.397   8.419  3.7194 -1.5992  0.4320
   96SAPS  H18S 9552   1.112   5.572   8.440  0.7077 -0.2647 -0.5557
   96SAPS  C219 9553   1.308   5.462   8.489  0.7266  0.4646  0.2475
   96SAPS  H19R 9554   1.306   5.503   8.592  1.1737 -2.1227  1.3569
   96SAPS  H19S 9555   1.389   5.525   8.447 -0.9610  4.0695  1.8988
   96SAPS  C220 9556   1.357   5.318   8.494 -0.2876  0.1087  0.9588
   96SAPS  H20R 9557   1.276   5.251   8.532 -0.9501 -1.7249 -3.1026
   96SAPS  H20S 9558   1.451   5.303   8.551 -1.4096 -1.8482  2.4846
   96SAPS  H20T 9559   1.371   5.277   8.392 -0.3045  0.5877  0.7649
   96SAPS   C33 9560   1.376   6.034   6.963  0.3777  0.1760  0.8145
   96SAPS   H3X 9561   1.375   6.139   6.926 -0.8686  0.2580  1.0293
   96SAPS   H3Y 9562   1.471   5.987   6.930 -0.8983 -1.7910 -0.2037
   96SAPS   C34 9563   1.383   6.036   7.115 -0.5184 -0.2113 -0.6560
   96SAPS   H4X 9564   1.368   5.931   7.148 -1.3625 -0.0766 -0.5863
   96SAPS   H4Y 9565   1.300   6.097   7.157 -0.5391 -1.9333  2.0108
   96SAPS   C35 9566   1.502   6.108   7.185 -0.5834  0.7809  0.2574
   96SAPS   H5X 9567   1.482   6.214   7.162 -0.6598  0.8063  0.4386
   96SAPS   H5Y 9568   1.599   6.070   7.146 -2.3670 -0.4106 -3.4598
   96SAPS   C36 9569   1.501   6.069   7.335  0.6196 -0.4854 -0.2683
   96SAPS   H6X 9570   1.513   5.959   7.341 -2.2756 -0.9946 -2.0070
   96SAPS   H6Y 9571   1.403   6.101   7.376  0.5625 -0.3877 -0.4791
   96SAPS   C37 9572   1.629   6.125   7.394  0.4365 -0.2251  0.5562
   96SAPS   H7X 9573   1.635   6.229   7.354  0.0709 -1.5922 -3.5533
   96SAPS   H7Y 9574   1.726   6.091   7.353  0.1160  0.9289 -1.2714
   96SAPS   C38 9575   1.626   6.124   7.547 -0.8316 -0.0173  0.7738
   96SAPS   H8X 9576   1.622   6.017   7.576  0.5115  0.0550  1.3132
   96SAPS   H8Y 9577   1.541   6.184   7.587 -0.8844  1.8104 -1.8422
   96SAPS   C39 9578   1.753   6.187   7.607 -0.4160 -0.0835 -0.2971
   96SAPS   H9X 9579   1.753   6.290   7.566 -2.6282 -0.1541 -0.6072
   96SAPS   H9Y 9580   1.845   6.140   7.566  0.4274  0.9429  0.3889
   96SAPS  C310 9581   1.755   6.198   7.762 -0.1614 -0.4714 -0.5638
   96SAPS  H10X 9582   1.668   6.259   7.794  1.5505  0.9097  1.7871
   96SAPS  H10Y 9583   1.843   6.260   7.788 -2.0961  2.1305  0.2087
   96SAPS  C311 9584   1.782   6.061   7.833  0.4924 -0.0932 -0.6356
   96SAPS  H11X 9585   1.880   6.010   7.816 -0.3485 -2.1302  0.3224
   96SAPS  H11Y 9586   1.701   5.989   7.807 -1.1310  0.9736  1.2436
   96SAPS  C312 9587   1.772   6.076   7.984 -0.1391  0.1768  0.8826
   96SAPS  H12X 9588   1.782   5.974   8.025  2.0375 -0.3336 -0.7510
   96SAPS  H12Y 9589   1.681   6.132   8.015 -0.4152  0.2599 -0.0228
   96SAPS  C313 9590   1.886   6.157   8.041 -0.0436 -0.1196  0.1044
   96SAPS  H13X 9591   1.897   6.253   7.986  1.5619 -0.0692  0.4489
   96SAPS  H13Y 9592   1.984   6.105   8.029  0.1398  0.4898 -1.2584
   96SAPS  C314 9593   1.879   6.192   8.191 -0.3054  0.2831  0.5407
   96SAPS  H14X 9594   1.913   6.102   8.246 -0.0337  0.4505  0.6482
   96SAPS  H14Y 9595   1.772   6.210   8.217 -0.0831  1.7832  0.5016
   96SAPS  C315 9596   1.962   6.312   8.231 -0.2248  0.2135  0.1202
   96SAPS  H15X 9597   1.922   6.406   8.187  0.4567  0.0180 -0.9455
   96SAPS  H15Y 9598   2.062   6.289   8.188 -0.6900 -2.5210  0.2875
   96SAPS  C316 9599   1.980   6.340   8.387  0.1558  0.4645  0.9409
   96SAPS  H16X 9600   2.043   6.255   8.422  0.5697  0.2064 -0.3628
   96SAPS  H16Y 9601   1.883   6.343   8.441 -0.5763 -2.0361 -0.0525
   96SAPS  C317 9602   2.062   6.474   8.405  0.6240  0.0761 -0.7090
   96SAPS  H17X 9603   2.011   6.542   8.478 -0.8693  1.9742 -3.3477
   96SAPS  H17Y 9604   2.054   6.539   8.315  2.3505  4.1799  1.7980
   96SAPS  C318 9605   2.203   6.452   8.457 -0.4509 -0.3273  0.5109
   96SAPS  H18X 9606   2.267   6.404   8.380  0.0568  0.5077  0.3942
   96SAPS  H18Y 9607   2.206   6.383   8.544  1.2743  1.1281  1.6967
   96SAPS  H18Z 9608   2.263   6.540   8.489 -0.0460 -0.9104  1.4030
   97SAPS     N 9609   1.329   3.312   5.957 -0.0458  0.3744 -0.0610
   97SAPS   HN1 9610   1.314   3.406   5.999 -0.0549  0.8541 -1.0946
   97SAPS   HN2 9611   1.299   3.322   5.858 -2.4375  0.0079  0.5637
   97SAPS   HN3 9612   1.254   3.249   5.993  0.6339 -0.9682 -0.9112
   97SAPS   C12 9613   1.466   3.274   5.987  0.4317  0.2839 -0.0524
   97SAPS  H12A 9614   1.480   3.171   5.957 -1.6264 -0.2727  0.7240
   97SAPS   C13 9615   1.572   3.368   5.930 -0.0559  0.4775 -0.2969
   97SAPS  O13A 9616   1.535   3.466   5.859 -0.2451  0.2469  0.4561
   97SAPS  O13B 9617   1.689   3.319   5.929  0.5298 -0.3256  0.5001
   97SAPS   C11 9618   1.487   3.271   6.141  0.5473 -0.2475 -0.0371
   97SAPS  H11A 9619   1.581   3.222   6.174  0.6976 -0.0139 -0.1154
   97SAPS  H11B 9620   1.417   3.197   6.184 -0.4120  0.0472 -1.0496
   97SAPS     P 9621   1.406   3.434   6.330 -0.4153 -0.0649  0.4995
   97SAPS   O13 9622   1.417   3.580   6.351  0.0678 -0.4477  0.1200
   97SAPS   O14 9623   1.276   3.367   6.316  0.2277 -0.2479  0.1049
   97SAPS   O12 9624   1.477   3.401   6.196  0.1865  0.5029 -0.1473
   97SAPS   O11 9625   1.486   3.356   6.442  0.4530 -0.4208  0.3512
   97SAPS    C1 9626   1.635   3.377   6.441  0.0982 -0.4564 -0.0449
   97SAPS    HA 9627   1.665   3.297   6.371 -0.2063  0.3337 -1.1071
   97SAPS    HB 9628   1.665   3.479   6.406 -0.1611 -0.1859  0.5139
   97SAPS    C2 9629   1.684   3.369   6.583 -0.1163 -0.9065  0.5912
   97SAPS    HS 9630   1.795   3.377   6.588 -0.0815  1.0456 -1.4724
   97SAPS   O21 9631   1.643   3.253   6.654  0.0052  0.1259 -0.3446
   97SAPS   C21 9632   1.692   3.145   6.609  0.2127  0.1294 -0.2139
   97SAPS   O22 9633   1.769   3.136   6.512 -0.8976  0.1576 -0.5152
   97SAPS   C22 9634   1.633   3.027   6.689  0.2306 -0.5451 -1.3286
   97SAPS   H2R 9635   1.525   3.052   6.680  0.6779  2.2561 -0.1301
   97SAPS   H2S 9636   1.670   2.929   6.653  0.3232 -1.6993  1.5829
   97SAPS    C3 9637   1.634   3.493   6.659  0.0539  0.1955 -0.0917
   97SAPS    HX 9638   1.524   3.503   6.647 -0.0147  0.8045  0.8540
   97SAPS    HY 9639   1.692   3.579   6.620 -1.1470  0.6204 -0.9875
   97SAPS   O31 9640   1.667   3.482   6.799  0.5946 -0.0744  0.1769
   97SAPS   C31 9641   1.584   3.554   6.881 -0.7300 -0.3156 -0.8794
   97SAPS   O32 9642   1.488   3.614   6.840  0.5127 -0.1941 -0.5098
   97SAPS   C32 9643   1.634   3.550   7.023  0.2833 -0.0305 -0.2153
   97SAPS   H2X 9644   1.743   3.529   7.029  0.1409 -1.5217 -1.7597
   97SAPS   H2Y 9645   1.589   3.459   7.068  0.0637 -1.1548 -2.5648
   97SAPS   C23 9646   1.670   3.041   6.838 -0.1270  0.0486  0.7079
   97SAPS   H3R 9647   1.640   3.144   6.865  1.9868  0.8978 -0.0544
   97SAPS   H3S 9648   1.780   3.028   6.833  0.1545  2.5239 -2.9245
   97SAPS   C24 9649   1.584   2.951   6.927  0.5097 -0.3849 -0.6558
   97SAPS   H4R 9650   1.476   2.975   6.915  0.4022  1.1244  2.3639
   97SAPS   H4S 9651   1.603   2.981   7.032 -0.1028 -1.4265 -0.2333
   97SAPS   C25 9652   1.618   2.813   6.893 -0.0367  0.1744 -0.4624
   97SAPS   H5R 9653   1.616   2.782   6.788  0.8771  1.8920 -1.0240
   97SAPS   C26 9654   1.658   2.723   6.986 -0.0683 -0.7919 -0.3837
   97SAPS   H6R 9655   1.678   2.617   6.964  2.2595 -0.3869 -0.5138
   97SAPS   C27 9656   1.666   2.757   7.137 -0.0332  0.2046  0.6685
   97SAPS   H7R 9657   1.576   2.811   7.174 -0.1232  0.6382 -0.1693
   97SAPS   H7S 9658   1.749   2.826   7.162 -0.8968  1.1069  1.1209
   97SAPS   C28 9659   1.693   2.635   7.236  0.2560 -0.4809 -0.2595
   97SAPS   H8R 9660   1.727   2.549   7.177  2.4304  0.7548 -0.9273
   97SAPS   C29 9661   1.691   2.627   7.370 -0.6651  0.1819  0.4086
   97SAPS   H9R 9662   1.710   2.531   7.421 -2.2461  0.3930  1.4575
   97SAPS  C210 9663   1.659   2.738   7.469 -0.3845  0.1925 -0.6218
   97SAPS  H10R 9664   1.617   2.822   7.410 -3.4535 -0.8854 -0.1412
   97SAPS  H10S 9665   1.761   2.762   7.506 -0.5492 -1.0432  0.7176
   97SAPS  C211 9666   1.569   2.696   7.583  0.4377 -0.0392  0.0021
   97SAPS  H11R 9667   1.473   2.650   7.555 -0.0282 -1.6728  3.7875
   97SAPS  C212 9668   1.603   2.711   7.714 -0.2009  0.1817  0.4895
   97SAPS  H12R 9669   1.536   2.672   7.793 -1.5658 -3.0419 -1.9919
   97SAPS  C213 9670   1.738   2.768   7.765 -0.5817  0.5611 -0.0744
   97SAPS  H13R 9671   1.749   2.869   7.721  3.9897  0.4299  0.2568
   97SAPS  H13S 9672   1.817   2.700   7.726 -0.3562  1.7044 -1.7402
   97SAPS  C214 9673   1.756   2.785   7.920  0.0170  0.1114  0.0939
   97SAPS  H14R 9674   1.742   2.891   7.948  2.1028  1.1442 -2.3417
   97SAPS  C215 9675   1.774   2.693   8.013 -0.3421 -0.2044 -0.8699
   97SAPS  H15R 9676   1.771   2.718   8.120 -0.9276  0.4272 -1.0220
   97SAPS  C216 9677   1.783   2.551   7.971  0.5124 -0.9582 -0.2017
   97SAPS  H16R 9678   1.873   2.538   7.907  0.8967 -1.1193  0.3716
   97SAPS  H16S 9679   1.701   2.520   7.902  1.7384  0.8590 -2.6069
   97SAPS  C217 9680   1.785   2.460   8.090  0.5952  0.2647 -0.5813
   97SAPS  H17R 9681   1.785   2.353   8.062 -1.0234 -0.4030  1.6856
   97SAPS  H17S 9682   1.693   2.470   8.152  0.1254 -1.6032 -0.9172
   97SAPS  C218 9683   1.911   2.467   8.186 -0.6249 -0.3784 -0.0412
   97SAPS  H18R 9684   1.912   2.565   8.239 -0.8506  0.2337 -1.1411
   97SAPS  H18S 9685   1.998   2.467   8.118 -2.9065 -1.1396 -3.1782
   97SAPS  C219 9686   1.913   2.355   8.292 -0.6206 -0.1430  0.7908
   97SAPS  H19R 9687   1.808   2.341   8.326 -1.2276  1.2379 -0.3704
   97SAPS  H19S 9688   1.976   2.388   8.377  1.2700  3.9274 -1.8348
   97SAPS  C220 9689   1.969   2.227   8.235  0.4237 -0.3222  0.3685
   97SAPS  H20R 9690   1.903   2.191   8.153  2.7134 -0.2044 -1.6191
   97SAPS  H20S 9691   1.981   2.150   8.314  3.0882 -1.6161 -1.1569
   97SAPS  H20T 9692   2.073   2.226   8.197  0.2018 -0.9948 -0.2360
   97SAPS   C33 9693   1.595   3.679   7.101 -0.4064  0.1359 -0.1080
   97SAPS   H3X 9694   1.487   3.704   7.092 -0.2781  0.3312 -1.2751
   97SAPS   H3Y 9695   1.647   3.770   7.064 -2.8794  1.6226 -0.1396
   97SAPS   C34 9696   1.626   3.662   7.248  0.2312  0.2680  0.0439
   97SAPS   H4X 9697   1.735   3.647   7.266  0.2668  1.3492  0.8251
   97SAPS   H4Y 9698   1.567   3.581   7.295  0.7745 -0.5879 -0.7242
   97SAPS   C35 9699   1.589   3.782   7.336 -0.5676 -0.0366  0.4060
   97SAPS   H5X 9700   1.482   3.809   7.329 -0.4018  0.4043 -0.6059
   97SAPS   H5Y 9701   1.651   3.867   7.300 -0.1990 -1.1241 -1.6717
   97SAPS   C36 9702   1.633   3.771   7.484 -0.0129 -0.6121 -0.0771
   97SAPS   H6X 9703   1.625   3.873   7.527  2.5288 -0.8278  1.1274
   97SAPS   H6Y 9704   1.743   3.756   7.489  0.1028 -1.6928 -3.2901
   97SAPS   C37 9705   1.558   3.667   7.568  0.1579  0.2143 -0.0328
   97SAPS   H7X 9706   1.604   3.567   7.554  2.1985  1.1320 -0.2165
   97SAPS   H7Y 9707   1.451   3.659   7.542  0.3435 -0.8325 -0.5197
   97SAPS   C38 9708   1.565   3.685   7.718  0.8581  0.9375 -0.6479
   97SAPS   H8X 9709   1.664   3.689   7.768  1.3180  1.0777 -1.5574
   97SAPS   H8Y 9710   1.525   3.592   7.763  1.1597  0.5981 -1.0730
   97SAPS   C39 9711   1.479   3.800   7.768  0.3367  0.3726 -0.1463
   97SAPS   H9X 9712   1.384   3.806   7.711 -0.3431 -1.0372  0.7927
   97SAPS   H9Y 9713   1.535   3.892   7.742 -0.0636 -0.0331 -2.7332
   97SAPS  C310 9714   1.446   3.796   7.916 -0.5020 -0.1098 -0.4039
   97SAPS  H10X 9715   1.536   3.764   7.974  0.5505  2.5126 -0.4641
   97SAPS  H10Y 9716   1.359   3.730   7.937  0.1844 -1.0520 -0.4324
   97SAPS  C311 9717   1.406   3.931   7.975  0.3142 -0.1235 -0.3461
   97SAPS  H11X 9718   1.302   3.956   7.947  0.1745  0.5092  0.6962
   97SAPS  H11Y 9719   1.472   4.012   7.935 -0.3376  1.2674  1.2729
   97SAPS  C312 9720   1.414   3.934   8.129  0.3808 -1.2202 -0.7187
   97SAPS  H12X 9721   1.404   4.040   8.160  0.9631 -0.9748 -1.3516
   97SAPS  H12Y 9722   1.517   3.896   8.144  1.1789  0.5111 -1.6590
   97SAPS  C313 9723   1.313   3.844   8.204 -0.6915  0.6271  0.2070
   97SAPS  H13X 9724   1.342   3.743   8.170 -1.0320  1.5159 -3.0755
   97SAPS  H13Y 9725   1.205   3.860   8.180 -1.0736 -0.8505  0.8101
   97SAPS  C314 9726   1.328   3.858   8.359 -0.6869  0.4810  0.3428
   97SAPS  H14X 9727   1.305   3.963   8.385 -1.5368 -0.0053  1.6500
   97SAPS  H14Y 9728   1.434   3.838   8.384  0.5509  2.9713 -2.3731
   97SAPS  C315 9729   1.223   3.785   8.436  0.2614  0.4685  0.1176
   97SAPS  H15X 9730   1.228   3.675   8.422  0.0987  0.5660 -0.7280
   97SAPS  H15Y 9731   1.126   3.815   8.391  0.9536  0.5078 -1.3773
   97SAPS  C316 9732   1.211   3.817   8.590  0.5361  0.0317 -0.6105
   97SAPS  H16X 9733   1.192   3.922   8.622  1.0429 -0.4558  1.4135
   97SAPS  H16Y 9734   1.308   3.785   8.634  0.0664 -1.1538 -0.4164
   97SAPS  C317 9735   1.102   3.730   8.658  0.2758 -0.0335 -0.1891
   97SAPS  H17X 9736   1.113   3.620   8.648  0.8109 -0.7328  5.1438
   97SAPS  H17Y 9737   1.001   3.745   8.614 -1.4266  1.0081  3.6662
   97SAPS  C318 9738   1.092   3.757   8.809  0.6965  0.3482 -0.1261
   97SAPS  H18X 9739   1.192   3.778   8.852  0.6044  0.4330  0.0467
   97SAPS  H18Y 9740   1.048   3.671   8.863 -1.6218  0.7354 -1.2728
   97SAPS  H18Z 9741   1.026   3.846   8.817 -0.3804  0.1586 -4.3488
   98SAPS     N 9742   6.086   3.649   6.510 -0.0433 -0.1869  0.5519
   98SAPS   HN1 9743   5.983   3.640   6.516 -0.0982  0.0809  0.1080
   98SAPS   HN2 9744   6.142   3.600   6.582  1.1026  1.3060  0.7333
   98SAPS   HN3 9745   6.099   3.752   6.518  0.6033 -0.1091 -1.0375
   98SAPS   C12 9746   6.137   3.621   6.374 -0.7088 -0.0553 -0.0269
   98SAPS  H12A 9747   6.224   3.683   6.360 -1.0834  0.9304  1.7155
   98SAPS   C13 9748   6.168   3.469   6.364  0.2397 -0.2680 -0.0992
   98SAPS  O13A 9749   6.192   3.410   6.471 -0.2863 -0.8275 -0.6740
   98SAPS  O13B 9750   6.212   3.425   6.253 -0.1859 -0.3321 -0.2921
   98SAPS   C11 9751   6.039   3.682   6.274  0.6644 -0.7172 -0.3622
   98SAPS  H11A 9752   6.089   3.671   6.175  1.5848 -0.7400  0.0965
   98SAPS  H11B 9753   6.033   3.788   6.306 -0.0595 -1.8769  3.9514
   98SAPS     P 9754   5.824   3.595   6.150  0.2394 -0.7045  0.3288
   98SAPS   O13 9755   5.742   3.721   6.123 -0.2634 -0.1223 -0.1089
   98SAPS   O14 9756   5.905   3.541   6.032  0.6269  0.3813 -0.5214
   98SAPS   O12 9757   5.910   3.614   6.279  0.3049  0.0279 -0.0567
   98SAPS   O11 9758   5.720   3.480   6.180 -0.2681  0.1363 -0.4195
   98SAPS    C1 9759   5.754   3.365   6.255  0.0337 -0.5493  0.3399
   98SAPS    HA 9760   5.685   3.283   6.226 -1.8336  0.9679  0.2259
   98SAPS    HB 9761   5.856   3.338   6.223 -1.1876 -1.4724 -3.1883
   98SAPS    C2 9762   5.749   3.387   6.412  1.0411  0.0598  0.7030
   98SAPS    HS 9763   5.856   3.396   6.440  1.4423 -1.1262 -0.3056
   98SAPS   O21 9764   5.696   3.270   6.476 -0.0695 -0.0965 -0.3162
   98SAPS   C21 9765   5.769   3.156   6.444  0.5675  0.0803  0.5728
   98SAPS   O22 9766   5.878   3.156   6.388  0.3394  0.2003  0.1454
   98SAPS   C22 9767   5.685   3.034   6.480 -0.9295 -0.2842 -0.1725
   98SAPS   H2R 9768   5.593   3.023   6.419  0.1878 -3.0828 -1.5395
   98SAPS   H2S 9769   5.754   2.948   6.464  0.8127  0.7317  1.3731
   98SAPS    C3 9770   5.656   3.507   6.465  0.3039  0.3488 -0.4039
   98SAPS    HX 9771   5.553   3.483   6.431  0.2771 -2.3474  1.2931
   98SAPS    HY 9772   5.678   3.605   6.416 -1.8273  0.5358 -1.0568
   98SAPS   O31 9773   5.659   3.509   6.612  0.1894  0.0494  0.5498
   98SAPS   C31 9774   5.754   3.587   6.670 -0.0927  0.5364 -0.2964
   98SAPS   O32 9775   5.844   3.643   6.610 -0.1045 -0.0893 -0.3723
   98SAPS   C32 9776   5.719   3.593   6.818  0.1756  0.0456 -0.4502
   98SAPS   H2X 9777   5.684   3.496   6.861 -1.1101 -0.0534 -1.6448
   98SAPS   H2Y 9778   5.626   3.653   6.827 -0.5816 -0.9926 -0.9731
   98SAPS   C23 9779   5.642   3.039   6.623 -0.3755 -0.0269 -0.0444
   98SAPS   H3R 9780   5.598   2.941   6.651  1.4003 -0.4512  1.5080
   98SAPS   H3S 9781   5.563   3.116   6.611  1.5573  1.8800 -1.3149
   98SAPS   C24 9782   5.752   3.075   6.730  0.4082  0.1056  0.2721
   98SAPS   H4R 9783   5.701   3.066   6.829 -0.2130 -2.0859 -0.1748
   98SAPS   H4S 9784   5.787   3.178   6.713  1.6369 -0.0990  1.4073
   98SAPS   C25 9785   5.867   2.977   6.725  1.0339  0.3945  0.1417
   98SAPS   H5R 9786   5.931   2.986   6.636  1.2533  0.8449  0.3375
   98SAPS   C26 9787   5.880   2.869   6.813 -0.2849  0.3539  0.0585
   98SAPS   H6R 9788   5.966   2.800   6.808  0.1606  0.8312  0.9393
   98SAPS   C27 9789   5.787   2.838   6.928 -0.5772  0.7625 -0.4215
   98SAPS   H7R 9790   5.786   2.731   6.958 -0.1529  1.0385  0.6268
   98SAPS   H7S 9791   5.682   2.872   6.915 -0.6137  1.9256  2.2113
   98SAPS   C28 9792   5.825   2.921   7.051 -0.2888 -0.5561 -0.2693
   98SAPS   H8R 9793   5.890   3.009   7.038 -0.6321 -0.0252  1.4238
   98SAPS   C29 9794   5.761   2.919   7.170 -0.2902  0.4158 -0.1720
   98SAPS   H9R 9795   5.788   3.007   7.230  0.1501  2.4810 -3.1508
   98SAPS  C210 9796   5.644   2.834   7.214 -0.2132 -0.0058  0.6110
   98SAPS  H10R 9797   5.675   2.747   7.277  1.3785 -1.0400 -1.4712
   98SAPS  H10S 9798   5.596   2.780   7.129 -2.4506  0.2625  1.6329
   98SAPS  C211 9799   5.536   2.926   7.272 -0.2302  0.8017  0.9742
   98SAPS  H11R 9800   5.486   2.988   7.196 -2.5496 -3.2309 -1.1740
   98SAPS  C212 9801   5.487   2.922   7.391  0.3223  0.5022  0.2350
   98SAPS  H12R 9802   5.400   2.983   7.422  1.0461  0.2304  3.1051
   98SAPS  C213 9803   5.543   2.832   7.500 -0.2632 -0.3399  0.3839
   98SAPS  H13R 9804   5.653   2.838   7.491 -0.2250  0.9867  1.4155
   98SAPS  H13S 9805   5.505   2.731   7.473 -1.1762 -0.0038  0.3505
   98SAPS  C214 9806   5.498   2.857   7.645  0.0841  0.0351 -0.0344
   98SAPS  H14R 9807   5.415   2.928   7.646  0.0498  0.1547 -3.0806
   98SAPS  C215 9808   5.549   2.795   7.751 -0.6195  0.6541  0.2578
   98SAPS  H15R 9809   5.522   2.840   7.847  0.0602  0.5282  0.5119
   98SAPS  C216 9810   5.656   2.685   7.744 -0.9681 -0.2977  0.4600
   98SAPS  H16R 9811   5.753   2.722   7.783 -1.2179  1.5123 -0.5312
   98SAPS  H16S 9812   5.671   2.638   7.645 -0.1923  0.6195  0.1270
   98SAPS  C217 9813   5.622   2.568   7.834 -0.4567  0.3610  0.3844
   98SAPS  H17R 9814   5.680   2.475   7.819  0.0885  0.7054  0.3243
   98SAPS  H17S 9815   5.519   2.527   7.825 -0.0466 -1.0828  1.8213
   98SAPS  C218 9816   5.639   2.610   7.981  0.7499  0.2012  0.3117
   98SAPS  H18R 9817   5.590   2.705   8.011  0.3893  0.1943 -0.2399
   98SAPS  H18S 9818   5.750   2.618   7.993  1.0847 -2.9967  0.1969
   98SAPS  C219 9819   5.612   2.499   8.083 -0.0606 -0.0377 -0.2292
   98SAPS  H19R 9820   5.624   2.547   8.182  0.7101 -1.1902  0.2656
   98SAPS  H19S 9821   5.683   2.417   8.058  1.4266  0.8965  0.7790
   98SAPS  C220 9822   5.472   2.453   8.080 -0.8983 -0.4411  0.2534
   98SAPS  H20R 9823   5.448   2.400   7.985 -1.7030 -0.5997  0.5378
   98SAPS  H20S 9824   5.407   2.542   8.084  0.5709  0.6509  4.4348
   98SAPS  H20T 9825   5.463   2.388   8.170  2.0791 -1.7966 -0.2821
   98SAPS   C33 9826   5.823   3.646   6.920  0.3455 -0.5138  0.4723
   98SAPS   H3X 9827   5.826   3.754   6.897 -1.5515 -0.9922 -2.5422
   98SAPS   H3Y 9828   5.917   3.594   6.894  1.3109  1.7134 -0.7155
   98SAPS   C34 9829   5.791   3.620   7.062 -0.4572 -0.5163 -1.3842
   98SAPS   H4X 9830   5.884   3.639   7.120 -0.6691  0.6291 -1.3830
   98SAPS   H4Y 9831   5.753   3.518   7.085  0.4017 -0.9190 -1.7113
   98SAPS   C35 9832   5.683   3.710   7.126  0.3006  0.3018  0.6272
   98SAPS   H5X 9833   5.594   3.685   7.064 -0.3495  2.9654  0.3341
   98SAPS   H5Y 9834   5.697   3.818   7.104 -0.2877  0.6785  2.0449
   98SAPS   C36 9835   5.651   3.694   7.279  0.2827 -0.0953  0.3150
   98SAPS   H6X 9836   5.650   3.588   7.312  1.6765  0.0008  0.7541
   98SAPS   H6Y 9837   5.557   3.747   7.305 -0.9610 -1.8815 -0.3221
   98SAPS   C37 9838   5.754   3.761   7.365  0.4400  0.1224 -0.1884
   98SAPS   H7X 9839   5.748   3.871   7.349  1.9538  0.1962 -0.3357
   98SAPS   H7Y 9840   5.856   3.725   7.343  1.0324  0.5429  1.6803
   98SAPS   C38 9841   5.729   3.738   7.519  0.5373 -0.9590 -0.8187
   98SAPS   H8X 9842   5.753   3.631   7.539  0.5224 -1.0269 -1.1598
   98SAPS   H8Y 9843   5.621   3.756   7.538  1.0868  0.6105  1.0816
   98SAPS   C39 9844   5.812   3.825   7.615  0.1762 -0.0356  0.2625
   98SAPS   H9X 9845   5.771   3.926   7.634  0.5802  1.2169 -4.3107
   98SAPS   H9Y 9846   5.912   3.829   7.566 -0.9246 -0.1129 -2.1487
   98SAPS  C310 9847   5.844   3.758   7.752 -0.5191 -0.0429  0.2450
   98SAPS  H10X 9848   5.926   3.809   7.807  1.2572 -0.6206 -1.7291
   98SAPS  H10Y 9849   5.882   3.657   7.727 -0.0975  0.3924 -0.9098
   98SAPS  C311 9850   5.718   3.724   7.841  0.1985 -0.4182 -0.6703
   98SAPS  H11X 9851   5.644   3.662   7.787  1.1233 -3.6370  1.4758
   98SAPS  H11Y 9852   5.658   3.810   7.876 -0.1181 -1.1641  0.7063
   98SAPS  C312 9853   5.751   3.647   7.970 -0.3858 -0.4676  0.5584
   98SAPS  H12X 9854   5.829   3.713   8.014 -1.4212  1.7237 -0.6976
   98SAPS  H12Y 9855   5.794   3.547   7.950  1.9174  0.5893 -0.1366
   98SAPS  C313 9856   5.628   3.639   8.060 -0.1310  0.1226 -0.0971
   98SAPS  H13X 9857   5.537   3.591   8.017 -2.5987  2.9852  1.5510
   98SAPS  H13Y 9858   5.596   3.735   8.105  1.5095  0.3180  0.7367
   98SAPS  C314 9859   5.667   3.557   8.184 -0.1584 -0.5071  0.7131
   98SAPS  H14X 9860   5.761   3.588   8.234  0.1134  1.2829 -0.7931
   98SAPS  H14Y 9861   5.691   3.454   8.149  1.1272 -0.0549  0.1866
   98SAPS  C315 9862   5.549   3.545   8.285 -0.3316 -0.3330 -0.3561
   98SAPS  H15X 9863   5.467   3.489   8.234  1.1272  0.4737 -3.9524
   98SAPS  H15Y 9864   5.512   3.648   8.304  2.3226  0.8166 -1.0067
   98SAPS  C316 9865   5.603   3.460   8.401  0.3983  0.4784 -0.7275
   98SAPS  H16X 9866   5.539   3.486   8.489 -0.3212 -1.0223 -0.7794
   98SAPS  H16Y 9867   5.711   3.480   8.421  0.2742  0.9977 -0.5636
   98SAPS  C317 9868   5.592   3.306   8.380  0.3241  0.3348 -1.0074
   98SAPS  H17X 9869   5.665   3.269   8.306  0.9183 -1.7827  0.5248
   98SAPS  H17Y 9870   5.491   3.286   8.338  0.0120  0.8776 -0.5326
   98SAPS  C318 9871   5.603   3.220   8.506  0.1534  0.0533  0.2652
   98SAPS  H18X 9872   5.548   3.267   8.591 -2.5585  1.9826 -2.3337
   98SAPS  H18Y 9873   5.707   3.205   8.541  0.0080 -0.6796  0.4075
   98SAPS  H18Z 9874   5.557   3.121   8.485 -0.7008  0.3224  0.8332
   99SAPS     N 9875   4.241   2.187   5.995  0.6868 -0.0750  0.1891
   99SAPS   HN1 9876   4.144   2.150   5.992  1.0597 -1.0154 -0.9856
   99SAPS   HN2 9877   4.307   2.151   6.068  2.6914  1.3954 -0.7928
   99SAPS   HN3 9878   4.228   2.289   6.013 -0.1163 -0.2148  0.4015
   99SAPS   C12 9879   4.303   2.173   5.856  0.1973 -0.0293  0.3085
   99SAPS  H12A 9880   4.328   2.072   5.825  1.5351  0.2311  0.4830
   99SAPS   C13 9881   4.202   2.222   5.744 -0.5488 -0.1064  0.0985
   99SAPS  O13A 9882   4.094   2.271   5.779 -0.0051 -0.3724 -0.2684
   99SAPS  O13B 9883   4.232   2.226   5.626 -0.2187  0.5469  0.2966
   99SAPS   C11 9884   4.434   2.256   5.852  0.0623  0.0662 -0.8248
   99SAPS  H11A 9885   4.414   2.363   5.872  1.9266  0.5552 -1.3529
   99SAPS  H11B 9886   4.492   2.267   5.758  1.6710  1.1866  0.2477
   99SAPS     P 9887   4.670   2.278   5.980  0.7690  0.4215 -0.4090
   99SAPS   O13 9888   4.754   2.224   5.869  0.6723  0.5352  0.6381
   99SAPS   O14 9889   4.654   2.427   5.996 -0.0331  0.5376 -0.3172
   99SAPS   O12 9890   4.517   2.209   5.963  0.1713  0.1660  0.2165
   99SAPS   O11 9891   4.732   2.219   6.119 -0.3548 -0.7584  0.1632
   99SAPS    C1 9892   4.652   2.235   6.237 -0.2346  0.1481  0.6368
   99SAPS    HA 9893   4.547   2.250   6.202  0.7341  1.2565 -2.0538
   99SAPS    HB 9894   4.661   2.140   6.294 -2.1245 -0.4399  0.0308
   99SAPS    C2 9895   4.710   2.351   6.319 -0.1343  0.3128 -0.0661
   99SAPS    HS 9896   4.731   2.443   6.261 -6.5996  2.6201  0.4649
   99SAPS   O21 9897   4.821   2.298   6.396 -0.3322 -0.6310 -0.0810
   99SAPS   C21 9898   4.911   2.398   6.428 -0.0914  0.1956  0.3818
   99SAPS   O22 9899   4.893   2.515   6.397 -0.6857 -0.0644  0.2229
   99SAPS   C22 9900   5.030   2.330   6.504  0.3438  0.1141  0.2014
   99SAPS   H2R 9901   4.985   2.247   6.563  0.1212 -1.0014 -1.4624
   99SAPS   H2S 9902   5.111   2.306   6.432  2.4818  1.0772  2.1545
   99SAPS    C3 9903   4.591   2.403   6.424 -0.5387 -0.0159 -0.4466
   99SAPS    HX 9904   4.577   2.308   6.479  1.3014  0.0134  0.1530
   99SAPS    HY 9905   4.498   2.424   6.367 -0.9432  0.3565  0.3419
   99SAPS   O31 9906   4.623   2.510   6.517  1.0275 -0.1473 -0.1659
   99SAPS   C31 9907   4.634   2.637   6.471  0.8260  0.1744  0.6751
   99SAPS   O32 9908   4.618   2.665   6.356 -0.2108 -0.1085  0.3375
   99SAPS   C32 9909   4.694   2.732   6.582  0.3369  0.2248  0.0514
   99SAPS   H2X 9910   4.605   2.767   6.639 -0.9530 -2.3039 -0.2556
   99SAPS   H2Y 9911   4.737   2.820   6.531 -0.9137  0.3490 -0.8529
   99SAPS   C23 9912   5.096   2.422   6.609  0.2272  0.4024 -0.1824
   99SAPS   H3R 9913   5.031   2.441   6.697  1.4294 -0.6053  0.9574
   99SAPS   H3S 9914   5.115   2.528   6.581  3.9504 -0.0646  0.1509
   99SAPS   C24 9915   5.242   2.368   6.653 -0.0586  0.8185 -0.3847
   99SAPS   H4R 9916   5.301   2.457   6.683  1.2270 -0.4690  1.0215
   99SAPS   H4S 9917   5.305   2.333   6.569  0.5085  1.1079 -0.0847
   99SAPS   C25 9918   5.239   2.264   6.764 -0.0907 -0.3491 -0.4010
   99SAPS   H5R 9919   5.241   2.157   6.736  2.6986 -0.9928  1.7878
   99SAPS   C26 9920   5.232   2.299   6.900  0.2779  0.8877  0.9070
   99SAPS   H6R 9921   5.226   2.221   6.977 -0.0074  2.1018  2.1444
   99SAPS   C27 9922   5.229   2.440   6.954 -0.3336  0.7896  0.2043
   99SAPS   H7R 9923   5.154   2.442   7.036 -0.0134  1.9725  0.4762
   99SAPS   H7S 9924   5.188   2.505   6.873 -3.9798  0.3478  1.4963
   99SAPS   C28 9925   5.372   2.485   7.007  1.0788  0.9244  0.0161
   99SAPS   H8R 9926   5.436   2.513   6.922  1.9366 -3.0190 -0.8693
   99SAPS   C29 9927   5.402   2.506   7.137 -0.4197 -0.3314 -0.0356
   99SAPS   H9R 9928   5.501   2.547   7.164 -0.2272  0.9554 -2.3986
   99SAPS  C210 9929   5.307   2.474   7.252 -0.0500 -0.2987 -0.4122
   99SAPS  H10R 9930   5.273   2.368   7.244 -0.5338 -0.5210  3.0958
   99SAPS  H10S 9931   5.215   2.536   7.246 -0.5532 -1.0598 -0.6767
   99SAPS  C211 9932   5.368   2.494   7.393  0.6766  0.8676 -0.0687
   99SAPS  H11R 9933   5.476   2.475   7.397  0.2640 -1.5550  0.9139
   99SAPS  C212 9934   5.301   2.526   7.511 -0.3871 -0.2093  0.5074
   99SAPS  H12R 9935   5.362   2.522   7.603 -1.1517 -2.0761  0.9843
   99SAPS  C213 9936   5.156   2.544   7.538  0.3181 -0.1912 -0.2641
   99SAPS  H13R 9937   5.138   2.502   7.639  1.3539  3.1952  1.4703
   99SAPS  H13S 9938   5.094   2.489   7.463 -1.2822  1.3709 -0.1584
   99SAPS  C214 9939   5.126   2.690   7.535 -0.1087  0.5742 -0.1931
   99SAPS  H14R 9940   5.177   2.756   7.463 -0.8237  0.8418 -0.4645
   99SAPS  C215 9941   5.042   2.756   7.616 -0.4256  1.0038  0.6552
   99SAPS  H15R 9942   5.039   2.865   7.625 -1.5391  0.9415  1.1832
   99SAPS  C216 9943   4.964   2.704   7.728  0.2414  0.4347  0.4261
   99SAPS  H16R 9944   4.976   2.594   7.739 -1.6352  0.0912 -0.5833
   99SAPS  H16S 9945   4.858   2.727   7.704  0.0307 -2.1047 -1.4308
   99SAPS  C217 9946   5.003   2.785   7.855 -0.1009  0.6114 -0.3376
   99SAPS  H17R 9947   4.923   2.772   7.932 -0.6360  2.0690 -0.6152
   99SAPS  H17S 9948   5.010   2.893   7.830 -1.1609  0.2536 -2.4418
   99SAPS  C218 9949   5.135   2.740   7.932  0.4400 -0.5122 -0.0570
   99SAPS  H18R 9950   5.213   2.727   7.853 -0.7546  0.6038 -1.4970
   99SAPS  H18S 9951   5.109   2.642   7.976  0.7750 -0.0206  1.2935
   99SAPS  C219 9952   5.173   2.828   8.049 -0.3295 -0.3588 -0.1550
   99SAPS  H19R 9953   5.093   2.905   8.055 -0.6450 -0.6445 -0.6679
   99SAPS  H19S 9954   5.267   2.885   8.035 -1.7518  1.8193 -1.3669
   99SAPS  C220 9955   5.180   2.755   8.181 -0.1016  0.1154 -0.6523
   99SAPS  H20R 9956   5.225   2.815   8.263  0.2699 -1.9731  0.7789
   99SAPS  H20S 9957   5.244   2.665   8.164  0.7431  0.8154 -1.2329
   99SAPS  H20T 9958   5.077   2.720   8.200 -0.4846 -0.3827 -3.2550
   99SAPS   C33 9959   4.808   2.678   6.671  0.4647  0.0254  0.6433
   99SAPS   H3X 9960   4.843   2.776   6.710  0.2491  0.6171 -0.5808
   99SAPS   H3Y 9961   4.892   2.644   6.607  0.1213  0.9812 -0.3597
   99SAPS   C34 9962   4.761   2.589   6.787  0.0908  0.2360  0.0157
   99SAPS   H4X 9963   4.753   2.482   6.757 -0.0543  0.3552 -0.3783
   99SAPS   H4Y 9964   4.662   2.630   6.815  0.8555  1.2061  1.4783
   99SAPS   C35 9965   4.859   2.612   6.909 -0.5810  0.2026  0.6410
   99SAPS   H5X 9966   4.871   2.718   6.939  1.1133  0.3541 -0.3871
   99SAPS   H5Y 9967   4.963   2.579   6.885 -1.8046 -2.3830 -1.5597
   99SAPS   C36 9968   4.795   2.524   7.016 -0.3693 -0.1868 -0.0953
   99SAPS   H6X 9969   4.811   2.416   6.994  0.3240  0.0699 -0.8916
   99SAPS   H6Y 9970   4.686   2.547   7.018 -0.3255 -0.0084  0.3043
   99SAPS   C37 9971   4.846   2.557   7.152  0.3974  0.2802 -0.8111
   99SAPS   H7X 9972   4.876   2.663   7.165 -1.7425  1.3666 -3.8160
   99SAPS   H7Y 9973   4.936   2.491   7.159  0.2149 -0.1515 -2.3543
   99SAPS   C38 9974   4.737   2.519   7.259  0.1681 -0.6427  0.2283
   99SAPS   H8X 9975   4.716   2.412   7.243 -4.9572  0.3255 -1.0953
   99SAPS   H8Y 9976   4.644   2.576   7.239 -0.2566 -1.1875  0.6435
   99SAPS   C39 9977   4.794   2.547   7.401 -0.6851  0.0815  0.1383
   99SAPS   H9X 9978   4.854   2.640   7.409  3.3170 -2.1758 -0.8449
   99SAPS   H9Y 9979   4.865   2.466   7.430 -1.1325  0.4932  2.6563
   99SAPS  C310 9980   4.679   2.531   7.503 -0.7711 -0.8927  0.3522
   99SAPS  H10X 9981   4.588   2.526   7.440 -0.8023 -1.0496  0.4090
   99SAPS  H10Y 9982   4.674   2.620   7.569  1.0582  0.6763 -1.4675
   99SAPS  C311 9983   4.696   2.407   7.590 -0.3412  0.2928  0.1854
   99SAPS  H11X 9984   4.797   2.419   7.634  0.0479  0.3606 -0.6951
   99SAPS  H11Y 9985   4.697   2.313   7.530 -1.7688 -0.8232  1.8324
   99SAPS  C312 9986   4.591   2.388   7.697 -0.9586  0.1481 -0.1714
   99SAPS  H12X 9987   4.594   2.491   7.740  1.9171 -0.0720  0.3850
   99SAPS  H12Y 9988   4.629   2.323   7.778  1.0346  2.1155  0.6021
   99SAPS  C313 9989   4.452   2.368   7.651  0.0372  0.2321  0.7737
   99SAPS  H13X 9990   4.458   2.277   7.588 -0.1782  0.1854  0.8197
   99SAPS  H13Y 9991   4.418   2.452   7.587 -2.4196 -0.5786  0.9022
   99SAPS  C314 9992   4.354   2.342   7.767  0.6564 -0.4455  0.3461
   99SAPS  H14X 9993   4.261   2.314   7.713  1.7292 -0.5579 -1.5712
   99SAPS  H14Y 9994   4.334   2.436   7.822 -1.0407 -1.4634  1.5625
   99SAPS  C315 9995   4.398   2.235   7.865 -0.2145 -0.2134 -0.2361
   99SAPS  H15X 9996   4.474   2.269   7.939 -0.8542 -1.5160  1.0604
   99SAPS  H15Y 9997   4.444   2.151   7.807 -0.7936 -0.7107  0.0191
   99SAPS  C316 9998   4.285   2.172   7.949 -0.2140 -0.4338 -0.2713
   99SAPS  H16X 9999   4.186   2.188   7.901 -1.0656 -1.6670  1.0059
   99SAPS  H16Y10000   4.275   2.223   8.047  0.8898 -1.3974  0.3598
   99SAPS  C31710001   4.292   2.021   7.957 -0.3869  0.7660  0.1897
   99SAPS  H17X10002   4.388   1.980   7.997 -1.9412 -0.4641  2.9834
   99SAPS  H17Y10003   4.294   1.995   7.850  3.4043  1.4419 -0.0614
   99SAPS  C31810004   4.179   1.972   8.041  0.3293  0.1000  0.7621
   99SAPS  H18X10005   4.091   2.035   8.015  0.3122  0.6896  2.1877
   99SAPS  H18Y10006   4.187   1.987   8.151 -0.0621 -1.9336  1.1135
   99SAPS  H18Z10007   4.164   1.863   8.021 -0.7987  0.6740 -1.9179
  100SAPS     N10008   1.548   3.656   6.100  0.0252 -0.5198  0.2433
  100SAPS   HN110009   1.533   3.604   6.011  0.4534  0.0566 -0.1712
  100SAPS   HN210010   1.641   3.642   6.144  0.3685 -0.2838 -0.3914
  100SAPS   HN310011   1.480   3.621   6.170  0.3226 -1.1549  0.2284
  100SAPS   C1210012   1.532   3.801   6.082 -0.7479 -0.7606  0.3737
  100SAPS  H12A10013   1.551   3.846   6.178  2.5894 -0.7430 -0.1822
  100SAPS   C1310014   1.651   3.852   5.989  0.5293 -0.5891 -0.2295
  100SAPS  O13A10015   1.724   3.779   5.913  0.1249 -0.7809  0.0134
  100SAPS  O13B10016   1.642   3.975   5.967  0.1732  0.0571  0.6489
  100SAPS   C1110017   1.394   3.845   6.020  0.2920  0.7975  0.2818
  100SAPS  H11A10018   1.391   3.817   5.912  3.6353 -0.6578  0.4364
  100SAPS  H11B10019   1.389   3.954   6.001  1.1566  0.7881 -0.0745
  100SAPS     P10020   1.185   3.687   6.060  0.1112  0.2285 -0.1006
  100SAPS   O1310021   1.103   3.728   5.944 -0.0075  0.3666  0.1403
  100SAPS   O1410022   1.259   3.561   6.046 -0.3400 -0.5213 -0.4286
  100SAPS   O1210023   1.279   3.811   6.099  0.1835 -0.1155 -0.3558
  100SAPS   O1110024   1.092   3.664   6.184  0.4607 -0.5656  0.5286
  100SAPS    C110025   1.096   3.728   6.308  0.5775 -1.2488 -0.1829
  100SAPS    HA10026   1.195   3.776   6.323 -0.6658  2.4051 -2.4417
  100SAPS    HB10027   1.021   3.808   6.292  3.0679  0.9717 -1.5575
  100SAPS    C210028   1.047   3.648   6.431  0.1389  0.1386  0.3906
  100SAPS    HS10029   1.087   3.544   6.423  0.7928  0.2413  1.9147
  100SAPS   O2110030   0.904   3.650   6.433 -0.1419  0.0049 -0.0256
  100SAPS   C2110031   0.840   3.535   6.466  0.1054  0.0548 -0.2037
  100SAPS   O2210032   0.893   3.427   6.462  0.2187 -0.4362 -0.1894
  100SAPS   C2210033   0.695   3.565   6.485 -0.3991  0.0628  0.2793
  100SAPS   H2R10034   0.676   3.665   6.441 -1.8605 -1.4439 -2.8266
  100SAPS   H2S10035   0.639   3.497   6.418 -2.1339  0.8145  0.9068
  100SAPS    C310036   1.100   3.705   6.574  0.2153 -0.1480  0.6508
  100SAPS    HX10037   1.101   3.816   6.563  0.0509 -0.3520 -2.4324
  100SAPS    HY10038   1.203   3.662   6.572  0.9270  1.4892 -0.1350
  100SAPS   O3110039   1.023   3.671   6.687  0.1676 -0.5791 -0.4493
  100SAPS   C3110040   1.088   3.697   6.801  0.5183  0.8357 -0.1342
  100SAPS   O3210041   1.193   3.761   6.802 -0.3087  0.2138 -0.3511
  100SAPS   C3210042   1.000   3.655   6.922 -0.3458 -0.3098 -0.4527
  100SAPS   H2X10043   0.996   3.545   6.907  0.5888 -0.2543 -1.2361
  100SAPS   H2Y10044   0.899   3.698   6.904  0.4111  1.4052 -0.8197
  100SAPS   C2310045   0.637   3.534   6.625 -0.6464 -0.0405 -0.4070
  100SAPS   H3R10046   0.690   3.445   6.665  0.4936  1.6912  2.2258
  100SAPS   H3S10047   0.528   3.518   6.620 -1.4469  3.1553  2.5591
  100SAPS   C2410048   0.667   3.644   6.729  0.4728 -0.3240 -0.0929
  100SAPS   H4R10049   0.776   3.669   6.738  0.5349 -0.8915  0.9030
  100SAPS   H4S10050   0.647   3.589   6.823  1.1433 -0.0978  0.1907
  100SAPS   C2510051   0.590   3.772   6.727  0.0425  0.4374  0.1887
  100SAPS   H5R10052   0.591   3.832   6.635 -0.7835  1.2816  0.7102
  100SAPS   C2610053   0.515   3.817   6.831 -0.4102 -0.7804  0.9619
  100SAPS   H6R10054   0.452   3.902   6.803  1.6075  0.0988 -1.3489
  100SAPS   C2710055   0.490   3.739   6.953  0.2710  0.0038 -0.6528
  100SAPS   H7R10056   0.465   3.633   6.931 -0.8310  0.2852 -0.7924
  100SAPS   H7S10057   0.395   3.777   6.994  0.2820  0.6701 -1.2268
  100SAPS   C2810058   0.597   3.759   7.060 -0.0037 -0.4012 -0.3033
  100SAPS   H8R10059   0.702   3.751   7.029 -0.0374  1.0250 -0.8271
  100SAPS   C2910060   0.576   3.800   7.188 -0.7937 -0.6083  0.1428
  100SAPS   H9R10061   0.665   3.821   7.249 -0.5633 -1.8308  0.2502
  100SAPS  C21010062   0.448   3.837   7.251 -0.2485 -1.0574 -0.2643
  100SAPS  H10R10063   0.394   3.908   7.184  0.7797 -0.3669 -0.3886
  100SAPS  H10S10064   0.480   3.902   7.336 -0.5281 -0.9994 -0.2020
  100SAPS  C21110065   0.347   3.733   7.290 -0.4638  0.3315  0.6691
  100SAPS  H11R10066   0.344   3.652   7.215  1.2851  1.8173 -1.1142
  100SAPS  C21210067   0.271   3.727   7.409 -0.1044  0.1970 -0.0864
  100SAPS  H12R10068   0.203   3.642   7.427  0.4953 -0.3092 -0.1758
  100SAPS  C21310069   0.277   3.815   7.531  0.1619 -0.1952  0.0202
  100SAPS  H13R10070   0.367   3.880   7.528 -1.0289  1.7068  2.2476
  100SAPS  H13S10071   0.291   3.761   7.627  0.1678 -0.9089 -0.3763
  100SAPS  C21410072   0.164   3.915   7.535 -0.1187 -0.1812  0.4584
  100SAPS  H14R10073   0.156   3.984   7.449  1.4717  2.1856  2.1087
  100SAPS  C21510074   0.062   3.910   7.622  0.3347 -0.7133  0.5135
  100SAPS  H15R10075  -0.018   3.985   7.606 -0.3578 -1.8334 -1.7086
  100SAPS  C21610076   0.037   3.807   7.739 -0.4773  0.5269 -0.0525
  100SAPS  H16R10077   0.130   3.757   7.771  0.3031  0.1716 -2.6971
  100SAPS  H16S10078  -0.037   3.738   7.692 -1.4927  1.6862 -0.2188
  100SAPS  C21710079  -0.030   3.867   7.859 -0.0784  0.1024 -0.4487
  100SAPS  H17R10080  -0.122   3.918   7.822  1.4731  2.2036 -1.5935
  100SAPS  H17S10081   0.035   3.948   7.897  2.5891 -2.0924  0.0440
  100SAPS  C21810082  -0.065   3.775   7.985  0.2661  0.1504 -0.0880
  100SAPS  H18R10083  -0.108   3.823   8.075  2.6618 -0.8549  1.7126
  100SAPS  H18S10084   0.034   3.731   8.013 -0.5291 -2.4923 -1.0568
  100SAPS  C21910085  -0.150   3.652   7.948 -1.2091 -0.4421 -0.3279
  100SAPS  H19R10086  -0.099   3.584   7.877  0.9343 -0.7363  1.3969
  100SAPS  H19S10087  -0.246   3.693   7.908 -0.5376 -0.2999 -1.8935
  100SAPS  C22010088  -0.188   3.583   8.081  0.1401 -0.5726 -0.4432
  100SAPS  H20R10089  -0.102   3.554   8.145  0.7009  0.3765 -0.7435
  100SAPS  H20S10090  -0.242   3.487   8.068 -1.0362 -0.2125  1.3968
  100SAPS  H20T10091  -0.258   3.654   8.131 -2.0013  0.2603 -4.2291
  100SAPS   C3310092   1.051   3.710   7.055 -0.9012 -0.0263  0.2612
  100SAPS   H3X10093   1.048   3.821   7.054 -0.9184 -0.0293 -0.1296
  100SAPS   H3Y10094   1.158   3.682   7.070 -0.7502 -0.2497 -1.0703
  100SAPS   C3410095   0.977   3.657   7.181  0.3106 -0.5668  0.5015
  100SAPS   H4X10096   0.990   3.547   7.189  0.4758 -0.4285  2.7251
  100SAPS   H4Y10097   0.866   3.659   7.177  0.2348 -1.0650  1.9380
  100SAPS   C3510098   1.015   3.730   7.307  0.1806 -0.0347 -0.3602
  100SAPS   H5X10099   0.995   3.839   7.297 -1.2280 -0.3885 -1.9127
  100SAPS   H5Y10100   1.125   3.723   7.317  0.2139 -1.2562 -1.2624
  100SAPS   C3610101   0.951   3.672   7.439  1.0485  0.0931  1.0627
  100SAPS   H6X10102   0.970   3.565   7.462 -1.7704 -0.3277  1.9007
  100SAPS   H6Y10103   0.842   3.693   7.439  1.0845  0.2994  1.9743
  100SAPS   C3710104   1.003   3.753   7.559  0.5437  0.5377 -0.3397
  100SAPS   H7X10105   0.944   3.845   7.577  0.0300  0.5913 -2.0536
  100SAPS   H7Y10106   1.107   3.789   7.543  0.4658  1.5856  1.3563
  100SAPS   C3810107   1.014   3.659   7.681 -0.0856 -0.1091  0.5199
  100SAPS   H8X10108   1.093   3.584   7.656  1.1204  1.3595 -0.2658
  100SAPS   H8Y10109   0.918   3.610   7.707 -1.0065  0.8752 -0.9223
  100SAPS   C3910110   1.068   3.726   7.805 -0.1767  0.4284 -0.6784
  100SAPS   H9X10111   0.997   3.801   7.847 -0.6455 -0.2848 -0.1577
  100SAPS   H9Y10112   1.159   3.779   7.773 -0.5192 -0.3446 -3.1366
  100SAPS  C31010113   1.090   3.623   7.919 -0.6395  0.2628  0.2451
  100SAPS  H10X10114   1.177   3.641   7.985 -0.1098 -1.5961  0.0987
  100SAPS  H10Y10115   1.122   3.523   7.884 -2.4886  0.3193 -1.8619
  100SAPS  C31110116   0.961   3.611   8.000 -0.3258  0.3953 -0.3060
  100SAPS  H11X10117   0.885   3.566   7.933 -1.6724  3.2344 -0.8039
  100SAPS  H11Y10118   0.925   3.711   8.032 -1.6002  0.3453 -1.4726
  100SAPS  C31210119   0.975   3.522   8.122 -0.4052 -0.3221  0.1872
  100SAPS  H12X10120   1.069   3.546   8.177  0.0292  1.0806 -1.0838
  100SAPS  H12Y10121   0.989   3.422   8.075  1.6545  0.3174 -0.6907
  100SAPS  C31310122   0.858   3.531   8.217  0.0199 -0.5102  0.6949
  100SAPS  H13X10123   0.771   3.486   8.164  0.5269 -0.1060 -0.5264
  100SAPS  H13Y10124   0.846   3.635   8.255  0.5475 -0.5442  0.9635
  100SAPS  C31410125   0.891   3.455   8.344  0.3994  0.4071  0.3859
  100SAPS  H14X10126   0.809   3.486   8.413 -1.2500 -0.9030 -0.9019
  100SAPS  H14Y10127   0.998   3.465   8.374  0.5319  0.4968 -0.1114
  100SAPS  C31510128   0.852   3.308   8.329 -0.2822 -0.0514 -0.7221
  100SAPS  H15X10129   0.907   3.263   8.244 -0.6376 -0.6842 -0.6244
  100SAPS  H15Y10130   0.743   3.294   8.313 -0.3489 -0.1532 -0.2247
  100SAPS  C31610131   0.890   3.233   8.452  0.7672 -0.1326  0.1693
  100SAPS  H16X10132   0.791   3.209   8.495  1.1309 -0.9057  0.6005
  100SAPS  H16Y10133   0.942   3.296   8.527  1.3723 -0.1005 -0.2655
  100SAPS  C31710134   0.978   3.103   8.429  0.2838  0.3057 -0.1769
  100SAPS  H17X10135   1.082   3.130   8.400  0.6826 -1.4576 -0.4595
  100SAPS  H17Y10136   0.938   3.049   8.340  0.3979  0.9848 -0.6559
  100SAPS  C31810137   0.981   3.015   8.559 -0.0265 -0.8187  0.4062
  100SAPS  H18X10138   0.878   2.980   8.584  0.1078 -1.2777  0.3241
  100SAPS  H18Y10139   1.015   3.079   8.643 -1.2183 -0.1980  0.4480
  100SAPS  H18Z10140   1.049   2.928   8.551  1.0577 -0.0842  1.3602
  101OSM      N10141   6.358   1.592  11.058  0.7709 -0.4565 -0.2789
  101OSM    C1510142   6.433   1.723  11.034 -0.0448  0.1369 -0.3311
  101OSM   H15A10143   6.527   1.706  10.984 -0.3120  2.0495 -1.6001
  101OSM   H15B10144   6.451   1.780  11.124 -0.0729 -0.8041  0.2841
  101OSM   H15C10145   6.373   1.789  10.973  0.1349 -1.0066 -1.8227
  101OSM    C1410146   6.404   1.551  11.192  0.3402  0.7492 -0.6182
  101OSM   H14A10147   6.353   1.458  11.215  1.0544  0.1094 -1.5391
  101OSM   H14B10148   6.377   1.615  11.275 -0.2940 -0.6120  0.2682
  101OSM   H14C10149   6.511   1.533  11.190  0.5185  1.8277 -1.1403
  101OSM    C1310150   6.216   1.624  11.068 -0.1357 -0.3475 -0.2517
  101OSM   H13A10151   6.156   1.545  11.111  1.9260 -1.3158  1.0062
  101OSM   H13B10152   6.174   1.655  10.973 -0.7240  1.5398  0.5930
  101OSM   H13C10153   6.208   1.698  11.146  0.3805 -0.3307 -0.2119
  101OSM    C1210154   6.396   1.487  10.955  0.7222  0.3662  1.0778
  101OSM   H12A10155   6.356   1.392  10.988  0.1602 -0.0567 -0.7312
  101OSM   H12B10156   6.504   1.485  10.964  0.8846  2.7945  0.4646
  101OSM    C1110157   6.364   1.502  10.799  0.1319  0.1822 -0.2940
  101OSM   H11A10158   6.257   1.528  10.789 -0.1229 -0.7750 -0.1922
  101OSM   H11B10159   6.375   1.407  10.741  1.8532  0.5843 -0.7009
  101OSM      P10160   6.577   1.572  10.670  0.0299  0.4067  0.0638
  101OSM    O1310161   6.675   1.679  10.699 -0.2606  0.9761 -0.0718
  101OSM    O1410162   6.611   1.432  10.703 -0.1062  0.1830 -0.4842
  101OSM    O1110163   6.556   1.586  10.520  0.0810 -0.4626  0.3761
  101OSM    O1210164   6.437   1.607  10.744  0.5284 -0.0622  0.1012
  101OSM    C1S10165   6.519   1.714  10.465 -0.2776  0.0580  0.3759
  101OSM    H1S10166   6.569   1.799  10.516 -0.6600  0.4199  0.1451
  101OSM    H1T10167   6.409   1.724  10.478 -0.3776  1.1694 -1.1447
  101OSM     NF10168   6.556   1.862  10.282  0.1993  0.1379  0.3399
  101OSM    HNF10169   6.474   1.917  10.263 -0.4070 -0.6901  0.5103
  101OSM    C2S10170   6.549   1.721  10.315  0.0360  0.2811  0.6892
  101OSM    H2S10171   6.644   1.669  10.291 -0.4086 -1.6382  2.7619
  101OSM    C3S10172   6.437   1.631  10.249  0.0277  1.0242  0.3034
  101OSM    H3S10173   6.337   1.675  10.268  0.2199  0.6287  2.4395
  101OSM     O310174   6.425   1.498  10.302  0.1837  0.1048  0.9145
  101OSM    HO310175   6.475   1.499  10.384 -0.4211  1.3439  1.2872
  101OSM    C4S10176   6.462   1.632  10.101  0.0701 -0.1021 -0.2673
  101OSM    H4S10177   6.423   1.723  10.052 -1.6862 -0.1248  0.9982
  101OSM    C5S10178   6.533   1.543  10.032 -0.0437 -0.3794 -0.3430
  101OSM    H5S10179   6.592   1.465  10.083  0.0973  0.4167  0.7614
  101OSM    C6S10180   6.551   1.554   9.887  0.2129 -0.1804  0.5007
  101OSM    H6S10181   6.658   1.571   9.863 -0.0951 -0.5873 -1.3047
  101OSM    H6T10182   6.493   1.640   9.847  1.4484  0.3732 -0.1741
  101OSM    C7S10183   6.488   1.440   9.812  0.1866 -0.1949  0.4121
  101OSM    H7S10184   6.380   1.467   9.804  0.4480  0.3419 -1.9008
  101OSM    H7T10185   6.498   1.347   9.871 -0.2304 -0.8995 -0.6040
  101OSM    C8S10186   6.548   1.399   9.675  0.4972 -0.0771 -0.3640
  101OSM    H8S10187   6.559   1.289   9.674  0.4201 -0.0854 -0.2623
  101OSM    H8T10188   6.642   1.458   9.670 -0.9701  2.3230 -1.5044
  101OSM    C9S10189   6.467   1.442   9.556 -0.0099 -0.3713  1.0588
  101OSM    H9S10190   6.443   1.550   9.570 -2.6752 -0.9279  1.2938
  101OSM    H9T10191   6.382   1.377   9.528 -0.8225  2.0517 -2.8733
  101OSM   C10S10192   6.551   1.430   9.428  0.2429 -0.6121 -0.2586
  101OSM   H10S10193   6.600   1.330   9.420  1.4902 -0.1801  1.3493
  101OSM   H10T10194   6.639   1.498   9.433 -1.0517  1.0673  0.2403
  101OSM   C11S10195   6.473   1.468   9.302 -0.5638  0.6925 -0.4962
  101OSM   H11S10196   6.442   1.574   9.314 -3.2038 -0.2466  2.4764
  101OSM   H11T10197   6.379   1.409   9.291 -0.0008 -0.0266 -1.7344
  101OSM   C12S10198   6.562   1.460   9.170 -0.0813 -0.0313 -0.0478
  101OSM   H12S10199   6.662   1.507   9.186 -0.5537  1.2359 -0.6892
  101OSM   H12T10200   6.519   1.516   9.084 -0.4535 -0.3829 -0.0896
  101OSM   C13S10201   6.577   1.310   9.121  0.0890 -0.2431 -0.2495
  101OSM   H13S10202   6.638   1.251   9.192 -1.8379 -1.0987  0.7844
  101OSM   H13T10203   6.634   1.317   9.026 -2.4073 -0.5132 -1.8782
  101OSM   C14S10204   6.455   1.229   9.095  0.9390 -0.8033 -0.0853
  101OSM   H14S10205   6.391   1.285   9.023  0.6782 -1.3276 -0.2640
  101OSM   H14T10206   6.401   1.212   9.190  0.9933 -0.2453  0.0490
  101OSM   C15S10207   6.473   1.087   9.043  0.0292 -0.0309  0.3601
  101OSM   H15S10208   6.381   1.030   9.067  1.0821 -3.0257 -2.0662
  101OSM   H15T10209   6.555   1.036   9.098 -0.1149  0.3027  0.8936
  101OSM   C16S10210   6.508   1.073   8.888  0.3047  0.8284 -0.9087
  101OSM   H16S10211   6.498   0.965   8.867  1.5709  0.4291  0.3598
  101OSM   H16T10212   6.612   1.087   8.852  1.3293 -0.9701  1.1468
  101OSM   C17S10213   6.407   1.153   8.794  0.4431 -0.2724 -0.1536
  101OSM   H17S10214   6.411   1.259   8.826 -0.1319  0.0445 -1.1103
  101OSM   H17T10215   6.314   1.096   8.817  0.5676 -0.0034  1.1209
  101OSM   C18S10216   6.448   1.144   8.642  0.1500  0.0341 -0.3064
  101OSM   H18S10217   6.353   1.163   8.587  1.0530  2.9680 -1.0400
  101OSM   H18T10218   6.477   1.039   8.621 -1.7636 -1.1722  2.3613
  101OSM   H18U10219   6.520   1.222   8.610 -1.1370  1.2244 -0.4130
  101OSM    C1F10220   6.677   1.922  10.311  0.7281  0.2438 -0.4462
  101OSM     OF10221   6.778   1.858  10.343 -0.6366 -0.6169 -0.4358
  101OSM    C2F10222   6.675   2.070  10.295  0.3349 -0.2267  0.1822
  101OSM    H2F10223   6.676   2.124  10.393  0.1072 -0.1016  0.1172
  101OSM    H2G10224   6.584   2.096  10.237  1.3485  2.0409 -0.5128
  101OSM    C3F10225   6.802   2.110  10.213 -0.4636  0.0838 -0.6275
  101OSM    H3F10226   6.890   2.083  10.274 -0.8226  0.1104 -0.0947
  101OSM    H3G10227   6.803   2.221  10.212  2.5044  0.2406  2.6951
  101OSM    C4F10228   6.809   2.039  10.083  0.2308 -0.3926  0.6546
  101OSM    H4F10229   6.826   1.929  10.087  1.5513 -0.1733  1.5649
  101OSM    H4G10230   6.891   2.077  10.018 -0.7363 -0.1601 -0.4650
  101OSM    C5F10231   6.687   2.051   9.992 -0.5134  0.2720 -0.1753
  101OSM    H5F10232   6.629   2.145  10.003 -1.4964 -0.3069 -0.2388
  101OSM    H5G10233   6.616   1.970  10.020  1.0904 -0.0228  3.5659
  101OSM    C6F10234   6.715   2.019   9.843 -0.1073  0.1845 -0.6527
  101OSM    H6F10235   6.778   1.928   9.838  1.5097  1.0130  2.1638
  101OSM    H6G10236   6.776   2.100   9.797 -0.2672  2.5191  2.8135
  101OSM    C7F10237   6.591   2.003   9.756  0.8805 -1.0722 -1.0110
  101OSM    H7F10238   6.518   2.086   9.755  2.7500  0.6641 -1.7014
  101OSM    H7G10239   6.533   1.922   9.804 -2.2261  1.5989  0.1409
  101OSM    C8F10240   6.623   1.971   9.610 -0.2000 -0.0235  0.2305
  101OSM    H8F10241   6.716   2.029   9.592  0.3475 -0.9152  0.1630
  101OSM    H8G10242   6.546   2.011   9.541  2.4999 -3.2311 -5.2581
  101OSM    C9F10243   6.657   1.834   9.575  0.0468  0.3489  0.0859
  101OSM    H9F10244   6.617   1.755   9.640 -1.9550  1.0983 -0.1681
  101OSM   C10F10245   6.738   1.800   9.465  0.0295 -0.4239  0.8604
  101OSM   H10F10246   6.751   1.694   9.441 -0.3978 -0.3989  0.5131
  101OSM   C11F10247   6.785   1.900   9.360  0.2999  0.4615  0.4330
  101OSM   H11F10248   6.896   1.904   9.359  0.3092  0.3750 -0.7255
  101OSM   H11G10249   6.755   2.002   9.390  3.1888  0.6912  3.0136
  101OSM   C12F10250   6.725   1.855   9.221 -0.6189  0.5852  0.1542
  101OSM   H12F10251   6.615   1.866   9.233 -0.9053 -0.9681 -0.6831
  101OSM   H12G10252   6.741   1.746   9.205 -1.3153  0.8942 -3.4273
  101OSM   C13F10253   6.773   1.923   9.091  0.0874  0.6824 -0.3722
  101OSM   H13F10254   6.755   2.033   9.092 -0.1430  0.6804  1.6394
  101OSM   H13G10255   6.707   1.881   9.012 -1.4310 -0.9485  1.6449
  101OSM   C14F10256   6.916   1.886   9.054  0.0023  0.3911 -0.3583
  101OSM   H14F10257   6.907   1.782   9.016  0.2259  0.8311 -1.6559
  101OSM   H14G10258   6.984   1.899   9.141 -0.9222  0.1026  0.4273
  101OSM   C15F10259   6.959   1.966   8.938  0.2721  0.5426  0.8387
  101OSM   H15F10260   6.938   2.075   8.938  1.2321  0.7439  0.2411
  101OSM   H15G10261   6.910   1.932   8.844  1.1796  0.9164  0.2109
  101OSM   C16F10262   7.107   1.944   8.907 -0.5326  0.0221  0.5941
  101OSM   H16F10263   7.111   1.853   8.843 -0.8941  1.9127 -2.3011
  101OSM   H16G10264   7.163   1.918   9.000 -0.5792 -1.8571  0.1396
  101OSM   C17F10265   7.180   2.060   8.832  0.1885 -0.1174 -0.3689
  101OSM   H17F10266   7.288   2.036   8.826  0.4032  1.1072 -2.9847
  101OSM   H17G10267   7.175   2.151   8.895  2.3852  0.5640 -1.0998
  101OSM   C18F10268   7.128   2.096   8.699  0.5494 -0.1537 -0.2939
  101OSM   H18F10269   7.173   2.186   8.653 -0.0118  0.2910  0.0039
  101OSM   H18G10270   7.018   2.112   8.704  0.4265 -1.1790  0.5413
  101OSM   H18H10271   7.156   2.009   8.637  1.4220 -0.1998  0.1459
  102OSM      N10272   5.905   6.806  10.611  0.2149 -0.4917 -0.4835
  102OSM    C1510273   6.043   6.758  10.577 -0.4097 -0.3155 -0.1499
  102OSM   H15A10274   6.039   6.672  10.512 -1.1537 -0.6180  0.2784
  102OSM   H15B10275   6.110   6.750  10.661 -1.3448  3.9597  1.2461
  102OSM   H15C10276   6.087   6.836  10.516  0.9400 -1.6001 -0.8703
  102OSM    C1410277   5.937   6.931  10.687  0.0007 -0.6687  0.4925
  102OSM   H14A10278   5.987   7.003  10.625  1.0443  0.3274  2.4102
  102OSM   H14B10279   5.993   6.922  10.779 -0.0390  3.3731  1.0810
  102OSM   H14C10280   5.847   6.981  10.718  0.9923  0.3212  1.8814
  102OSM    C1310281   5.825   6.836  10.491 -0.3698 -0.1550  0.2258
  102OSM   H13A10282   5.733   6.887  10.514 -0.9396 -0.7037 -0.7859
  102OSM   H13B10283   5.796   6.745  10.442  0.5714 -1.2246  1.5914
  102OSM   H13C10284   5.885   6.901  10.428  0.3522 -1.2801 -0.2876
  102OSM    C1210285   5.827   6.716  10.698  0.2653  0.1639 -0.0954
  102OSM   H12A10286   5.885   6.683  10.783 -0.9872  1.4436  1.3207
  102OSM   H12B10287   5.812   6.624  10.643  0.6565 -0.1361  0.2843
  102OSM    C1110288   5.703   6.767  10.770 -0.0217  0.0723 -0.3276
  102OSM   H11A10289   5.711   6.855  10.838 -1.8433 -1.4468  1.9961
  102OSM   H11B10290   5.676   6.698  10.853 -2.0478  1.8536  0.5908
  102OSM      P10291   5.512   6.673  10.632  0.3791  0.4595 -0.2081
  102OSM    O1310292   5.598   6.551  10.611  0.1149 -0.0881  0.1111
  102OSM    O1410293   5.392   6.651  10.716 -0.4122  0.5136 -0.5946
  102OSM    O1110294   5.464   6.729  10.484  0.8912 -0.5902 -0.7404
  102OSM    O1210295   5.596   6.794  10.686  0.2155  0.3346  0.4681
  102OSM    C1S10296   5.369   6.838  10.479  0.0612 -0.1114  0.1008
  102OSM    H1S10297   5.422   6.936  10.474 -0.5520  0.1855 -0.9104
  102OSM    H1T10298   5.298   6.836  10.564  1.0700 -2.3589  0.9508
  102OSM     NF10299   5.240   6.968  10.319  0.5146  0.0518  0.4444
  102OSM    HNF10300   5.141   6.977  10.333  0.6726  0.0171  1.7442
  102OSM    C2S10301   5.294   6.841  10.341 -0.9304  0.5066 -0.0117
  102OSM    H2S10302   5.354   6.804  10.255 -0.4028  0.7617  0.2430
  102OSM    C3S10303   5.184   6.730  10.354  0.2352 -0.4819 -0.0154
  102OSM    H3S10304   5.106   6.769  10.422  1.4498  0.8840  0.6375
  102OSM     O310305   5.240   6.610  10.410  0.5061  0.0876  0.3485
  102OSM    HO310306   5.325   6.628  10.450  0.3829 -0.8669  1.0882
  102OSM    C4S10307   5.111   6.720  10.219 -0.0273 -0.0824  0.8619
  102OSM    H4S10308   5.035   6.798  10.199  1.2262  1.4680  1.8789
  102OSM    C5S10309   5.139   6.633  10.112  0.9980  0.7213 -0.7528
  102OSM    H5S10310   5.217   6.561  10.138 -0.3762  0.0507  1.7496
  102OSM    C6S10311   5.075   6.617   9.975  1.1210 -0.4228  0.3429
  102OSM    H6S10312   5.151   6.595   9.898  1.5119  0.3511  0.4937
  102OSM    H6T10313   5.053   6.718   9.934  1.7896  0.4152  1.9365
  102OSM    C7S10314   4.950   6.528   9.973  0.1676 -0.0172  0.4507
  102OSM    H7S10315   4.870   6.582  10.028  2.3446  3.9300  0.0403
  102OSM    H7T10316   4.971   6.434  10.029  1.0864  0.2566  0.5735
  102OSM    C8S10317   4.886   6.492   9.831 -0.3080 -0.4313  0.4628
  102OSM    H8S10318   4.793   6.436   9.853 -0.7386  0.8611  2.2130
  102OSM    H8T10319   4.963   6.439   9.770 -1.1371  1.1159 -2.0921
  102OSM    C9S10320   4.832   6.622   9.750 -0.1371  0.8474  0.1896
  102OSM    H9S10321   4.909   6.698   9.728  2.2762 -0.9655  1.8248
  102OSM    H9T10322   4.751   6.671   9.809  0.2095  4.1315 -1.8239
  102OSM   C10S10323   4.773   6.576   9.618 -0.4393  0.4219 -0.5200
  102OSM   H10S10324   4.704   6.655   9.581 -0.2526  2.4109  2.9147
  102OSM   H10T10325   4.706   6.489   9.634 -2.4067  1.4798 -2.4231
  102OSM   C11S10326   4.872   6.540   9.511 -0.6349 -0.4141  0.1668
  102OSM   H11S10327   4.922   6.443   9.534  0.3428 -0.1554 -0.7886
  102OSM   H11T10328   4.950   6.618   9.512 -0.7261 -0.3232  0.1771
  102OSM   C12S10329   4.802   6.536   9.371 -0.1087 -0.2772  0.0188
  102OSM   H12S10330   4.765   6.639   9.354  0.1320  0.0690  1.4571
  102OSM   H12T10331   4.713   6.471   9.384 -0.7623  0.2054 -1.7317
  102OSM   C13S10332   4.894   6.482   9.264  0.5951  0.4315  0.1726
  102OSM   H13S10333   4.839   6.446   9.174 -2.9979 -0.4754  2.5483
  102OSM   H13T10334   4.941   6.392   9.309 -1.3050  0.1444  1.7046
  102OSM   C14S10335   5.003   6.584   9.214 -0.1704  0.2951 -0.3210
  102OSM   H14S10336   5.056   6.631   9.299  1.1714  0.1536 -1.0443
  102OSM   H14T10337   4.954   6.667   9.160 -2.6494 -1.1811 -0.4869
  102OSM   C15S10338   5.096   6.515   9.118  1.2756 -0.3778 -0.2423
  102OSM   H15S10339   5.115   6.407   9.131  0.4024 -0.3628  1.4714
  102OSM   H15T10340   5.192   6.568   9.136  1.5012 -1.4517  2.0830
  102OSM   C16S10341   5.048   6.540   8.975  0.0255  0.6289 -0.4434
  102OSM   H16S10342   5.023   6.644   8.948 -1.4548  0.8038  1.3951
  102OSM   H16T10343   4.951   6.490   8.954 -0.1045  0.1691  1.1648
  102OSM   C17S10344   5.160   6.530   8.859 -0.2234 -0.0579  0.2922
  102OSM   H17S10345   5.265   6.524   8.896 -0.6067 -0.9012  1.2863
  102OSM   H17T10346   5.154   6.620   8.794  1.5423 -1.5431 -2.0861
  102OSM   C18S10347   5.139   6.414   8.762  0.1538 -0.6792 -0.3739
  102OSM   H18S10348   5.164   6.317   8.810  0.9615 -1.4041 -2.1616
  102OSM   H18T10349   5.228   6.436   8.698  0.0961  1.3841  0.1756
  102OSM   H18U10350   5.043   6.409   8.707 -0.1824 -2.8843  0.3318
  102OSM    C1F10351   5.316   7.075  10.284  0.1548  0.1239 -0.2018
  102OSM     OF10352   5.432   7.059  10.267 -0.7847  0.4353  0.1775
  102OSM    C2F10353   5.247   7.212  10.279 -0.2373 -0.7415 -0.2905
  102OSM    H2F10354   5.323   7.289  10.256  0.7665 -1.5578  0.2141
  102OSM    H2G10355   5.207   7.235  10.380  0.0655 -1.5094  0.0150
  102OSM    C3F10356   5.138   7.221  10.171 -0.7186 -0.0089 -0.0064
  102OSM    H3F10357   5.105   7.327  10.161 -1.3374 -0.1227  0.7449
  102OSM    H3G10358   5.056   7.151  10.197  0.0297 -0.5973  0.8282
  102OSM    C4F10359   5.180   7.192  10.028 -0.1432  0.1693  0.2782
  102OSM    H4F10360   5.214   7.086  10.018  0.8497  0.5543 -0.5872
  102OSM    H4G10361   5.266   7.260  10.011 -0.7583  1.1177  0.8608
  102OSM    C5F10362   5.085   7.237   9.917 -0.5780  0.1274  0.4099
  102OSM    H5F10363   5.141   7.242   9.822  1.4720  1.2053  1.6112
  102OSM    H5G10364   5.050   7.341   9.933  2.5353  1.7193 -2.1658
  102OSM    C6F10365   4.960   7.144   9.894  0.4764  0.4464 -0.2192
  102OSM    H6F10366   4.910   7.113   9.988 -1.2997  1.9798 -0.6137
  102OSM    H6G10367   5.003   7.058   9.838  0.4876 -0.5776  1.3052
  102OSM    C7F10368   4.854   7.206   9.808 -0.3703 -0.3032 -0.4778
  102OSM    H7F10369   4.911   7.249   9.723  1.8249 -0.3818  0.8730
  102OSM    H7G10370   4.813   7.296   9.858  0.3508  0.7379 -1.6850
  102OSM    C8F10371   4.738   7.118   9.755  0.6922 -0.1681  0.5274
  102OSM    H8F10372   4.674   7.180   9.688  0.6526  0.6364  1.2842
  102OSM    H8G10373   4.680   7.078   9.841  0.6573 -0.2811  0.4506
  102OSM    C9F10374   4.810   7.003   9.688  0.1014 -0.9727 -0.1985
  102OSM    H9F10375   4.822   6.912   9.749  0.0239 -2.5340 -2.4002
  102OSM   C10F10376   4.862   7.003   9.562 -0.2442  0.3764 -0.2844
  102OSM   H10F10377   4.898   6.911   9.513 -2.1589 -0.0454 -0.9985
  102OSM   C11F10378   4.856   7.112   9.459 -0.1377 -0.6500  0.7967
  102OSM   H11F10379   4.958   7.153   9.438 -0.9313  0.7897 -0.4160
  102OSM   H11G10380   4.784   7.184   9.502  0.4753 -0.1549  1.0172
  102OSM   C12F10381   4.798   7.063   9.329 -0.2129  0.2206  0.0545
  102OSM   H12F10382   4.770   7.156   9.274  1.6834  0.1830 -1.0550
  102OSM   H12G10383   4.698   7.017   9.345 -1.4208  1.9335 -2.0095
  102OSM   C13F10384   4.899   6.967   9.253  0.3633  0.2377 -0.1300
  102OSM   H13F10385   4.931   6.878   9.311 -1.1542  0.1689  0.6660
  102OSM   H13G10386   4.988   7.026   9.222  0.8364 -0.8513 -0.8783
  102OSM   C14F10387   4.839   6.904   9.129  0.3217  0.4616 -0.3943
  102OSM   H14F10388   4.773   6.818   9.155  1.1439 -0.4832 -1.3312
  102OSM   H14G10389   4.915   6.867   9.057  1.6857  0.7073  0.8805
  102OSM   C15F10390   4.758   7.015   9.048  0.2452  0.2409  0.5219
  102OSM   H15F10391   4.826   7.102   9.043  1.4114 -0.4825  2.6777
  102OSM   H15G10392   4.666   7.042   9.105  1.3769  0.6460  2.2269
  102OSM   C16F10393   4.699   6.969   8.909  0.5064 -0.6361  0.7157
  102OSM   H16F10394   4.641   6.875   8.918 -0.5927 -0.0275  0.2118
  102OSM   H16G10395   4.787   6.946   8.845  0.4134  2.3436 -0.6560
  102OSM   C17F10396   4.618   7.080   8.836  0.9593  0.1128  0.0044
  102OSM   H17F10397   4.686   7.168   8.824  0.7168  0.3764  0.5030
  102OSM   H17G10398   4.527   7.112   8.891  0.8655  0.9407 -0.6058
  102OSM   C18F10399   4.575   7.034   8.697  0.1449  0.3095  0.1830
  102OSM   H18F10400   4.542   7.117   8.630 -0.3992  1.4109  1.7505
  102OSM   H18G10401   4.501   6.951   8.700 -0.8008  1.0807 -0.8167
  102OSM   H18H10402   4.665   6.989   8.651 -0.8345 -1.5345 -0.0230
  103OSM      N10403   0.834   6.111  10.957 -0.4536 -0.2866  0.2451
  103OSM    C1510404   0.756   6.235  10.982 -0.0548 -0.1972 -0.0068
  103OSM   H15A10405   0.652   6.225  10.957 -0.0175  0.3384 -0.3890
  103OSM   H15B10406   0.802   6.315  10.926 -0.0855  1.4020  2.1476
  103OSM   H15C10407   0.754   6.265  11.085 -2.5043  0.5388 -0.2252
  103OSM    C1410408   0.794   6.018  11.071  0.5942 -0.3106  0.7141
  103OSM   H14A10409   0.828   5.919  11.042 -0.8845 -0.7000  0.1885
  103OSM   H14B10410   0.687   6.008  11.081  0.0251  2.0544 -1.7609
  103OSM   H14C10411   0.844   6.060  11.157  2.4185  1.6892 -1.1910
  103OSM    C1310412   0.794   6.059  10.822  0.3531  0.3228  0.0598
  103OSM   H13A10413   0.849   5.968  10.801  0.6262  0.5125 -0.0440
  103OSM   H13B10414   0.815   6.130  10.744  2.1369 -1.6591 -1.3864
  103OSM   H13C10415   0.689   6.031  10.815  0.9828 -1.8792 -2.2208
  103OSM    C1210416   0.979   6.148  10.982  0.3722 -0.4119  0.1008
  103OSM   H12A10417   1.031   6.053  10.989  1.5379  0.0112 -1.8890
  103OSM   H12B10418   0.990   6.209  11.071  0.5514 -2.0009  1.2116
  103OSM    C1110419   1.036   6.240  10.865 -1.1120 -0.5385 -0.4350
  103OSM   H11A10420   0.995   6.343  10.866  0.7117  0.2295 -0.4327
  103OSM   H11B10421   1.021   6.194  10.765  0.0406 -1.0493 -0.3963
  103OSM      P10422   1.289   6.160  10.860 -0.1181 -0.3401  0.1416
  103OSM    O1310423   1.414   6.238  10.886  0.1028  0.7800 -0.0957
  103OSM    O1410424   1.275   6.034  10.935 -0.5162  0.3380  1.0335
  103OSM    O1110425   1.266   6.124  10.707 -0.5976 -0.0163 -0.3644
  103OSM    O1210426   1.175   6.264  10.890  0.1251 -0.2100  0.8341
  103OSM    C1S10427   1.268   6.223  10.604  0.3648  0.3139 -0.0335
  103OSM    H1S10428   1.366   6.273  10.603  0.0346  0.9717  0.0504
  103OSM    H1T10429   1.189   6.297  10.627 -1.8864 -2.3222  1.4725
  103OSM     NF10430   1.221   6.277  10.363 -0.0174 -0.0725  0.2881
  103OSM    HNF10431   1.148   6.343  10.378  0.5038  0.5554  0.1052
  103OSM    C2S10432   1.215   6.171  10.465  0.0604 -0.3589  0.5783
  103OSM    H2S10433   1.282   6.087  10.437  1.5928  1.6154 -2.1553
  103OSM    C3S10434   1.071   6.106  10.480 -0.9322 -0.0545  0.4179
  103OSM    H3S10435   0.996   6.175  10.524 -2.6534 -0.3833 -1.7838
  103OSM     O310436   1.070   6.002  10.577  0.6672  0.3293 -0.2031
  103OSM    HO310437   1.144   6.031  10.631 -0.1362  1.6801  0.2295
  103OSM    C4S10438   1.017   6.058  10.348  0.0327  0.2044 -0.3914
  103OSM    H4S10439   1.007   6.151  10.290  1.6013  1.7822  1.6927
  103OSM    C5S10440   0.991   5.933  10.306 -0.2711  0.6590  0.0952
  103OSM    H5S10441   1.018   5.852  10.376  0.8378  1.6731  0.8950
  103OSM    C6S10442   0.967   5.899  10.165 -0.5953  0.1509 -0.4889
  103OSM    H6S10443   0.894   5.817  10.146  0.3726 -0.4136 -1.9353
  103OSM    H6T10444   1.058   5.854  10.121 -0.0068  0.0368  0.7859
  103OSM    C7S10445   0.920   6.016  10.080 -0.5547 -0.1433  0.0283
  103OSM    H7S10446   0.995   6.097  10.078 -0.2376 -0.4203  0.5410
  103OSM    H7T10447   0.822   6.057  10.113 -1.4857  1.8250 -4.4386
  103OSM    C8S10448   0.901   5.974   9.923  0.3169 -0.4992 -0.5276
  103OSM    H8S10449   0.809   5.914   9.909  0.3616 -0.6717 -0.0830
  103OSM    H8T10450   0.991   5.918   9.892 -0.7931 -2.7136  0.0814
  103OSM    C9S10451   0.892   6.089   9.815  0.3707  0.2094 -0.2420
  103OSM    H9S10452   0.975   6.160   9.838  0.4138 -0.4540  1.9170
  103OSM    H9T10453   0.789   6.130   9.828  0.7139  0.7484  0.9614
  103OSM   C10S10454   0.901   6.018   9.678  0.2254 -0.4019 -0.7001
  103OSM   H10S10455   0.828   5.934   9.675 -0.0505 -0.1809 -0.2378
  103OSM   H10T10456   1.003   5.976   9.670  0.6087  0.4387 -0.3971
  103OSM   C11S10457   0.878   6.116   9.562 -0.2147  0.7517  0.2289
  103OSM   H11S10458   0.922   6.214   9.587  3.0980 -0.2773 -1.0866
  103OSM   H11T10459   0.767   6.120   9.558 -0.3021  1.2091  2.1668
  103OSM   C12S10460   0.919   6.069   9.421  0.2482  0.2293  0.6978
  103OSM   H12S10461   0.883   5.966   9.397  2.1256 -0.1898 -0.5045
  103OSM   H12T10462   1.030   6.066   9.413  0.3319 -0.1633  1.7512
  103OSM   C13S10463   0.876   6.170   9.323  0.2183  0.3367  0.5682
  103OSM   H13S10464   0.916   6.271   9.347  3.7434 -1.1771  1.7691
  103OSM   H13T10465   0.768   6.197   9.319  0.2969  0.6799  0.7037
  103OSM   C14S10466   0.939   6.150   9.181 -0.1346  0.3402  0.2399
  103OSM   H14S10467   0.912   6.051   9.138  1.4283 -1.0667  2.2396
  103OSM   H14T10468   1.050   6.146   9.191 -0.0308 -2.4132 -0.9484
  103OSM   C15S10469   0.899   6.259   9.084  0.6777 -0.6523  0.1598
  103OSM   H15S10470   0.943   6.229   8.986  1.8945 -0.2246  0.5547
  103OSM   H15T10471   0.953   6.352   9.111  0.8450 -0.7967  0.3290
  103OSM   C16S10472   0.750   6.292   9.061  0.2476  0.1731 -0.5501
  103OSM   H16S10473   0.705   6.330   9.155  3.4298  2.8807  0.0420
  103OSM   H16T10474   0.704   6.196   9.030  0.7512 -0.8916  1.8237
  103OSM   C17S10475   0.734   6.404   8.961  0.5611  0.3859 -0.4975
  103OSM   H17S10476   0.795   6.494   8.987  0.3100  1.7265 -4.0202
  103OSM   H17T10477   0.631   6.444   8.958  1.0985  1.8213 -0.5515
  103OSM   C18S10478   0.766   6.381   8.814 -0.2629  0.5272 -0.5427
  103OSM   H18S10479   0.873   6.351   8.806 -0.0559  1.3425 -0.9119
  103OSM   H18T10480   0.748   6.467   8.747  0.0065 -1.1653 -2.9190
  103OSM   H18U10481   0.700   6.296   8.786  1.0414 -1.1464  1.1321
  103OSM    C1F10482   1.330   6.311  10.295 -0.3809 -0.3528  0.1051
  103OSM     OF10483   1.431   6.249  10.317 -0.3539  0.6785 -0.0733
  103OSM    C2F10484   1.318   6.421  10.193 -0.1350  0.3179 -0.2725
  103OSM    H2F10485   1.337   6.515  10.249  2.7001 -0.6876  0.6509
  103OSM    H2G10486   1.216   6.435  10.152  0.3711 -0.9829 -2.0933
  103OSM    C3F10487   1.421   6.400  10.086 -0.1105  0.0162 -0.2402
  103OSM    H3F10488   1.515   6.370  10.136 -1.9324 -2.6070  1.9265
  103OSM    H3G10489   1.439   6.498  10.036  0.4896 -0.7604 -1.6199
  103OSM    C4F10490   1.401   6.274  10.000 -0.6370 -0.6234 -0.3175
  103OSM    H4F10491   1.354   6.186  10.049 -2.4216  0.8093  0.7002
  103OSM    H4G10492   1.503   6.236   9.979 -1.1794 -1.0160 -2.4309
  103OSM    C5F10493   1.331   6.309   9.870  0.4962 -0.4452  0.3228
  103OSM    H5F10494   1.388   6.381   9.808  2.4790 -2.3050 -0.1059
  103OSM    H5G10495   1.237   6.362   9.899 -0.8609 -1.9277 -1.1528
  103OSM    C6F10496   1.303   6.178   9.801  0.6082 -0.5123  0.8272
  103OSM    H6F10497   1.243   6.121   9.876  1.7946 -0.9909  1.4455
  103OSM    H6G10498   1.398   6.122   9.790  1.9088  1.7115  0.0893
  103OSM    C7F10499   1.226   6.195   9.670 -1.0002  0.3831  0.2991
  103OSM    H7F10500   1.132   6.253   9.680 -0.9868  1.3013 -3.3852
  103OSM    H7G10501   1.192   6.092   9.646  3.4005 -1.1068 -0.5853
  103OSM    C8F10502   1.315   6.249   9.553  0.0429  0.2639  0.2578
  103OSM    H8F10503   1.278   6.177   9.477 -2.4733  0.8670  0.8227
  103OSM    H8G10504   1.419   6.224   9.585 -0.7589 -0.5078  2.3785
  103OSM    C9F10505   1.299   6.394   9.518  0.2872 -0.0637  0.4775
  103OSM    H9F10506   1.305   6.461   9.605  0.3391 -0.3384  0.6864
  103OSM   C10F10507   1.253   6.435   9.399 -0.8235 -0.6380  0.4695
  103OSM   H10F10508   1.229   6.540   9.380 -0.3163 -0.8512 -1.5861
  103OSM   C11F10509   1.231   6.352   9.272  0.2141  0.1931 -0.0911
  103OSM   H11F10510   1.130   6.384   9.240 -0.3423  0.0038  1.3930
  103OSM   H11G10511   1.245   6.242   9.278  2.2687  0.2753 -2.0563
  103OSM   C12F10512   1.324   6.401   9.160  0.1236  0.2811  0.2425
  103OSM   H12F10513   1.429   6.372   9.182 -0.2657 -2.3278 -0.9178
  103OSM   H12G10514   1.323   6.509   9.133 -1.2725  0.4164  0.7689
  103OSM   C13F10515   1.295   6.331   9.025 -0.1383 -0.1110  0.8652
  103OSM   H13F10516   1.336   6.228   9.037  2.5434  1.0315  2.3022
  103OSM   H13G10517   1.186   6.319   9.005 -0.0126  1.2985 -0.8150
  103OSM   C14F10518   1.359   6.397   8.907 -0.3706 -0.3514  0.5098
  103OSM   H14F10519   1.465   6.418   8.932 -0.8821  0.1127  2.4361
  103OSM   H14G10520   1.309   6.495   8.899  0.7301  0.4950  2.9843
  103OSM   C15F10521   1.339   6.329   8.779  0.0336 -0.6539  0.3041
  103OSM   H15F10522   1.231   6.337   8.755  0.3214  1.0243 -0.6225
  103OSM   H15G10523   1.382   6.227   8.787 -0.6311 -0.9649 -0.0275
  103OSM   C16F10524   1.425   6.399   8.666  0.6677 -1.1805 -0.2387
  103OSM   H16F10525   1.526   6.383   8.707  1.8865 -0.3032 -2.6834
  103OSM   H16G10526   1.397   6.507   8.668 -3.1987 -1.9957 -1.0404
  103OSM   C17F10527   1.380   6.342   8.533  0.2638  0.2418  0.6847
  103OSM   H17F10528   1.357   6.233   8.532  0.6503  0.1584  0.4044
  103OSM   H17G10529   1.464   6.337   8.460 -1.0628 -0.8291 -0.8579
  103OSM   C18F10530   1.266   6.417   8.467 -0.6223 -0.6337 -0.0047
  103OSM   H18F10531   1.225   6.377   8.372 -0.7201  1.8083 -1.0567
  103OSM   H18G10532   1.277   6.527   8.464 -2.3296 -0.4376  0.1206
  103OSM   H18H10533   1.177   6.402   8.531 -0.1552  0.0295  0.8236
  104OSM      N10534   4.980   5.057  10.562 -0.1224 -0.1110 -0.4815
  104OSM    C1510535   5.012   5.149  10.673  0.3895 -0.2069 -0.0051
  104OSM   H15A10536   5.054   5.246  10.651  1.4680 -0.1918  1.9058
  104OSM   H15B10537   5.069   5.109  10.755 -1.3156  0.4453  1.5457
  104OSM   H15C10538   4.917   5.179  10.715 -0.0907  0.4387 -1.4810
  104OSM    C1410539   4.873   4.958  10.594  0.3434 -1.0809 -0.7514
  104OSM   H14A10540   4.777   5.006  10.596  1.5470  1.4717 -0.3197
  104OSM   H14B10541   4.889   4.920  10.694  1.0806  2.2784  0.5450
  104OSM   H14C10542   4.869   4.884  10.515 -0.5983 -1.2746 -0.5218
  104OSM    C1310543   4.941   5.148  10.455 -0.5150  0.1816  0.0116
  104OSM   H13A10544   4.914   5.099  10.362  0.0742 -0.7794  0.3307
  104OSM   H13B10545   5.029   5.207  10.435  1.1571 -0.5953  4.0782
  104OSM   H13C10546   4.872   5.225  10.485 -0.2782  0.2692  0.3377
  104OSM    C1210547   5.112   4.984  10.535 -0.0341  0.6222  0.1364
  104OSM   H12A10548   5.151   4.943  10.627  0.0599  2.1491  0.7970
  104OSM   H12B10549   5.185   5.054  10.497 -0.8576  0.3440 -2.1262
  104OSM    C1110550   5.109   4.867  10.427  0.4709 -0.0347 -0.1186
  104OSM   H11A10551   5.217   4.838  10.432  0.2656 -0.8043 -0.0477
  104OSM   H11B10552   5.092   4.910  10.326  3.1470  1.1949 -0.1530
  104OSM      P10553   5.035   4.653  10.570  0.0004 -0.0868  0.0470
  104OSM    O1310554   5.093   4.729  10.677 -0.3097 -0.5007 -0.6249
  104OSM    O1410555   4.897   4.593  10.592 -0.2689 -0.7047 -0.3937
  104OSM    O1110556   5.139   4.550  10.514  0.1854  0.0180 -0.1574
  104OSM    O1210557   5.025   4.748  10.448 -0.6545 -0.1763  0.4789
  104OSM    C1S10558   5.131   4.457  10.405 -0.1512 -0.7407  0.7127
  104OSM    H1S10559   5.027   4.431  10.374  0.5869 -0.3099 -2.4511
  104OSM    H1T10560   5.176   4.361  10.435  0.6842 -0.5635  0.0722
  104OSM     NF10561   5.185   4.395  10.169 -0.3105  0.2915  0.0176
  104OSM    HNF10562   5.266   4.342  10.146  0.5879  2.1180 -1.3397
  104OSM    C2S10563   5.211   4.494  10.278 -0.2813 -0.0785  0.2425
  104OSM    H2S10564   5.163   4.586  10.238  0.5647  0.6615  0.8912
  104OSM    C3S10565   5.358   4.521  10.307 -0.0072 -0.0614  0.4209
  104OSM    H3S10566   5.398   4.421  10.333 -0.3897  0.1174  1.7956
  104OSM     O310567   5.382   4.600  10.423  0.1570  0.3601  0.1329
  104OSM    HO310568   5.299   4.597  10.470  1.7654 -0.8897  3.2536
  104OSM    C4S10569   5.423   4.587  10.192 -0.6923  0.2938  0.0668
  104OSM    H4S10570   5.370   4.673  10.149 -1.8798 -0.4005  0.0926
  104OSM    C5S10571   5.530   4.545  10.112 -0.5773 -1.0569 -0.1058
  104OSM    H5S10572   5.574   4.447  10.135  1.7768 -0.4127 -1.5985
  104OSM    C6S10573   5.582   4.615   9.990  0.3812 -0.0768 -0.2702
  104OSM    H6S10574   5.693   4.619   9.989  0.4024 -0.3639 -1.6965
  104OSM    H6T10575   5.535   4.715   9.983  0.1480 -0.1134  0.6793
  104OSM    C7S10576   5.548   4.541   9.862 -0.0774  0.1579  0.9168
  104OSM    H7S10577   5.439   4.522   9.856  0.4083 -2.6997 -0.4946
  104OSM    H7T10578   5.587   4.438   9.847 -0.0637  0.2944 -0.0339
  104OSM    C8S10579   5.591   4.621   9.739 -0.3950 -0.8739  0.2153
  104OSM    H8S10580   5.592   4.728   9.767 -1.7149 -0.9467  0.6144
  104OSM    H8T10581   5.525   4.612   9.650  1.5437  1.2406 -1.5603
  104OSM    C9S10582   5.729   4.581   9.678 -0.4607  0.3891 -0.2078
  104OSM    H9S10583   5.800   4.567   9.762 -1.7901  0.3250  0.9457
  104OSM    H9T10584   5.770   4.667   9.621 -0.9209  0.8457  0.1434
  104OSM   C10S10585   5.718   4.459   9.584 -0.2369  0.3836 -0.2046
  104OSM   H10S10586   5.666   4.378   9.639  2.1053 -0.3544  1.0780
  104OSM   H10T10587   5.818   4.424   9.551 -0.5602  2.5321 -4.0483
  104OSM   C11S10588   5.643   4.497   9.456  0.1433  0.6901 -0.2449
  104OSM   H11S10589   5.684   4.595   9.423 -1.1860  0.7280 -1.9451
  104OSM   H11T10590   5.533   4.495   9.469  0.2387 -3.5829  1.5119
  104OSM   C12S10591   5.665   4.397   9.340 -0.2700 -0.1248 -0.6103
  104OSM   H12S10592   5.613   4.301   9.363  1.0746 -0.7440 -0.0866
  104OSM   H12T10593   5.773   4.381   9.323 -0.1489  1.0847 -1.0697
  104OSM   C13S10594   5.603   4.448   9.211  0.7840  0.2181  0.1897
  104OSM   H13S10595   5.649   4.546   9.183  0.3352 -0.2239 -2.4167
  104OSM   H13T10596   5.495   4.465   9.229  0.3249  1.7078 -3.1199
  104OSM   C14S10597   5.620   4.362   9.085 -1.0656 -0.1005 -0.9116
  104OSM   H14S10598   5.560   4.390   8.995 -0.7442 -1.4997 -1.5889
  104OSM   H14T10599   5.615   4.254   9.107  2.9195 -0.0656  1.1347
  104OSM   C15S10600   5.766   4.382   9.025  0.5783 -0.0541 -0.1581
  104OSM   H15S10601   5.842   4.343   9.096  0.0295 -0.5830  0.1362
  104OSM   H15T10602   5.779   4.491   9.007  0.4878 -0.2978 -1.9470
  104OSM   C16S10603   5.803   4.316   8.888  0.6134 -0.4334  0.1660
  104OSM   H16S10604   5.743   4.366   8.809  0.4801 -1.7793 -0.6147
  104OSM   H16T10605   5.768   4.210   8.891  2.7855 -1.1946  0.6253
  104OSM   C17S10606   5.950   4.319   8.861  0.2036 -0.0887  0.1939
  104OSM   H17S10607   6.006   4.263   8.940 -0.7756 -0.0396  0.9366
  104OSM   H17T10608   5.979   4.426   8.863 -0.2749  0.0463  1.5444
  104OSM   C18S10609   5.989   4.242   8.725  0.3688  0.4263 -0.3492
  104OSM   H18S10610   5.934   4.295   8.644 -0.3191 -0.5571 -0.5374
  104OSM   H18T10611   5.960   4.136   8.734  0.6870  0.2313 -1.4810
  104OSM   H18U10612   6.099   4.252   8.710  0.2725  2.8245  0.1405
  104OSM    C1F10613   5.072   4.381  10.105 -0.4981  0.1812  0.3136
  104OSM     OF10614   4.967   4.436  10.140  0.2827 -0.2366  0.6696
  104OSM    C2F10615   5.071   4.298   9.983  0.3591 -0.0345 -0.0209
  104OSM    H2F10616   5.071   4.190  10.010  0.4368 -0.4324 -1.5582
  104OSM    H2G10617   5.163   4.310   9.921 -0.7947  1.5766 -1.5092
  104OSM    C3F10618   4.954   4.327   9.883 -0.0577  0.7764 -0.1598
  104OSM    H3F10619   4.958   4.430   9.843 -0.9621  0.2276 -1.7537
  104OSM    H3G10620   4.855   4.334   9.933  0.0055  0.4591  0.0148
  104OSM    C4F10621   4.949   4.231   9.764  0.0120 -0.8033  0.9267
  104OSM    H4F10622   4.910   4.132   9.798  0.3144 -0.9657  0.7956
  104OSM    H4G10623   5.053   4.210   9.735 -0.8366 -2.3817 -1.1545
  104OSM    C5F10624   4.884   4.293   9.636  0.1052 -0.3427 -0.6863
  104OSM    H5F10625   4.922   4.396   9.622  2.5501 -0.9864  0.7120
  104OSM    H5G10626   4.776   4.313   9.654  0.5836  2.2361 -0.3438
  104OSM    C6F10627   4.911   4.206   9.513 -0.3543 -0.2252 -0.0049
  104OSM    H6F10628   4.877   4.102   9.529  0.1948 -0.3720  0.2263
  104OSM    H6G10629   5.020   4.219   9.499 -0.6788  0.9617 -1.8194
  104OSM    C7F10630   4.839   4.252   9.390  0.3692  0.1921  0.1996
  104OSM    H7F10631   4.728   4.252   9.403 -0.3805  1.1280 -4.3933
  104OSM    H7G10632   4.847   4.168   9.317  2.2227  0.1032  0.4730
  104OSM    C8F10633   4.887   4.385   9.331  0.1107  0.7446 -0.0117
  104OSM    H8F10634   4.996   4.368   9.328  0.3898  2.4676 -0.6560
  104OSM    H8G10635   4.878   4.462   9.411  0.5041 -2.0436  2.8828
  104OSM    C9F10636   4.835   4.434   9.194  0.5718  0.5212 -0.8534
  104OSM    H9F10637   4.741   4.490   9.193  0.5681  0.5687  0.4891
  104OSM   C10F10638   4.889   4.409   9.069 -0.8678 -0.3595  0.1897
  104OSM   H10F10639   4.831   4.436   8.980  1.3116  4.9357 -0.0259
  104OSM   C11F10640   5.024   4.347   9.039 -0.2261 -0.3696 -0.0888
  104OSM   H11F10641   5.021   4.246   8.991  1.5691 -0.7862  0.5654
  104OSM   H11G10642   5.080   4.331   9.134 -1.1798 -1.0028  0.3783
  104OSM   C12F10643   5.110   4.434   8.940  0.5733  0.2262 -0.6252
  104OSM   H12F10644   5.183   4.362   8.897 -0.4857  0.0057 -2.1067
  104OSM   H12G10645   5.167   4.514   8.993  0.9206 -1.3904  1.5969
  104OSM   C13F10646   5.036   4.472   8.811  0.4588  0.0047 -0.0537
  104OSM   H13F10647   4.957   4.546   8.834  1.9470  1.5623  0.2443
  104OSM   H13G10648   4.988   4.380   8.771 -0.8874  0.0201  1.4221
  104OSM   C14F10649   5.124   4.548   8.711 -0.4866  0.0617 -0.2624
  104OSM   H14F10650   5.197   4.610   8.767 -0.1147  1.4743 -2.2116
  104OSM   H14G10651   5.058   4.612   8.649 -1.3474 -1.4287 -0.9533
  104OSM   C15F10652   5.203   4.454   8.606  0.2409  0.1396 -0.0878
  104OSM   H15F10653   5.271   4.387   8.663  1.4575  2.9348  2.0071
  104OSM   H15G10654   5.260   4.521   8.538  0.1283 -0.1291 -0.4487
  104OSM   C16F10655   5.101   4.364   8.523 -0.1097 -1.1847  0.5952
  104OSM   H16F10656   5.003   4.414   8.515  1.4527  1.8530 -1.6487
  104OSM   H16G10657   5.105   4.268   8.578  1.8804 -1.9934 -0.8473
  104OSM   C17F10658   5.150   4.340   8.380 -0.1492  0.2848 -0.2992
  104OSM   H17F10659   5.249   4.288   8.375 -0.6587 -0.7501 -0.0405
  104OSM   H17G10660   5.156   4.434   8.322 -1.3793  1.1721  0.9755
  104OSM   C18F10661   5.066   4.246   8.296  0.0209  0.1586  0.2233
  104OSM   H18F10662   5.048   4.144   8.336 -3.6699  0.8192  0.5905
  104OSM   H18G10663   5.105   4.233   8.193  1.5897 -0.9771  0.9198
  104OSM   H18H10664   4.963   4.287   8.296  0.5513  1.5742  0.6420
  105OSM      N10665   5.858   4.033  10.713 -0.0459 -0.0757 -0.0463
  105OSM    C1510666   5.993   4.077  10.674  0.2686 -0.6449 -0.0459
  105OSM   H15A10667   6.036   4.137  10.753 -0.0904 -0.1085 -0.2484
  105OSM   H15B10668   5.992   4.133  10.582 -1.9975  0.1143  0.3755
  105OSM   H15C10669   6.048   3.986  10.656 -0.8626 -1.2892 -0.3650
  105OSM    C1410670   5.858   3.983  10.850 -0.3064 -0.7115 -0.7824
  105OSM   H14A10671   5.934   3.908  10.865  1.1111  0.6788 -0.7159
  105OSM   H14B10672   5.763   3.943  10.882 -0.3988 -0.2294 -0.4310
  105OSM   H14C10673   5.877   4.056  10.928  0.2748 -1.2388 -0.4212
  105OSM    C1310674   5.759   4.145  10.712  0.1120  0.2122  0.3449
  105OSM   H13A10675   5.735   4.166  10.609 -0.6300 -0.5329  0.3500
  105OSM   H13B10676   5.796   4.230  10.766  1.4588  0.1415 -0.4040
  105OSM   H13C10677   5.667   4.116  10.759 -0.3349 -0.3937 -0.8344
  105OSM    C1210678   5.820   3.915  10.625  0.2105 -0.5693  0.1142
  105OSM   H12A10679   5.889   3.835  10.646 -0.8432 -1.9817 -1.5877
  105OSM   H12B10680   5.824   3.928  10.518  0.4558  2.4362  0.3923
  105OSM    C1110681   5.678   3.850  10.646 -0.6291 -0.8805 -0.0731
  105OSM   H11A10682   5.661   3.790  10.554  0.0819 -2.7405  0.9597
  105OSM   H11B10683   5.603   3.931  10.638 -0.9574 -1.3001 -1.5479
  105OSM      P10684   5.747   3.629  10.760 -0.0406 -0.0241 -0.0591
  105OSM    O1310685   5.880   3.658  10.810 -0.0829 -0.1677  0.3237
  105OSM    O1410686   5.673   3.531  10.832 -0.0456  0.4809 -0.3679
  105OSM    O1110687   5.773   3.589  10.610  0.0384 -0.1307  0.0861
  105OSM    O1210688   5.669   3.765  10.761 -0.1943 -0.2838  0.0690
  105OSM    C1S10689   5.759   3.459  10.563  0.3292 -0.3286  0.6743
  105OSM    H1S10690   5.673   3.409  10.612 -0.8020  0.4901 -0.4195
  105OSM    H1T10691   5.845   3.397  10.598  1.2932  0.1922 -0.6660
  105OSM     NF10692   5.676   3.347  10.359  0.1593  0.0716 -0.2529
  105OSM    HNF10693   5.728   3.265  10.336  2.8316  1.8895 -1.0670
  105OSM    C2S10694   5.751   3.464  10.405 -0.0755 -0.4381 -0.4025
  105OSM    H2S10695   5.698   3.560  10.388  3.6439  1.4430 -2.7543
  105OSM    C3S10696   5.894   3.482  10.346  0.0537 -0.2320  0.5912
  105OSM    H3S10697   5.966   3.409  10.388  1.6081  0.6789 -0.3818
  105OSM     O310698   5.958   3.602  10.396  0.1118  0.1763  0.3220
  105OSM    HO310699   5.897   3.632  10.464 -0.4755 -0.9794  0.3293
  105OSM    C4S10700   5.885   3.479  10.196  0.1442 -0.5954  0.4718
  105OSM    H4S10701   5.797   3.534  10.161  1.3135  0.1089 -1.5553
  105OSM    C5S10702   5.985   3.438  10.110 -0.1202 -0.3281  0.3145
  105OSM    H5S10703   6.086   3.416  10.146  0.0305  0.7859  0.6160
  105OSM    C6S10704   5.967   3.431   9.961 -0.1841  0.6014  0.0931
  105OSM    H6S10705   5.959   3.324   9.936  0.3852  0.7259 -0.6549
  105OSM    H6T10706   6.056   3.477   9.912 -1.2596  1.0980 -1.4457
  105OSM    C7S10707   5.835   3.498   9.908 -0.5383 -0.2150  0.0661
  105OSM    H7S10708   5.836   3.606   9.934 -0.9401 -0.1535 -0.1733
  105OSM    H7T10709   5.744   3.453   9.953 -0.7625  0.1023 -0.0662
  105OSM    C8S10710   5.827   3.481   9.754  0.7238  0.0004  0.6547
  105OSM    H8S10711   5.719   3.497   9.736  0.6651 -1.5093 -0.5131
  105OSM    H8T10712   5.863   3.378   9.735 -0.6380 -0.9467  2.8712
  105OSM    C9S10713   5.918   3.576   9.680 -0.1403  0.1828 -0.4309
  105OSM    H9S10714   6.019   3.531   9.693  0.4177  0.8230 -2.2755
  105OSM    H9T10715   5.915   3.674   9.734 -1.4588 -1.0160  1.8301
  105OSM   C10S10716   5.894   3.590   9.532  0.1759 -0.0661 -0.5603
  105OSM   H10S10717   5.949   3.679   9.495  1.8026 -1.1322 -0.8250
  105OSM   H10T10718   5.788   3.610   9.509  0.0808 -1.7644 -1.8400
  105OSM   C11S10719   5.937   3.461   9.456  0.3455 -0.1266 -0.1467
  105OSM   H11S10720   5.887   3.374   9.504 -0.8430  1.6993  2.1375
  105OSM   H11T10721   6.044   3.439   9.476  0.3568  0.5546  0.6026
  105OSM   C12S10722   5.916   3.458   9.307  1.1519  0.4456  0.0854
  105OSM   H12S10723   5.979   3.378   9.263 -1.2365 -2.1727  1.0949
  105OSM   H12T10724   5.938   3.558   9.262  0.4827  1.0548  1.0629
  105OSM   C13S10725   5.775   3.407   9.260  0.1126 -0.3675 -0.2948
  105OSM   H13S10726   5.751   3.315   9.317 -0.6745 -0.5965 -0.9809
  105OSM   H13T10727   5.794   3.374   9.155 -0.2761 -2.0766  0.1428
  105OSM   C14S10728   5.663   3.511   9.267 -0.2969  0.7861  0.2957
  105OSM   H14S10729   5.701   3.607   9.226 -1.2001  2.1307  2.4041
  105OSM   H14T10730   5.626   3.526   9.371  2.3754  0.5767  1.3575
  105OSM   C15S10731   5.539   3.467   9.195 -0.3220 -0.5981  0.7749
  105OSM   H15S10732   5.470   3.446   9.279 -1.3133  1.8777  0.6733
  105OSM   H15T10733   5.561   3.373   9.140 -0.4974 -0.5240  0.5742
  105OSM   C16S10734   5.480   3.571   9.094  0.4582 -0.4410  0.1315
  105OSM   H16S10735   5.539   3.614   9.011  1.0984  2.5127  1.9689
  105OSM   H16T10736   5.455   3.662   9.153  0.0063 -0.1775 -0.4678
  105OSM   C17S10737   5.349   3.511   9.044  0.6008 -0.3290 -0.3401
  105OSM   H17S10738   5.300   3.577   8.969 -0.9123 -0.4045  0.5360
  105OSM   H17T10739   5.271   3.484   9.119  0.2444 -0.9203 -0.9089
  105OSM   C18S10740   5.372   3.391   8.959  0.8622  0.2876  0.0645
  105OSM   H18S10741   5.461   3.402   8.894  0.9131 -1.3343 -0.1933
  105OSM   H18T10742   5.285   3.378   8.892  1.8769 -0.2024 -1.2044
  105OSM   H18U10743   5.393   3.303   9.024 -1.1925 -0.2906  0.0289
  105OSM    C1F10744   5.539   3.337  10.371 -0.0172  0.1149  0.6915
  105OSM     OF10745   5.484   3.433  10.412  0.0557 -0.8377 -0.4231
  105OSM    C2F10746   5.463   3.214  10.346 -0.0031 -0.1211 -0.1376
  105OSM    H2F10747   5.389   3.202  10.428 -0.6930  0.4677 -0.6494
  105OSM    H2G10748   5.530   3.126  10.351  0.0647  0.0137  2.0272
  105OSM    C3F10749   5.389   3.221  10.213 -0.0563 -0.0927  0.4174
  105OSM    H3F10750   5.324   3.310  10.220  0.3669  0.2099  0.5096
  105OSM    H3G10751   5.315   3.141  10.193 -1.0829  0.7939  0.6020
  105OSM    C4F10752   5.487   3.226  10.096 -0.3193  0.4158  0.1373
  105OSM    H4F10753   5.564   3.145  10.100  1.2577  1.8679  0.4450
  105OSM    H4G10754   5.548   3.319  10.087 -1.3092  0.9900 -0.8480
  105OSM    C5F10755   5.414   3.208   9.961  0.4286 -0.3769 -0.2934
  105OSM    H5F10756   5.361   3.302   9.938 -1.5035 -1.1081  0.9417
  105OSM    H5G10757   5.340   3.125   9.971  0.3713 -0.1521  1.4785
  105OSM    C6F10758   5.507   3.182   9.841 -0.0345  0.0770  0.1005
  105OSM    H6F10759   5.542   3.077   9.845  0.5167  0.0648 -2.8178
  105OSM    H6G10760   5.595   3.250   9.837  0.6237 -0.7793 -0.0987
  105OSM    C7F10761   5.418   3.208   9.713  0.4064 -0.2746 -0.9411
  105OSM    H7F10762   5.371   3.308   9.723  0.0267 -0.4607 -0.8622
  105OSM    H7G10763   5.334   3.135   9.711 -0.4895  0.6607  0.7710
  105OSM    C8F10764   5.493   3.200   9.584 -0.1256  0.6634  0.4571
  105OSM    H8F10765   5.568   3.282   9.582 -0.0091  0.5493 -0.0426
  105OSM    H8G10766   5.423   3.221   9.500  1.3128  1.2945 -0.6363
  105OSM    C9F10767   5.563   3.071   9.558 -0.5884  0.0590 -0.2767
  105OSM    H9F10768   5.657   3.081   9.614 -0.5664  2.8831 -0.7014
  105OSM   C10F10769   5.529   2.967   9.494  0.0012  0.0159  0.4643
  105OSM   H10F10770   5.603   2.888   9.475 -3.5327 -2.9208 -2.9173
  105OSM   C11F10771   5.391   2.956   9.429 -1.0743  0.2397  0.5807
  105OSM   H11F10772   5.331   3.050   9.439  1.5761  2.1302 -0.2350
  105OSM   H11G10773   5.348   2.885   9.503  0.2353  0.0062  1.1532
  105OSM   C12F10774   5.383   2.905   9.283  0.5079  0.2027 -0.3488
  105OSM   H12F10775   5.275   2.908   9.258  0.1175 -2.1620  0.7228
  105OSM   H12G10776   5.418   2.800   9.287  1.4438  0.5340  0.8993
  105OSM   C13F10777   5.462   2.979   9.190 -0.1034  0.1891 -0.3566
  105OSM   H13F10778   5.566   2.978   9.230 -1.0277 -2.2806  2.3517
  105OSM   H13G10779   5.432   3.085   9.177  2.6042  0.7354 -3.5210
  105OSM   C14F10780   5.459   2.909   9.050  0.8816  0.1732 -0.6060
  105OSM   H14F10781   5.356   2.880   9.018 -0.0856  1.5084  1.0923
  105OSM   H14G10782   5.526   2.821   9.059  0.1286 -0.3161  0.4860
  105OSM   C15F10783   5.521   3.020   8.958 -0.4222 -0.2438 -0.3791
  105OSM   H15F10784   5.457   3.111   8.961  0.1704  0.1611  0.1840
  105OSM   H15G10785   5.518   2.974   8.857  0.2587 -1.0626 -0.0344
  105OSM   C16F10786   5.673   3.055   8.987  0.4186 -0.5470 -0.1657
  105OSM   H16F10787   5.726   2.958   8.997 -0.5502 -0.8897  2.1560
  105OSM   H16G10788   5.693   3.093   9.089  1.5059 -1.7844  0.1073
  105OSM   C17F10789   5.747   3.146   8.887  0.5914  0.2548  0.5863
  105OSM   H17F10790   5.680   3.235   8.883  0.5862  0.2177 -0.3327
  105OSM   H17G10791   5.741   3.095   8.789  3.7493 -2.4879  1.6198
  105OSM   C18F10792   5.888   3.165   8.933  0.5394 -0.3567  0.4444
  105OSM   H18F10793   5.926   3.246   8.867 -1.8113  0.3633 -0.1408
  105OSM   H18G10794   5.954   3.076   8.930  0.8125 -0.2527  2.2630
  105OSM   H18H10795   5.883   3.198   9.039  2.1127  0.1328  0.3932
  106OSM      N10796   4.368   0.820  10.911  0.0531  0.3280  0.8582
  106OSM    C1510797   4.391   0.678  10.958 -0.0431 -0.6549  0.1678
  106OSM   H15A10798   4.361   0.656  11.060 -0.8188 -1.1322 -0.1567
  106OSM   H15B10799   4.498   0.665  10.944  0.4002  1.9757  0.5286
  106OSM   H15C10800   4.342   0.611  10.890 -1.0244  0.0327  0.1858
  106OSM    C1410801   4.223   0.839  10.891 -0.5665  0.4888  0.2693
  106OSM   H14A10802   4.204   0.922  10.824 -1.4487 -2.7960 -4.0356
  106OSM   H14B10803   4.161   0.844  10.979 -1.3679 -1.3397 -0.1403
  106OSM   H14C10804   4.178   0.755  10.839  0.4854 -0.1375  0.3335
  106OSM    C1310805   4.400   0.919  11.016 -0.3234 -0.1074  0.0258
  106OSM   H13A10806   4.351   0.888  11.107 -1.6593 -0.8853 -0.9392
  106OSM   H13B10807   4.353   1.009  10.980 -0.2536 -0.8915 -2.1503
  106OSM   H13C10808   4.508   0.924  11.025 -0.0798 -3.0435 -0.3445
  106OSM    C1210809   4.452   0.852  10.782  0.5899 -0.0314 -0.2506
  106OSM   H12A10810   4.414   0.792  10.700  1.3214  0.9998 -1.3638
  106OSM   H12B10811   4.554   0.817  10.789  0.0982 -2.0900 -2.2552
  106OSM    C1110812   4.455   1.003  10.745  0.1554 -0.1885 -0.3704
  106OSM   H11A10813   4.513   1.019  10.652 -0.4262  0.0647 -0.6940
  106OSM   H11B10814   4.528   1.048  10.816 -0.3103  0.9123 -0.5780
  106OSM      P10815   4.315   1.218  10.725 -0.2797  0.1567 -0.0643
  106OSM    O1310816   4.174   1.258  10.759  0.5211  0.5882  0.4578
  106OSM    O1410817   4.431   1.279  10.796 -0.3679  0.4736 -0.2732
  106OSM    O1110818   4.348   1.217  10.573  0.9215 -0.6113  0.5340
  106OSM    O1210819   4.324   1.063  10.759 -0.9865 -0.3584  0.1997
  106OSM    C1S10820   4.263   1.125  10.499 -0.1178  0.2259 -0.0868
  106OSM    H1S10821   4.154   1.141  10.516  0.3039  1.4512  1.8273
  106OSM    H1T10822   4.293   1.022  10.527 -2.3169 -0.7185 -0.9449
  106OSM     NF10823   4.195   1.035  10.269  0.0011 -0.1029  0.1127
  106OSM    HNF10824   4.238   0.947  10.249  1.4178  0.2646  1.3528
  106OSM    C2S10825   4.288   1.121  10.344  0.0135  0.2515 -0.1151
  106OSM    H2S10826   4.276   1.226  10.308 -0.6765 -0.7818 -3.2345
  106OSM    C3S10827   4.440   1.082  10.314  0.2247 -0.3901  0.2624
  106OSM    H3S10828   4.454   0.977  10.347 -0.0974 -0.3248  0.6240
  106OSM     O310829   4.544   1.140  10.395  0.2397  0.1422  0.4281
  106OSM    HO310830   4.490   1.182  10.462  1.0764  1.0998  0.5205
  106OSM    C4S10831   4.465   1.095  10.166 -0.6824 -0.1872 -0.6153
  106OSM    H4S10832   4.404   1.028  10.104 -1.2652 -0.7478  0.5607
  106OSM    C5S10833   4.553   1.182  10.108 -0.7360 -0.0484  0.2034
  106OSM    H5S10834   4.626   1.240  10.166 -1.1280  0.4609  0.1958
  106OSM    C6S10835   4.566   1.190   9.961 -0.0013  0.6292 -0.6956
  106OSM    H6S10836   4.569   1.296   9.926 -2.1496  1.2337  0.7756
  106OSM    H6T10837   4.486   1.136   9.906  0.8868  0.0009 -1.3908
  106OSM    C7S10838   4.704   1.130   9.909 -0.5960 -0.5147  0.3929
  106OSM    H7S10839   4.703   1.021   9.932 -1.1366 -0.4370  0.7487
  106OSM    H7T10840   4.788   1.193   9.945 -0.1016 -0.1914 -1.2424
  106OSM    C8S10841   4.724   1.143   9.761 -0.7858  0.3880  0.4387
  106OSM    H8S10842   4.808   1.076   9.735 -1.7775 -0.9719  0.6488
  106OSM    H8T10843   4.758   1.248   9.747  0.3047  0.1383  1.0568
  106OSM    C9S10844   4.605   1.106   9.668 -0.2151  0.2234 -0.1637
  106OSM    H9S10845   4.633   1.126   9.562  0.7803  0.0641  0.0618
  106OSM    H9T10846   4.511   1.154   9.703 -1.1158 -1.8556  0.3891
  106OSM   C10S10847   4.556   0.958   9.677  0.2640 -0.7675  0.3789
  106OSM   H10S10848   4.462   0.945   9.619  1.1947 -0.0295 -1.3686
  106OSM   H10T10849   4.529   0.934   9.782 -1.9568  1.5532  0.4530
  106OSM   C11S10850   4.652   0.843   9.631  0.4087 -0.6760 -0.2725
  106OSM   H11S10851   4.623   0.740   9.660  1.0161 -0.3284  1.7602
  106OSM   H11T10852   4.749   0.869   9.679 -0.0425 -1.1441  0.9455
  106OSM   C12S10853   4.660   0.856   9.483  0.3211  0.3020  0.1139
  106OSM   H12S10854   4.765   0.841   9.451  0.3023  1.6407 -0.6608
  106OSM   H12T10855   4.624   0.957   9.455 -0.0335 -0.2582 -1.5238
  106OSM   C13S10856   4.556   0.755   9.419  0.2141 -0.1134  0.0357
  106OSM   H13S10857   4.468   0.748   9.486  0.6192 -2.2750  0.4028
  106OSM   H13T10858   4.591   0.650   9.429 -0.0044 -0.3805 -1.6060
  106OSM   C14S10859   4.521   0.775   9.269  0.1245  0.3707  0.2509
  106OSM   H14S10860   4.610   0.802   9.208 -0.6348  0.3735 -0.8918
  106OSM   H14T10861   4.436   0.846   9.267 -1.8628 -1.8919 -0.1504
  106OSM   C15S10862   4.457   0.641   9.213  0.4815 -0.2194 -0.2952
  106OSM   H15S10863   4.381   0.613   9.288 -1.6603  1.0961 -1.8586
  106OSM   H15T10864   4.531   0.559   9.206 -1.2197 -1.8693  0.3943
  106OSM   C16S10865   4.368   0.656   9.084 -0.5118  0.0080  0.3265
  106OSM   H16S10866   4.263   0.689   9.095 -0.4305  1.4394 -2.4429
  106OSM   H16T10867   4.354   0.556   9.037  0.7979  0.8279 -1.9856
  106OSM   C17S10868   4.428   0.744   8.978 -0.0126 -0.2771  1.2886
  106OSM   H17S10869   4.538   0.759   8.977 -0.1417  0.6791  0.6712
  106OSM   H17T10870   4.379   0.842   8.994  0.2199  0.0677  0.0015
  106OSM   C18S10871   4.392   0.712   8.831 -0.0793  0.6874 -0.2914
  106OSM   H18S10872   4.282   0.700   8.819 -0.7171  1.9894  3.0993
  106OSM   H18T10873   4.437   0.614   8.805  0.3305  0.3621  1.5122
  106OSM   H18U10874   4.419   0.791   8.759  0.7479 -1.2123 -2.1786
  106OSM    C1F10875   4.072   1.072  10.244 -1.0912 -0.4940  0.1308
  106OSM     OF10876   4.035   1.181  10.288 -0.6395  0.1060  0.0117
  106OSM    C2F10877   3.982   0.972  10.172  0.4524  0.2420 -0.3525
  106OSM    H2F10878   3.943   0.901  10.248 -0.6938  1.6932  0.4760
  106OSM    H2G10879   4.035   0.919  10.090 -1.4780 -0.0168 -1.4783
  106OSM    C3F10880   3.860   1.040  10.108 -0.6399  0.3461  0.7164
  106OSM    H3F10881   3.902   1.095  10.021 -1.4307  0.0562  0.1378
  106OSM    H3G10882   3.807   1.111  10.174 -2.0625 -2.0431  2.2582
  106OSM    C4F10883   3.746   0.943  10.053  0.4099  0.3776  0.9079
  106OSM    H4F10884   3.645   0.984  10.074 -0.2630 -0.5561 -0.4158
  106OSM    H4G10885   3.754   0.854  10.119  0.3312 -0.2811  0.0422
  106OSM    C5F10886   3.768   0.911   9.907 -0.2593  0.3440  0.3269
  106OSM    H5F10887   3.727   0.813   9.875  0.2008 -0.0561  0.9541
  106OSM    H5G10888   3.872   0.899   9.871 -0.7590 -0.2539 -0.9992
  106OSM    C6F10889   3.702   1.016   9.822 -0.9776  0.6408 -0.5906
  106OSM    H6F10890   3.718   1.120   9.857 -3.4196  0.5515  0.9897
  106OSM    H6G10891   3.594   0.996   9.809 -0.5872 -2.2153 -0.0322
  106OSM    C7F10892   3.754   1.008   9.677  0.4547 -0.0278 -0.0758
  106OSM    H7F10893   3.683   1.055   9.605  1.2181  0.5678 -0.4589
  106OSM    H7G10894   3.767   0.902   9.648  2.6237 -0.5882  2.5169
  106OSM    C8F10895   3.887   1.085   9.653 -0.0322  0.2993  0.3811
  106OSM    H8F10896   3.943   1.039   9.568 -0.5068 -2.1013  1.2963
  106OSM    H8G10897   3.955   1.079   9.740  0.8941 -1.2446 -0.4162
  106OSM    C9F10898   3.860   1.232   9.635 -0.4936 -0.6239  0.2036
  106OSM    H9F10899   3.859   1.290   9.729  2.9717  1.7700 -1.0196
  106OSM   C10F10900   3.828   1.294   9.521  0.2343  0.0111  0.3980
  106OSM   H10F10901   3.791   1.397   9.507 -2.3576 -1.1313 -2.2343
  106OSM   C11F10902   3.818   1.225   9.384 -0.3968 -0.1338  0.4459
  106OSM   H11F10903   3.715   1.197   9.350  0.0296 -2.3839  0.8098
  106OSM   H11G10904   3.869   1.126   9.382  0.6651  0.3116  2.6780
  106OSM   C12F10905   3.864   1.315   9.273 -0.0666  0.5360  0.8421
  106OSM   H12F10906   3.959   1.365   9.302  0.6753  0.6606 -1.5586
  106OSM   H12G10907   3.792   1.399   9.264 -1.4478 -0.7278 -0.5631
  106OSM   C13F10908   3.876   1.247   9.133  0.3114 -0.0042 -0.1989
  106OSM   H13F10909   3.782   1.198   9.100  0.4371 -0.2304 -0.2288
  106OSM   H13G10910   3.940   1.156   9.135 -2.2364 -1.9025 -0.5481
  106OSM   C14F10911   3.936   1.339   9.025  0.9027  0.0357  0.2136
  106OSM   H14F10912   4.031   1.392   9.050  0.3136  1.2365 -0.0312
  106OSM   H14G10913   3.855   1.409   8.997 -1.0569 -2.4351 -0.7376
  106OSM   C15F10914   3.959   1.272   8.884 -0.5978  0.5630 -0.6872
  106OSM   H15F10915   3.986   1.360   8.821 -1.2591  2.2402  1.2412
  106OSM   H15G10916   3.867   1.225   8.844 -0.7107  3.0111 -3.6498
  106OSM   C16F10917   4.088   1.176   8.891 -0.8408  0.2884  0.6138
  106OSM   H16F10918   4.062   1.083   8.947  0.5854 -1.2058 -1.0472
  106OSM   H16G10919   4.166   1.232   8.947 -1.5336  1.9710 -0.0456
  106OSM   C17F10920   4.143   1.134   8.754 -0.2085 -0.0916  0.1096
  106OSM   H17F10921   4.237   1.075   8.760 -1.2404 -2.0313 -1.5283
  106OSM   H17G10922   4.157   1.228   8.696  1.9388 -0.1436  0.4816
  106OSM   C18F10923   4.042   1.041   8.685  0.4006  0.1101  0.1561
  106OSM   H18F10924   4.026   0.952   8.748 -0.4308  0.8539  1.0238
  106OSM   H18G10925   4.076   1.019   8.581 -0.8028  0.5132 -0.3448
  106OSM   H18H10926   3.937   1.077   8.683  0.5932  0.6603 -0.4117
  107OSM      N10927   5.869   6.306  11.067 -0.1950  0.5576 -0.1468
  107OSM    C1510928   5.752   6.219  11.099  0.6623  0.3611 -0.2400
  107OSM   H15A10929   5.755   6.118  11.061 -0.6807  0.2190  0.0006
  107OSM   H15B10930   5.657   6.262  11.071  0.0638  0.3648  1.6395
  107OSM   H15C10931   5.738   6.207  11.205 -0.1983  0.2210 -0.3641
  107OSM    C1410932   5.864   6.422  11.159  0.3530 -0.2161 -0.4295
  107OSM   H14A10933   5.766   6.466  11.150 -0.2233 -1.1148  1.0905
  107OSM   H14B10934   5.934   6.498  11.128  1.1521 -0.3522  0.9750
  107OSM   H14C10935   5.882   6.392  11.261 -0.5554 -0.1722 -0.2428
  107OSM    C1310936   5.983   6.217  11.116 -0.0282  0.4329  0.3144
  107OSM   H13A10937   5.944   6.169  11.204 -0.1687 -0.7281 -0.3554
  107OSM   H13B10938   6.077   6.267  11.131  1.3067 -1.9266  0.4411
  107OSM   H13C10939   6.005   6.140  11.043  1.1567  2.3522 -1.4561
  107OSM    C1210940   5.880   6.345  10.923 -0.4487  0.5049 -0.0612
  107OSM   H12A10941   5.971   6.401  10.908 -1.0500  1.4672 -0.2663
  107OSM   H12B10942   5.800   6.402  10.879 -1.7752 -0.4708  0.9943
  107OSM    C1110943   5.890   6.220  10.834  0.7518 -0.4180 -0.1107
  107OSM   H11A10944   5.807   6.153  10.865  0.5259  0.7746  2.0305
  107OSM   H11B10945   5.988   6.169  10.846 -0.5904 -2.7032  2.1135
  107OSM      P10946   5.980   6.333  10.622  0.4466 -0.2873 -0.3135
  107OSM    O1310947   5.909   6.393  10.507  0.4781 -0.4191 -0.3931
  107OSM    O1410948   6.047   6.426  10.718 -0.9088 -0.2915 -0.0025
  107OSM    O1110949   6.085   6.225  10.571 -0.4685 -0.3846 -0.3507
  107OSM    O1210950   5.867   6.251  10.695 -0.9555  0.0467  0.5807
  107OSM    C1S10951   6.057   6.094  10.529  0.6815  1.2553 -0.8850
  107OSM    H1S10952   5.954   6.073  10.495  0.4855 -1.0179  0.8409
  107OSM    H1T10953   6.084   6.026  10.613  0.4029 -0.5975 -2.2549
  107OSM     NF10954   6.085   5.949  10.332  0.0934  0.0061 -0.3732
  107OSM    HNF10955   6.139   5.866  10.348 -1.2533 -0.6654  0.8554
  107OSM    C2S10956   6.138   6.066  10.402  0.0171 -0.3191 -0.1523
  107OSM    H2S10957   6.124   6.146  10.326  0.0692  0.9080  1.1038
  107OSM    C3S10958   6.293   6.054  10.441  0.9331 -0.0478  0.5196
  107OSM    H3S10959   6.306   5.974  10.517  2.0786  1.1659  1.6659
  107OSM     O310960   6.350   6.165  10.506  0.3167  0.0280  0.7806
  107OSM    HO310961   6.272   6.214  10.533  1.8843  2.3921  1.2794
  107OSM    C4S10962   6.371   6.014  10.323  0.0993  0.4124  0.3160
  107OSM    H4S10963   6.325   6.059  10.233 -0.6441  1.0865  1.0128
  107OSM    C5S10964   6.467   5.917  10.321  0.0593 -0.1488  0.0492
  107OSM    H5S10965   6.493   5.880  10.421 -2.3896 -1.1565  0.3808
  107OSM    C6S10966   6.539   5.882  10.198  0.5332  0.7172 -0.3683
  107OSM    H6S10967   6.628   5.823  10.225 -0.9915 -1.3414  0.4199
  107OSM    H6T10968   6.560   5.973  10.137  0.0070  2.3762  1.7755
  107OSM    C7S10969   6.458   5.780  10.115  0.1662 -0.0409 -0.1875
  107OSM    H7S10970   6.366   5.819  10.065 -0.5633 -0.3350  0.8976
  107OSM    H7T10971   6.429   5.696  10.181  2.7082  0.5624  1.8469
  107OSM    C8S10972   6.558   5.725  10.005  0.1064 -0.0336 -0.4685
  107OSM    H8S10973   6.654   5.693  10.051  0.4163 -0.0740 -1.1306
  107OSM    H8T10974   6.586   5.802   9.930  2.6337  0.3727  0.7702
  107OSM    C9S10975   6.495   5.602   9.950  0.0233  1.0970  0.4725
  107OSM    H9S10976   6.396   5.624   9.905  1.4530  0.9900 -3.0617
  107OSM    H9T10977   6.472   5.534  10.034  1.6632 -0.7860 -0.5186
  107OSM   C10S10978   6.593   5.531   9.846  0.6616 -0.5706 -0.3920
  107OSM   H10S10979   6.534   5.444   9.811 -0.0202 -0.4086  0.3239
  107OSM   H10T10980   6.686   5.494   9.893  1.3800 -2.6314 -3.1862
  107OSM   C11S10981   6.640   5.623   9.734 -0.7905 -0.1603 -0.2492
  107OSM   H11S10982   6.705   5.696   9.786 -1.6946  0.1783  0.4247
  107OSM   H11T10983   6.562   5.664   9.667 -1.0180 -3.0185 -1.9347
  107OSM   C12S10984   6.731   5.551   9.628 -0.2424  0.3169 -0.1508
  107OSM   H12S10985   6.682   5.465   9.577  2.5365 -1.2207 -0.4070
  107OSM   H12T10986   6.809   5.503   9.690 -2.1699 -4.5446 -1.0614
  107OSM   C13S10987   6.794   5.647   9.528 -0.1880 -0.2722  0.1027
  107OSM   H13S10988   6.858   5.723   9.577  1.2610 -0.8404 -0.8380
  107OSM   H13T10989   6.718   5.710   9.478  0.8387 -0.0051 -1.1585
  107OSM   C14S10990   6.881   5.575   9.424  0.6823 -0.5360  0.5017
  107OSM   H14S10991   6.825   5.494   9.374 -0.0737  0.9977 -1.2388
  107OSM   H14T10992   6.966   5.526   9.476  1.6218  1.2282  0.7170
  107OSM   C15S10993   6.952   5.669   9.324 -1.1332 -0.2256 -0.7658
  107OSM   H15S10994   7.040   5.704   9.382 -3.0538  1.9301  1.0544
  107OSM   H15T10995   6.885   5.753   9.296 -0.6062 -0.1761 -1.9149
  107OSM   C16S10996   6.996   5.589   9.201 -0.6813  0.2299  0.1007
  107OSM   H16S10997   6.918   5.530   9.147  2.6576 -3.7206 -0.9189
  107OSM   H16T10998   7.079   5.520   9.229  1.8793  3.3757  0.8539
  107OSM   C17S10999   7.071   5.683   9.102  0.1916 -0.5658  0.1894
  107OSM   H17S11000   7.131   5.627   9.027  0.2589 -1.1369  0.6638
  107OSM   H17T11001   7.141   5.754   9.152  0.1707  1.3749 -2.3293
  107OSM   C18S11002   6.980   5.782   9.033 -0.9081  0.7229  0.0316
  107OSM   H18S11003   6.934   5.718   8.954 -0.2048 -1.4873  1.3135
  107OSM   H18T11004   7.039   5.865   8.988  0.6468 -0.7464 -0.7684
  107OSM   H18U11005   6.904   5.816   9.107  0.6584  2.4410  0.9263
  107OSM    C1F11006   5.978   5.946  10.259 -0.5557  0.4576 -0.4073
  107OSM     OF11007   5.913   6.045  10.245 -0.6194 -0.3413  0.1668
  107OSM    C2F11008   5.934   5.813  10.201 -0.7847 -0.0506 -0.3365
  107OSM    H2F11009   5.837   5.826  10.148  0.5544  2.7635 -2.3649
  107OSM    H2G11010   5.933   5.742  10.286 -0.3581  0.7789  0.3633
  107OSM    C3F11011   6.036   5.766  10.091 -0.4440  0.3699 -1.4561
  107OSM    H3F11012   6.016   5.658  10.073  0.5692 -0.1347  0.2444
  107OSM    H3G11013   6.144   5.759  10.114 -0.3315 -0.6122 -2.1956
  107OSM    C4F11014   6.020   5.837   9.955 -0.4222 -0.0043  0.4127
  107OSM    H4F11015   6.027   5.946   9.975  3.9320 -0.0320  0.0417
  107OSM    H4G11016   5.929   5.822   9.893 -0.6068 -0.2532  0.7388
  107OSM    C5F11017   6.138   5.809   9.864  0.3584  0.2829  0.2720
  107OSM    H5F11018   6.138   5.698   9.851 -1.8943 -0.0057  2.0439
  107OSM    H5G11019   6.229   5.836   9.922  0.2334  1.2469  0.0266
  107OSM    C6F11020   6.136   5.887   9.728 -0.2197 -0.1932  0.1257
  107OSM    H6F11021   6.241   5.887   9.690 -1.3058 -0.1569 -3.1765
  107OSM    H6G11022   6.100   5.987   9.761 -1.4904 -0.5577 -0.1046
  107OSM    C7F11023   6.046   5.808   9.636  0.3548  0.4892  0.0554
  107OSM    H7F11024   5.941   5.802   9.671  0.1307  2.2692 -0.2170
  107OSM    H7G11025   6.086   5.706   9.615  1.0812  0.6703  0.5500
  107OSM    C8F11026   6.046   5.878   9.496  0.1398 -0.2393  0.1807
  107OSM    H8F11027   6.018   5.985   9.512 -2.2593 -0.4962 -1.8084
  107OSM    H8G11028   5.957   5.827   9.453 -1.0521  0.4259  1.7442
  107OSM    C9F11029   6.166   5.864   9.412  0.1894  0.4262  0.7037
  107OSM    H9F11030   6.262   5.901   9.452  0.5107  1.0440 -0.5813
  107OSM   C10F11031   6.169   5.820   9.290 -0.2441 -0.2021  0.3142
  107OSM   H10F11032   6.261   5.821   9.231 -0.8221 -1.5790 -0.6684
  107OSM   C11F11033   6.059   5.776   9.196  0.1446 -0.4951  0.1436
  107OSM   H11F11034   5.959   5.776   9.245  1.1127 -1.7975  2.2873
  107OSM   H11G11035   6.071   5.675   9.152 -0.3798  0.5318 -2.5745
  107OSM   C12F11036   6.069   5.856   9.068  0.0559 -0.4227 -0.1039
  107OSM   H12F11037   5.992   5.825   8.994 -2.1228 -0.7931  2.1607
  107OSM   H12G11038   6.163   5.824   9.020 -0.4535  0.9708 -2.1381
  107OSM   C13F11039   6.068   6.009   9.079  0.3845 -0.1524  0.0863
  107OSM   H13F11040   6.157   6.044   9.136  0.3518  0.8099 -0.4331
  107OSM   H13G11041   5.986   6.046   9.145 -0.1060  0.2273 -0.7174
  107OSM   C14F11042   6.052   6.075   8.937 -0.1608  0.6205 -0.2441
  107OSM   H14F11043   5.944   6.068   8.910 -0.5574 -1.0640  1.5440
  107OSM   H14G11044   6.102   6.009   8.863  0.1080  0.7255 -0.1551
  107OSM   C15F11045   6.115   6.215   8.932  0.3270  0.4743  0.3113
  107OSM   H15F11046   6.220   6.200   8.966  0.4098 -2.5561 -0.9141
  107OSM   H15G11047   6.069   6.290   8.999  3.0030  0.8283  1.9473
  107OSM   C16F11048   6.121   6.268   8.789  0.5649  0.5955  0.1149
  107OSM   H16F11049   6.020   6.275   8.743  0.6088  1.4962  0.1202
  107OSM   H16G11050   6.188   6.204   8.728 -0.7103 -0.2702 -0.4157
  107OSM   C17F11051   6.175   6.411   8.788  0.3066 -0.2643 -0.6856
  107OSM   H17F11052   6.273   6.408   8.839 -1.3905 -0.5343  2.8850
  107OSM   H17G11053   6.106   6.480   8.841  2.2385 -0.4133  2.2589
  107OSM   C18F11054   6.175   6.471   8.654  0.3374  0.0169 -0.2179
  107OSM   H18F11055   6.240   6.410   8.588  0.1998 -0.2488 -0.1112
  107OSM   H18G11056   6.210   6.576   8.658  0.1321  0.2186 -2.4870
  107OSM   H18H11057   6.072   6.467   8.612 -0.5162 -0.0539  1.7807
  108OSM      N11058   4.372   3.463  10.514  0.2330  1.0106  0.3083
  108OSM    C1511059   4.339   3.597  10.561  0.1907 -0.0507 -0.0347
  108OSM   H15A11060   4.365   3.598  10.666  0.2011 -0.7297 -0.0278
  108OSM   H15B11061   4.239   3.634  10.548  0.2412  2.4020  4.5299
  108OSM   H15C11062   4.388   3.685  10.521 -1.6428  1.5592  1.1122
  108OSM    C1411063   4.325   3.358  10.613  0.2730  0.0293 -0.3418
  108OSM   H14A11064   4.346   3.398  10.711 -1.7901 -1.6402  0.8508
  108OSM   H14B11065   4.380   3.267  10.594 -1.6894 -1.7450  1.8952
  108OSM   H14C11066   4.218   3.351  10.599  0.4340 -1.4936 -1.1018
  108OSM    C1311067   4.310   3.446  10.380  0.6002  0.1203  0.0787
  108OSM   H13A11068   4.289   3.341  10.367 -2.0427  0.6265 -0.1894
  108OSM   H13B11069   4.366   3.482  10.295 -1.1753 -1.5761 -1.8739
  108OSM   H13C11070   4.206   3.472  10.387  0.4848 -0.0268 -1.0738
  108OSM    C1211071   4.518   3.450  10.500 -0.1043  0.2255 -0.2283
  108OSM   H12A11072   4.564   3.447  10.597 -1.4497  0.1784  0.4314
  108OSM   H12B11073   4.553   3.531  10.438  2.5475 -0.5050  0.2205
  108OSM    C1111074   4.585   3.328  10.432 -0.0542  0.3571  0.2117
  108OSM   H11A11075   4.688   3.370  10.430 -0.0566  0.3195 -0.8175
  108OSM   H11B11076   4.549   3.315  10.328  2.4188  0.7617 -0.7490
  108OSM      P11077   4.694   3.105  10.503 -0.0634  0.0447  0.1816
  108OSM    O1311078   4.829   3.169  10.506 -0.4007  0.0905 -0.2070
  108OSM    O1411079   4.670   3.012  10.616  0.3622  0.1161 -0.7899
  108OSM    O1111080   4.673   3.028  10.366 -0.9823  0.7796  0.2224
  108OSM    O1211081   4.570   3.209  10.505 -0.6981 -0.1450 -0.5754
  108OSM    C1S11082   4.548   2.977  10.336  0.6797 -0.4965  0.2070
  108OSM    H1S11083   4.475   3.060  10.347  1.6776  0.4059  0.1876
  108OSM    H1T11084   4.516   2.893  10.401 -1.3093 -0.6474 -0.8919
  108OSM     NF11085   4.404   2.934  10.148 -0.1301 -0.1528  0.6128
  108OSM    HNF11086   4.354   2.856  10.187  1.3741 -0.3591  2.2110
  108OSM    C2S11087   4.542   2.932  10.192 -0.3247  0.3727 -0.2403
  108OSM    H2S11088   4.606   3.006  10.139  2.2635 -2.8640 -2.0099
  108OSM    C3S11089   4.612   2.801  10.171 -0.1964  0.4221  0.0118
  108OSM    H3S11090   4.558   2.722  10.227 -0.7716  1.9874  1.7667
  108OSM     O311091   4.747   2.808  10.225 -0.2657  0.0594 -0.3848
  108OSM    HO311092   4.750   2.887  10.279 -0.3284 -0.3166  0.1805
  108OSM    C4S11093   4.615   2.755  10.020 -0.0093  0.1340  0.4906
  108OSM    H4S11094   4.576   2.654  10.002  2.3215 -0.5256 -1.4531
  108OSM    C5S11095   4.677   2.820   9.917 -0.9308 -0.5333 -0.5605
  108OSM    H5S11096   4.744   2.904   9.943  0.7842 -0.7192 -3.8616
  108OSM    C6S11097   4.686   2.781   9.776 -0.1785 -0.1319  0.6103
  108OSM    H6S11098   4.781   2.724   9.766  0.6774  1.5181 -1.1022
  108OSM    H6T11099   4.680   2.863   9.701 -0.0539 -0.1464  0.5839
  108OSM    C7S11100   4.580   2.665   9.739  0.5267  0.5559  0.5462
  108OSM    H7S11101   4.478   2.683   9.780 -0.8873  1.2687 -2.8672
  108OSM    H7T11102   4.619   2.574   9.790  0.5358  0.3438  0.1738
  108OSM    C8S11103   4.554   2.646   9.590 -0.9831  0.4556  0.1500
  108OSM    H8S11104   4.522   2.540   9.592  0.5588 -0.0446 -0.0108
  108OSM    H8T11105   4.645   2.633   9.527  0.7667  0.1809  2.6016
  108OSM    C9S11106   4.447   2.738   9.533  0.1192  0.1481  0.2065
  108OSM    H9S11107   4.490   2.839   9.555  2.1265 -0.6181  0.0813
  108OSM    H9T11108   4.351   2.733   9.588 -1.2575 -0.8241 -2.1669
  108OSM   C10S11109   4.421   2.717   9.390  0.7028 -0.3688  0.6480
  108OSM   H10S11110   4.348   2.787   9.343  1.9710  2.0196  2.0463
  108OSM   H10T11111   4.381   2.617   9.363 -0.8625 -0.0596  1.6830
  108OSM   C11S11112   4.548   2.741   9.303 -0.0922  0.5748  0.1798
  108OSM   H11S11113   4.628   2.670   9.333 -1.1139 -0.6553  0.0766
  108OSM   H11T11114   4.572   2.849   9.301  0.8000  0.4048  1.1120
  108OSM   C12S11115   4.536   2.706   9.151 -0.1780 -0.3576 -0.1732
  108OSM   H12S11116   4.631   2.730   9.099 -0.0300 -0.9845 -0.2045
  108OSM   H12T11117   4.453   2.767   9.108  2.6380  1.1382 -4.0948
  108OSM   C13S11118   4.511   2.557   9.113  0.6615  0.1976  0.1531
  108OSM   H13S11119   4.430   2.500   9.163  1.8310 -1.3732  0.3760
  108OSM   H13T11120   4.600   2.501   9.149  0.1733 -2.1924 -2.0516
  108OSM   C14S11121   4.508   2.529   8.965  0.4234 -0.0716  0.6416
  108OSM   H14S11122   4.488   2.422   8.942  1.1221  0.2169 -1.5694
  108OSM   H14T11123   4.608   2.558   8.925 -1.4651  1.0971 -3.8859
  108OSM   C15S11124   4.409   2.604   8.880 -0.1764 -0.8273 -0.0285
  108OSM   H15S11125   4.419   2.714   8.895 -0.8524 -0.8929  1.0519
  108OSM   H15T11126   4.308   2.580   8.922  0.0197 -2.3544 -0.3805
  108OSM   C16S11127   4.411   2.569   8.731 -0.3093 -0.2891  0.4280
  108OSM   H16S11128   4.336   2.494   8.699  0.9834 -1.2654 -0.4007
  108OSM   H16T11129   4.505   2.513   8.712 -0.4371 -0.4288  0.2075
  108OSM   C17S11130   4.404   2.696   8.644 -0.1501  0.3154  0.9803
  108OSM   H17S11131   4.455   2.783   8.692  2.1477 -0.6792  0.5081
  108OSM   H17T11132   4.295   2.716   8.651 -0.0918  0.7489  0.6759
  108OSM   C18S11133   4.440   2.669   8.499 -0.5567  1.1395  0.4147
  108OSM   H18S11134   4.550   2.658   8.501 -0.5934  0.8181  0.7059
  108OSM   H18T11135   4.425   2.762   8.440  1.9425  0.8584 -0.7750
  108OSM   H18U11136   4.382   2.590   8.445  0.7752 -0.2058  0.8945
  108OSM    C1F11137   4.346   3.048  10.118  0.4779  0.1278 -0.4148
  108OSM     OF11138   4.412   3.155  10.121 -0.2637 -0.1471  0.3282
  108OSM    C2F11139   4.198   3.047  10.098  0.2187  0.4476 -0.6557
  108OSM    H2F11140   4.177   3.156  10.104  2.9318  0.9625  1.3581
  108OSM    H2G11141   4.152   2.990  10.182  0.3819 -1.6418 -1.9077
  108OSM    C3F11142   4.158   2.973   9.964  0.0090  0.4923 -0.2443
  108OSM    H3F11143   4.205   2.872   9.965  1.5101  1.1574  0.9447
  108OSM    H3G11144   4.201   3.039   9.886  4.4959  0.2060  1.6570
  108OSM    C4F11145   4.013   2.952   9.955  0.3305  0.7469  0.2714
  108OSM    H4F11146   3.963   3.048   9.928 -1.1331 -0.4236 -1.4509
  108OSM    H4G11147   3.978   2.915  10.053 -0.1259 -1.2641 -0.6003
  108OSM    C5F11148   3.980   2.853   9.842 -0.0157  0.6266 -0.0752
  108OSM    H5F11149   3.882   2.806   9.865  1.2777 -2.2392  0.0077
  108OSM    H5G11150   4.040   2.760   9.851 -0.6468  0.2590  0.3912
  108OSM    C6F11151   3.978   2.921   9.705  0.4831  0.0439  0.3034
  108OSM    H6F11152   4.078   2.966   9.686  0.5688 -1.5662 -4.5377
  108OSM    H6G11153   3.893   2.991   9.690 -0.5661 -1.3983 -0.7550
  108OSM    C7F11154   3.968   2.819   9.591  0.4078  0.3244  0.7598
  108OSM    H7F11155   3.889   2.745   9.616 -1.0473  1.8890  0.9871
  108OSM    H7G11156   4.054   2.749   9.583 -1.2714 -1.7037 -0.4217
  108OSM    C8F11157   3.933   2.864   9.446  0.4301 -0.4913  0.0031
  108OSM    H8F11158   3.841   2.927   9.452 -0.0463 -1.2172  0.4849
  108OSM    H8G11159   3.923   2.765   9.397 -0.5987 -0.2275 -0.3594
  108OSM    C9F11160   4.029   2.946   9.369 -0.3000 -0.0415  0.2807
  108OSM    H9F11161   4.129   2.943   9.413  1.2396 -0.9171 -2.9956
  108OSM   C10F11162   4.025   3.015   9.251  0.4096  0.6363  0.0222
  108OSM   H10F11163   4.118   3.054   9.207 -0.0766 -1.6524 -3.4620
  108OSM   C11F11164   3.905   3.023   9.156  0.5008 -0.1160 -0.3062
  108OSM   H11F11165   3.873   3.128   9.143  1.5026 -0.0422 -2.5020
  108OSM   H11G11166   3.819   2.961   9.188  1.5268 -2.0709 -1.1242
  108OSM   C12F11167   3.923   2.962   9.020 -0.2451 -0.0572  0.3951
  108OSM   H12F11168   3.822   2.965   8.975 -0.4611  1.3451  0.9324
  108OSM   H12G11169   3.943   2.853   9.012  0.9638  0.1272  0.7471
  108OSM   C13F11170   4.014   3.036   8.928  0.1203 -0.0966 -0.0273
  108OSM   H13F11171   4.118   3.045   8.968  0.0050  0.0906  0.2376
  108OSM   H13G11172   3.985   3.139   8.898  1.0659  0.0306 -0.5529
  108OSM   C14F11173   4.033   2.950   8.799 -0.6032  0.9741  0.2351
  108OSM   H14F11174   3.931   2.947   8.756  0.7266  3.2694 -3.5366
  108OSM   H14G11175   4.078   2.850   8.817 -0.0446  0.7017 -2.3224
  108OSM   C15F11176   4.126   3.027   8.699  0.0473 -0.0697 -0.3439
  108OSM   H15F11177   4.232   2.997   8.712 -0.0505 -0.1351  0.3520
  108OSM   H15G11178   4.115   3.135   8.723  1.2275 -0.2664  1.2125
  108OSM   C16F11179   4.073   3.015   8.554 -0.1197 -0.0412  0.2649
  108OSM   H16F11180   3.969   3.056   8.553  0.1089  0.5550 -1.7206
  108OSM   H16G11181   4.075   2.908   8.527 -1.1250 -0.1413  0.5217
  108OSM   C17F11182   4.151   3.101   8.456 -0.8357  0.1561 -0.2952
  108OSM   H17F11183   4.147   3.210   8.474  1.4537  0.1268  0.6432
  108OSM   H17G11184   4.101   3.116   8.358 -1.1085  4.0389  0.2735
  108OSM   C18F11185   4.286   3.045   8.426 -0.0618 -0.0131 -0.5158
  108OSM   H18F11186   4.281   2.944   8.379 -1.5848 -0.4587  0.5366
  108OSM   H18G11187   4.340   3.043   8.523 -0.3487  0.0107 -0.3541
  108OSM   H18H11188   4.335   3.103   8.345 -1.9522  0.4491 -1.3674
  109OSM      N11189   5.245   3.566  10.619  0.2802 -0.1176 -0.2187
  109OSM    C1511190   5.205   3.432  10.596  0.1288  0.5103  0.0067
  109OSM   H15A11191   5.180   3.384  10.690  0.4201  2.0099  0.8788
  109OSM   H15B11192   5.290   3.375  10.562 -0.5856  0.6296 -2.0642
  109OSM   H15C11193   5.132   3.421  10.517  0.1327 -1.8637  0.2589
  109OSM    C1411194   5.123   3.635  10.673  0.1429  1.0940  0.3664
  109OSM   H14A11195   5.084   3.581  10.758  0.7659 -0.2369 -0.1585
  109OSM   H14B11196   5.041   3.647  10.603  1.8615  0.2321 -1.9213
  109OSM   H14C11197   5.148   3.736  10.703  1.9908  1.2270 -1.3643
  109OSM    C1311198   5.355   3.561  10.721  0.5232 -0.2240  0.8563
  109OSM   H13A11199   5.445   3.523  10.675  1.0502  1.4518  0.4292
  109OSM   H13B11200   5.328   3.501  10.807  0.9186  0.0751  1.1942
  109OSM   H13C11201   5.392   3.658  10.752 -0.6236  0.7030 -0.5156
  109OSM    C1211202   5.287   3.630  10.492 -0.4459  0.1313 -0.2628
  109OSM   H12A11203   5.219   3.614  10.409 -0.6140 -0.5282  0.0010
  109OSM   H12B11204   5.369   3.569  10.456 -0.9970 -1.1950  0.6623
  109OSM    C1111205   5.335   3.781  10.501  0.4005 -0.6750  0.4491
  109OSM   H11A11206   5.369   3.805  10.397  0.2379 -1.0463  0.3092
  109OSM   H11B11207   5.433   3.769  10.552 -0.9796 -1.8701  2.9997
  109OSM      P11208   5.166   3.982  10.482 -0.0110 -0.1094  0.3734
  109OSM    O1311209   5.045   4.011  10.561  0.2448  0.6706 -0.4949
  109OSM    O1411210   5.249   4.094  10.444 -0.1809  0.0309  0.1745
  109OSM    O1111211   5.131   3.916  10.346  0.3567  0.1298 -0.0258
  109OSM    O1211212   5.253   3.880  10.565  0.5422 -0.0309 -0.2108
  109OSM    C1S11213   4.997   3.872  10.318  0.4005  0.4829 -0.1002
  109OSM    H1S11214   4.930   3.960  10.309  0.0084  0.1579 -0.3533
  109OSM    H1T11215   4.962   3.800  10.395 -2.4333  0.6694 -1.0907
  109OSM     NF11216   4.858   3.777  10.131 -0.4739  0.4199  0.2685
  109OSM    HNF11217   4.818   3.685  10.137  0.2547  0.0180 -0.6708
  109OSM    C2S11218   4.998   3.805  10.174  0.1044 -0.4132  0.2337
  109OSM    H2S11219   5.046   3.871  10.099  0.3158  1.8794  2.2654
  109OSM    C3S11220   5.084   3.675  10.176  0.4779  0.2273  0.5679
  109OSM    H3S11221   5.048   3.606  10.256 -4.4041  0.7368 -0.8888
  109OSM     O311222   5.219   3.689  10.209 -0.1853 -0.3238  0.1647
  109OSM    HO311223   5.223   3.785  10.220  0.1201 -0.3178  0.0001
  109OSM    C4S11224   5.077   3.602  10.042  0.0932  0.3860  0.5015
  109OSM    H4S11225   5.058   3.651   9.946 -0.4824  1.1387  0.9931
  109OSM    C5S11226   5.098   3.467  10.020 -1.0614 -0.2211  0.1964
  109OSM    H5S11227   5.131   3.394  10.096  0.5965 -1.4432 -1.5748
  109OSM    C6S11228   5.103   3.413   9.875 -0.4874  0.0625 -0.2255
  109OSM    H6S11229   5.109   3.303   9.867 -1.0983 -0.0794  1.0488
  109OSM    H6T11230   5.202   3.442   9.834  0.4880 -0.4559  1.6467
  109OSM    C7S11231   4.981   3.438   9.791 -0.0573 -0.0090  0.6082
  109OSM    H7S11232   4.937   3.536   9.820 -0.1687 -0.1318  0.8577
  109OSM    H7T11233   4.899   3.367   9.814 -0.5818  0.4836  0.2560
  109OSM    C8S11234   5.007   3.442   9.642  0.5738 -0.6070 -0.5281
  109OSM    H8S11235   5.103   3.499   9.639  2.6442 -3.5600  2.4084
  109OSM    H8T11236   4.926   3.499   9.593  2.2947  1.8455 -0.7575
  109OSM    C9S11237   5.023   3.307   9.576  0.0260  0.2565 -0.2604
  109OSM    H9S11238   4.936   3.247   9.607 -1.7353  1.4167 -2.6238
  109OSM    H9T11239   5.110   3.241   9.597 -0.1574 -1.2124 -3.4872
  109OSM   C10S11240   5.015   3.322   9.426  0.2057  0.1665 -0.5686
  109OSM   H10S11241   5.102   3.381   9.390 -0.0098  1.0487  0.2908
  109OSM   H10T11242   4.918   3.364   9.394  0.4951  2.3201  1.1219
  109OSM   C11S11243   5.029   3.183   9.362 -0.0717 -0.1732  0.0634
  109OSM   H11S11244   4.949   3.122   9.409 -1.2820  1.3163  0.0281
  109OSM   H11T11245   5.137   3.158   9.373  0.3812  0.5757 -2.1424
  109OSM   C12S11246   4.999   3.200   9.211  0.4232 -0.2131 -0.0874
  109OSM   H12S11247   4.990   3.310   9.195  2.4722 -0.1143 -0.9793
  109OSM   H12T11248   4.905   3.153   9.175 -1.1150  2.6354 -0.1170
  109OSM   C13S11249   5.099   3.142   9.119 -0.0643 -0.1167  0.1500
  109OSM   H13S11250   5.135   3.040   9.143  0.3376 -0.1778 -0.6853
  109OSM   H13T11251   5.184   3.213   9.123  0.2630 -0.4728 -0.4155
  109OSM   C14S11252   5.041   3.130   8.977  0.1308  0.5918  0.7608
  109OSM   H14S11253   5.026   3.233   8.937  2.3629  0.7874  0.2877
  109OSM   H14T11254   4.937   3.092   8.985  0.5141 -0.1419  3.2393
  109OSM   C15S11255   5.118   3.052   8.879  0.5261  0.1030  0.4400
  109OSM   H15S11256   5.123   2.947   8.915  0.6370  0.2300  0.7991
  109OSM   H15T11257   5.219   3.096   8.863 -0.8672  3.1395 -1.0977
  109OSM   C16S11258   5.050   3.048   8.739  0.5169 -0.6757 -0.0611
  109OSM   H16S11259   5.044   3.148   8.691  1.1673 -1.1587 -1.1812
  109OSM   H16T11260   4.948   3.005   8.747 -1.5572  3.4653 -1.2073
  109OSM   C17S11261   5.135   2.961   8.637 -0.0258  0.3007  0.1202
  109OSM   H17S11262   5.072   2.947   8.547  1.5506 -0.7410 -0.8738
  109OSM   H17T11263   5.154   2.862   8.684  2.4631  0.8515  0.4419
  109OSM   C18S11264   5.262   3.029   8.583 -0.2721  0.0422  0.5853
  109OSM   H18S11265   5.335   3.060   8.660  0.4417  0.3498 -0.1932
  109OSM   H18T11266   5.238   3.130   8.542 -0.0423 -0.2938 -0.4108
  109OSM   H18U11267   5.309   2.966   8.504 -0.3220 -0.1141  0.6797
  109OSM    C1F11268   4.786   3.879  10.077  0.3671  0.2502  0.1163
  109OSM     OF11269   4.837   3.990  10.077 -0.2014  0.6627  0.0380
  109OSM    C2F11270   4.646   3.841  10.037  0.5079  0.0560  0.6417
  109OSM    H2F11271   4.589   3.930  10.001  0.1057  0.2716  1.7744
  109OSM    H2G11272   4.585   3.805  10.122 -0.6744 -0.8572 -0.5607
  109OSM    C3F11273   4.651   3.752   9.915  0.1578  0.0312 -0.3218
  109OSM    H3F11274   4.542   3.740   9.895  0.3927 -1.6190 -0.7222
  109OSM    H3G11275   4.682   3.647   9.933  0.7459  0.1093 -0.8587
  109OSM    C4F11276   4.699   3.818   9.789  0.1957  0.2056 -0.6203
  109OSM    H4F11277   4.807   3.845   9.792  0.4701 -0.8774 -0.3728
  109OSM    H4G11278   4.641   3.913   9.780 -0.0813  0.1172  0.1975
  109OSM    C5F11279   4.675   3.719   9.670 -0.2113  0.3830 -0.0320
  109OSM    H5F11280   4.567   3.698   9.659 -0.3120  0.9617 -0.1490
  109OSM    H5G11281   4.734   3.626   9.687 -2.3471 -0.5647  3.0498
  109OSM    C6F11282   4.709   3.785   9.534 -0.5912 -0.6625 -0.0154
  109OSM    H6F11283   4.815   3.821   9.536 -1.1177  1.0700 -0.9112
  109OSM    H6G11284   4.646   3.875   9.517  3.0027  1.6004 -3.2594
  109OSM    C7F11285   4.677   3.693   9.418 -0.4824 -0.5127  0.6873
  109OSM    H7F11286   4.568   3.704   9.397 -0.1975  0.4009 -0.4284
  109OSM    H7G11287   4.701   3.588   9.446 -0.8648 -0.5880  0.7357
  109OSM    C8F11288   4.763   3.720   9.289  0.4288 -0.8133  0.8791
  109OSM    H8F11289   4.869   3.719   9.321  0.6482  1.5599  0.3942
  109OSM    H8G11290   4.732   3.820   9.252 -0.6845 -1.3351  0.3466
  109OSM    C9F11291   4.724   3.614   9.182  0.4652  0.4423 -0.6331
  109OSM    H9F11292   4.712   3.510   9.215 -1.5866  0.6118 -0.6949
  109OSM   C10F11293   4.700   3.633   9.053  0.5454  0.1245 -0.2361
  109OSM   H10F11294   4.679   3.552   8.981  1.2062 -1.1343  0.9276
  109OSM   C11F11295   4.696   3.765   8.990 -0.0840 -0.0487  0.5469
  109OSM   H11F11296   4.708   3.757   8.880 -3.2407  0.8277  0.0606
  109OSM   H11G11297   4.776   3.832   9.030 -0.6492  0.4592  0.8574
  109OSM   C12F11298   4.552   3.815   9.001 -0.7422  0.2144 -0.1095
  109OSM   H12F11299   4.561   3.925   8.983 -0.3128  0.3684  0.9790
  109OSM   H12G11300   4.516   3.807   9.105 -0.4500  1.9858  0.1592
  109OSM   C13F11301   4.455   3.755   8.904  0.4719  0.0226 -0.2676
  109OSM   H13F11302   4.470   3.646   8.918  2.8006  0.3797  0.4636
  109OSM   H13G11303   4.494   3.776   8.802  2.9397 -0.6855  0.4722
  109OSM   C14F11304   4.311   3.804   8.930  0.0084  0.3803 -0.6608
  109OSM   H14F11305   4.313   3.915   8.924  0.9040  0.5173  1.2672
  109OSM   H14G11306   4.289   3.770   9.034 -1.2087 -1.4444 -1.4726
  109OSM   C15F11307   4.211   3.750   8.831 -0.0958 -0.6760 -0.6162
  109OSM   H15F11308   4.240   3.755   8.724 -0.8595  1.0862 -0.7775
  109OSM   H15G11309   4.115   3.801   8.850  0.8633  1.4526 -1.1625
  109OSM   C16F11310   4.165   3.606   8.860 -0.1817 -0.0255 -0.1688
  109OSM   H16F11311   4.138   3.601   8.967 -1.2149 -1.7698 -0.4735
  109OSM   H16G11312   4.256   3.545   8.846  0.4214  1.2213 -2.2312
  109OSM   C17F11313   4.051   3.555   8.772 -0.2383 -0.4381 -0.3141
  109OSM   H17F11314   3.964   3.624   8.782  0.4503  0.3132  0.6986
  109OSM   H17G11315   4.020   3.457   8.813  0.5320 -0.7778 -0.5292
  109OSM   C18F11316   4.086   3.529   8.627 -0.2993 -0.5726 -0.3706
  109OSM   H18F11317   4.110   3.624   8.576 -0.6788 -1.4007 -2.1815
  109OSM   H18G11318   4.006   3.477   8.571  0.0683 -1.8311  0.2319
  109OSM   H18H11319   4.177   3.467   8.613 -0.5192 -0.8490 -0.6047
  110OSM      N11320   6.114   2.742  10.816  0.2994 -0.5294 -0.2535
  110OSM    C1511321   5.989   2.681  10.768  1.1296  0.3642 -0.2413
  110OSM   H15A11322   5.995   2.576  10.744 -0.7222  0.3819 -0.9311
  110OSM   H15B11323   5.955   2.723  10.674  1.6176  1.2817 -0.0206
  110OSM   H15C11324   5.919   2.695  10.849 -0.1225  0.8856 -1.3718
  110OSM    C1411325   6.154   2.670  10.941 -0.6075  0.5917 -0.7113
  110OSM   H14A11326   6.255   2.695  10.971 -0.4691  0.4131 -1.0265
  110OSM   H14B11327   6.157   2.564  10.921 -0.7658  0.6465 -1.0176
  110OSM   H14C11328   6.083   2.689  11.021 -2.2481  1.2963 -2.2597
  110OSM    C1311329   6.221   2.707  10.721 -0.3205 -0.0114 -0.0788
  110OSM   H13A11330   6.316   2.745  10.753 -0.6796  1.4403 -0.6440
  110OSM   H13B11331   6.199   2.734  10.619  1.0151 -1.8971 -0.9083
  110OSM   H13C11332   6.244   2.602  10.723 -0.9789 -0.1781 -0.5813
  110OSM    C1211333   6.102   2.889  10.828  0.6848 -0.2632  0.2661
  110OSM   H12A11334   6.014   2.916  10.885  1.7730  1.0698  1.3808
  110OSM   H12B11335   6.082   2.920  10.727 -1.2303  0.7846  0.9242
  110OSM    C1111336   6.216   2.965  10.892  0.0010 -0.4311 -0.0831
  110OSM   H11A11337   6.228   2.916  10.991 -3.4681 -1.7111 -0.1624
  110OSM   H11B11338   6.181   3.070  10.897 -1.2571 -0.8949  1.4394
  110OSM      P11339   6.475   2.922  10.882 -0.2060 -0.4200 -0.1500
  110OSM    O1311340   6.497   3.006  11.001 -0.3057 -0.2478 -0.6323
  110OSM    O1411341   6.480   2.775  10.897 -0.2045  0.4083 -0.2705
  110OSM    O1111342   6.572   2.956  10.767 -0.2589  0.0161  0.0305
  110OSM    O1211343   6.336   2.966  10.818  0.5088 -0.2957  0.3274
  110OSM    C1S11344   6.602   2.879  10.647 -0.5741  0.0249 -0.3273
  110OSM    H1S11345   6.502   2.836  10.623 -1.1366  0.3477  1.2988
  110OSM    H1T11346   6.661   2.793  10.686  1.2696  1.3303 -0.0962
  110OSM     NF11347   6.645   2.878  10.408 -0.0142 -0.2713  0.9134
  110OSM    HNF11348   6.715   2.816  10.373 -1.7174 -2.0847  0.5317
  110OSM    C2S11349   6.652   2.957  10.527  0.0226  0.2034 -0.8312
  110OSM    H2S11350   6.595   3.052  10.527  3.3028  2.4883  2.6222
  110OSM    C3S11351   6.798   3.007  10.560  0.0187  0.4025 -1.2418
  110OSM    H3S11352   6.874   2.928  10.578 -1.7622 -1.2939 -0.8327
  110OSM     O311353   6.793   3.085  10.680 -0.3167 -0.2759 -0.1376
  110OSM    HO311354   6.706   3.061  10.714 -1.2395  0.2526 -1.9845
  110OSM    C4S11355   6.850   3.098  10.447 -0.5487 -0.2028  0.2575
  110OSM    H4S11356   6.778   3.165  10.398  0.8078  1.3866  0.3503
  110OSM    C5S11357   6.972   3.076  10.384  0.2923 -0.1102 -0.3971
  110OSM    H5S11358   7.044   3.002  10.423  1.2606 -0.2486 -2.3445
  110OSM    C6S11359   7.030   3.141  10.261 -0.4191  0.2106  0.1543
  110OSM    H6S11360   7.129   3.101  10.231 -0.9023 -1.0941  0.2318
  110OSM    H6T11361   7.042   3.251  10.268 -0.2507  0.3902 -2.1677
  110OSM    C7S11362   6.944   3.130  10.138  1.1043 -0.2473  1.0815
  110OSM    H7S11363   6.994   3.192  10.060 -0.7075  1.7087  1.3870
  110OSM    H7T11364   6.846   3.180  10.151  0.9179 -0.9222  2.4016
  110OSM    C8S11365   6.922   2.994  10.073 -0.3812  0.2928  0.9486
  110OSM    H8S11366   6.845   2.942  10.134 -2.4717  1.9074 -0.1804
  110OSM    H8T11367   7.008   2.925  10.064 -0.9911 -0.6944  2.2813
  110OSM    C9S11368   6.865   2.996   9.933 -0.2953 -0.1299 -0.2357
  110OSM    H9S11369   6.920   3.078   9.882 -2.3055  0.2894 -1.8410
  110OSM    H9T11370   6.755   3.012   9.936 -0.2977 -0.2530  0.8525
  110OSM   C10S11371   6.875   2.868   9.858  0.2155  0.2561  0.0972
  110OSM   H10S11372   6.815   2.796   9.918  4.0683 -1.8085  1.8642
  110OSM   H10T11373   6.980   2.832   9.845  0.5482  1.5055 -0.8846
  110OSM   C11S11374   6.815   2.873   9.718  0.3034 -0.2496  0.2288
  110OSM   H11S11375   6.705   2.884   9.730  0.3079 -0.2368  0.2608
  110OSM   H11T11376   6.826   2.775   9.667  1.3474 -1.2525  2.2777
  110OSM   C12S11377   6.878   2.980   9.622  0.0613 -0.5412 -0.9427
  110OSM   H12S11378   6.985   2.955   9.611  0.5211  0.9045 -0.0763
  110OSM   H12T11379   6.861   3.084   9.658 -0.9210 -1.6601  2.1448
  110OSM   C13S11380   6.793   2.976   9.489  0.0029  0.1992 -0.3185
  110OSM   H13S11381   6.693   3.025   9.495 -0.3967 -0.5247 -0.9599
  110OSM   H13T11382   6.777   2.870   9.463 -1.0466  0.4996 -0.9906
  110OSM   C14S11383   6.875   3.042   9.363  0.7151  0.0257  0.1427
  110OSM   H14S11384   6.962   2.974   9.353  2.1005  1.2638  2.7846
  110OSM   H14T11385   6.904   3.144   9.393  0.3629 -0.0058  0.6047
  110OSM   C15S11386   6.783   3.054   9.232 -0.5200  0.9713 -0.4529
  110OSM   H15S11387   6.697   3.120   9.258 -0.7339  1.4013 -2.1288
  110OSM   H15T11388   6.751   2.951   9.206 -0.5624  0.8357  0.1240
  110OSM   C16S11389   6.856   3.131   9.121  0.0892 -0.5346 -1.0906
  110OSM   H16S11390   6.959   3.091   9.111  0.3297  0.1313 -1.4016
  110OSM   H16T11391   6.867   3.234   9.163  0.1393 -0.4210 -1.3824
  110OSM   C17S11392   6.781   3.130   8.990 -0.2342 -0.3201  0.4087
  110OSM   H17S11393   6.690   3.195   8.984 -2.1644 -2.7114  1.7515
  110OSM   H17T11394   6.735   3.032   8.963 -0.1486 -0.1086 -0.5374
  110OSM   C18S11395   6.876   3.160   8.883 -0.3728 -0.5459 -0.3625
  110OSM   H18S11396   6.836   3.123   8.786 -0.3925 -1.7082  0.0858
  110OSM   H18T11397   6.980   3.128   8.904 -0.2801 -0.4153 -0.6060
  110OSM   H18U11398   6.881   3.271   8.872  1.3961 -0.6474 -0.9531
  110OSM    C1F11399   6.528   2.868  10.344  0.2723 -0.0806 -0.6730
  110OSM     OF11400   6.425   2.906  10.397  0.3670 -0.4094  0.2480
  110OSM    C2F11401   6.542   2.812  10.205 -0.0663  0.1256  0.5021
  110OSM    H2F11402   6.529   2.702  10.200  0.4947  0.1185 -1.5602
  110OSM    H2G11403   6.645   2.836  10.171 -0.2125 -1.3839 -1.1091
  110OSM    C3F11404   6.430   2.884  10.126  0.6105 -0.5726  0.7228
  110OSM    H3F11405   6.419   2.993  10.144 -0.1767 -0.2881 -1.2322
  110OSM    H3G11406   6.333   2.850  10.169 -0.0411 -0.9866 -1.0053
  110OSM    C4F11407   6.461   2.849   9.983 -0.3340  0.1548 -0.0844
  110OSM    H4F11408   6.455   2.739   9.976  0.6312  0.0080  1.1815
  110OSM    H4G11409   6.565   2.877   9.956 -1.2064  0.4367 -3.5900
  110OSM    C5F11410   6.364   2.916   9.887 -0.9220  0.0975 -0.5064
  110OSM    H5F11411   6.359   3.024   9.912  0.0185 -0.3504  1.9220
  110OSM    H5G11412   6.261   2.876   9.897 -0.5924 -1.3169 -2.1918
  110OSM    C6F11413   6.407   2.891   9.738 -0.3460  0.2403 -0.1258
  110OSM    H6F11414   6.514   2.923   9.739 -1.0870  3.0233  2.1943
  110OSM    H6G11415   6.352   2.961   9.672 -1.0358 -0.8316 -0.7123
  110OSM    C7F11416   6.374   2.750   9.684  0.4417  0.0119  0.2253
  110OSM    H7F11417   6.265   2.734   9.695  0.1738  1.2616 -0.4221
  110OSM    H7G11418   6.429   2.671   9.741 -0.1327 -0.2297  0.4554
  110OSM    C8F11419   6.402   2.731   9.533 -0.0893  0.7883  0.4948
  110OSM    H8F11420   6.378   2.625   9.513  0.9189  0.5380  0.5857
  110OSM    H8G11421   6.511   2.750   9.521 -0.1682  0.5499 -0.6658
  110OSM    C9F11422   6.338   2.826   9.442 -0.1451  0.3453  0.1299
  110OSM    H9F11423   6.300   2.920   9.486 -0.2062  0.4973 -0.2437
  110OSM   C10F11424   6.310   2.810   9.315 -0.5395  0.7591 -0.2401
  110OSM   H10F11425   6.265   2.893   9.259 -3.1230  0.0513  0.6378
  110OSM   C11F11426   6.338   2.691   9.231 -0.6022  0.4588  0.2727
  110OSM   H11F11427   6.241   2.642   9.205 -0.1518  0.0893 -0.7423
  110OSM   H11G11428   6.386   2.606   9.284 -1.2161 -0.2380 -0.2651
  110OSM   C12F11429   6.422   2.724   9.110 -0.0834  0.1651  0.2877
  110OSM   H12F11430   6.450   2.626   9.064 -0.3549 -0.5170  1.5164
  110OSM   H12G11431   6.517   2.774   9.138 -0.1047  1.0005 -1.0722
  110OSM   C13F11432   6.356   2.811   9.004 -0.1006 -0.2049 -1.0809
  110OSM   H13F11433   6.352   2.915   9.045 -4.0466 -1.1102  1.3006
  110OSM   H13G11434   6.257   2.770   8.976  0.2753 -1.2944 -0.8733
  110OSM   C14F11435   6.433   2.796   8.872 -0.1778  0.0438  0.5077
  110OSM   H14F11436   6.448   2.687   8.854 -3.0567 -0.6517  1.7718
  110OSM   H14G11437   6.533   2.844   8.879 -0.0594 -0.0179 -0.6600
  110OSM   C15F11438   6.362   2.840   8.741 -0.1326 -0.5257 -1.0080
  110OSM   H15F11439   6.348   2.951   8.746  0.6777 -0.3632 -1.9050
  110OSM   H15G11440   6.263   2.791   8.742  0.3511 -1.5289  0.6857
  110OSM   C16F11441   6.428   2.834   8.606 -0.1783 -0.2627 -0.4653
  110OSM   H16F11442   6.473   2.732   8.597 -2.1156 -1.2435  0.3473
  110OSM   H16G11443   6.512   2.907   8.608 -1.8013  1.9532 -3.7884
  110OSM   C17F11444   6.339   2.863   8.488  0.7075 -0.0503  1.1254
  110OSM   H17F11445   6.261   2.784   8.484 -0.2168  0.8923 -1.9069
  110OSM   H17G11446   6.396   2.869   8.393  0.7309 -2.4063  0.9365
  110OSM   C18F11447   6.268   3.000   8.504  0.0657 -0.1105 -0.7829
  110OSM   H18F11448   6.345   3.080   8.505  0.3283 -0.3212 -2.4703
  110OSM   H18G11449   6.211   3.009   8.600  0.4630  0.8791 -0.6250
  110OSM   H18H11450   6.203   3.019   8.416 -0.7313 -1.4044 -0.5070
  111OSM      N11451   5.438   0.626  10.974  0.1397 -0.0282 -0.2638
  111OSM    C1511452   5.321   0.656  11.059 -0.0370  0.2132  0.6973
  111OSM   H15A11453   5.255   0.572  11.069  1.4953 -1.1517 -0.1978
  111OSM   H15B11454   5.261   0.734  11.014  1.2566  1.1062  0.4485
  111OSM   H15C11455   5.361   0.684  11.156  1.5020 -2.2546  0.8724
  111OSM    C1411456   5.559   0.611  11.056  0.2506  0.6277 -0.5982
  111OSM   H14A11457   5.649   0.621  10.996  0.0847  0.7411 -0.8342
  111OSM   H14B11458   5.558   0.519  11.112  2.4133  0.9524  0.0734
  111OSM   H14C11459   5.560   0.692  11.127  1.2085  1.1562 -1.1874
  111OSM    C1311460   5.420   0.501  10.897 -0.2973  0.4248 -0.2615
  111OSM   H13A11461   5.388   0.419  10.960  2.9554  0.7414  2.0503
  111OSM   H13B11462   5.510   0.456  10.858 -1.7915 -0.4507 -2.9875
  111OSM   H13C11463   5.352   0.516  10.814  0.4095  0.0147 -0.9384
  111OSM    C1211464   5.459   0.744  10.877  0.0035  0.1039  0.3841
  111OSM   H12A11465   5.457   0.841  10.924  3.2791 -0.7116  2.5142
  111OSM   H12B11466   5.371   0.739  10.815 -0.1030 -0.7952  0.5945
  111OSM    C1111467   5.583   0.744  10.771 -0.2628  0.0859 -0.5797
  111OSM   H11A11468   5.572   0.832  10.704 -1.0240 -0.6498 -1.4347
  111OSM   H11B11469   5.569   0.645  10.723  0.1926 -0.5145  0.4723
  111OSM      P11470   5.827   0.651  10.811  0.6612 -0.1910  0.0287
  111OSM    O1311471   5.952   0.724  10.839 -0.4996  0.6171 -0.2554
  111OSM    O1411472   5.811   0.522  10.876  0.0563  0.6498  0.1044
  111OSM    O1111473   5.814   0.626  10.657  1.1710  0.1590  0.6866
  111OSM    O1211474   5.709   0.750  10.841  0.2535 -0.6065 -0.2834
  111OSM    C1S11475   5.827   0.739  10.562 -0.4501  0.4095 -0.6568
  111OSM    H1S11476   5.936   0.762  10.569 -0.6525  1.4544 -0.7883
  111OSM    H1T11477   5.757   0.820  10.593 -0.0217  0.8870 -0.9288
  111OSM     NF11478   5.834   0.800  10.323 -0.3314  0.0515  0.6376
  111OSM    HNF11479   5.774   0.837  10.253  3.0814  1.9645 -1.5278
  111OSM    C2S11480   5.797   0.689  10.416  0.1107 -0.4339 -0.2407
  111OSM    H2S11481   5.864   0.602  10.395 -2.4551 -2.1272 -2.2015
  111OSM    C3S11482   5.654   0.631  10.408  0.3157 -0.2191 -1.2117
  111OSM    H3S11483   5.593   0.716  10.445 -0.0427 -0.5317 -1.0720
  111OSM     O311484   5.630   0.521  10.495 -0.2615 -0.5404 -0.2930
  111OSM    HO311485   5.694   0.528  10.567  0.9137 -1.8513 -1.1611
  111OSM    C4S11486   5.610   0.594  10.262 -0.0079 -0.1885  0.8716
  111OSM    H4S11487   5.555   0.680  10.220  1.2467  0.3096  0.1891
  111OSM    C5S11488   5.634   0.486  10.193 -0.5688 -0.4080  0.1248
  111OSM    H5S11489   5.713   0.414  10.219  0.3958 -0.0222 -1.5393
  111OSM    C6S11490   5.578   0.462  10.056 -0.2496 -0.2579  0.1581
  111OSM    H6S11491   5.509   0.543  10.022 -0.0032 -0.7547 -1.6409
  111OSM    H6T11492   5.514   0.372  10.054 -1.2713  0.4309  0.7792
  111OSM    C7S11493   5.692   0.449   9.958 -0.3397 -0.2452  0.0783
  111OSM    H7S11494   5.775   0.385   9.995  0.9478  1.5477  0.4506
  111OSM    H7T11495   5.735   0.551   9.950 -0.2804  0.0543  3.2124
  111OSM    C8S11496   5.650   0.413   9.813  0.5885  0.0127  0.0838
  111OSM    H8S11497   5.627   0.306   9.833 -2.5614  1.0049  2.6254
  111OSM    H8T11498   5.728   0.440   9.739 -0.1565 -0.9164 -1.0757
  111OSM    C9S11499   5.518   0.465   9.763  0.7703 -0.7024  1.0508
  111OSM    H9S11500   5.533   0.575   9.768  1.0663 -0.5647 -1.5181
  111OSM    H9T11501   5.431   0.448   9.831 -1.1500  1.0063 -0.8263
  111OSM   C10S11502   5.481   0.421   9.623 -0.0059  0.1973 -0.2506
  111OSM   H10S11503   5.370   0.422   9.614 -0.0422 -0.7993  0.0051
  111OSM   H10T11504   5.517   0.318   9.606  0.7242  0.6123 -1.2722
  111OSM   C11S11505   5.540   0.512   9.525  0.1593 -0.8004  0.3037
  111OSM   H11S11506   5.650   0.511   9.533  0.2815 -1.2981 -1.1691
  111OSM   H11T11507   5.496   0.613   9.541 -0.4224 -1.3521  2.4979
  111OSM   C12S11508   5.495   0.461   9.388  0.2859  0.3089  0.1605
  111OSM   H12S11509   5.385   0.469   9.378  0.3690 -0.5283 -2.0549
  111OSM   H12T11510   5.527   0.354   9.384 -0.3157  0.1136  0.3542
  111OSM   C13S11511   5.549   0.543   9.270 -0.1048  0.0278 -0.2905
  111OSM   H13S11512   5.660   0.542   9.271 -0.0793 -0.2752  2.0351
  111OSM   H13T11513   5.507   0.644   9.293 -3.0472 -1.1351 -0.0544
  111OSM   C14S11514   5.509   0.502   9.129 -0.2256  0.0801  0.2309
  111OSM   H14S11515   5.399   0.490   9.125 -0.1851 -0.4690  0.7594
  111OSM   H14T11516   5.550   0.400   9.112  1.0405  0.1582  2.4785
  111OSM   C15S11517   5.549   0.609   9.031 -0.2707  0.0527 -0.7826
  111OSM   H15S11518   5.658   0.623   9.048 -0.1011 -3.2527  1.6231
  111OSM   H15T11519   5.486   0.698   9.053 -0.3327 -0.0065 -0.7238
  111OSM   C16S11520   5.533   0.566   8.882 -0.0900  0.3264 -0.1181
  111OSM   H16S11521   5.423   0.549   8.874 -0.0623  0.7717 -1.7896
  111OSM   H16T11522   5.582   0.468   8.865 -0.2345 -0.5071  3.4552
  111OSM   C17S11523   5.554   0.677   8.785 -0.3928  0.4605  0.1367
  111OSM   H17S11524   5.508   0.769   8.827  1.6437  0.7589  1.9115
  111OSM   H17T11525   5.509   0.657   8.685 -0.9620  1.2129  0.2379
  111OSM   C18S11526   5.699   0.719   8.780  0.1125  0.7300  0.3196
  111OSM   H18S11527   5.770   0.638   8.754  0.0152  0.8546 -0.3430
  111OSM   H18T11528   5.731   0.757   8.880  0.4940  1.3049 -0.0135
  111OSM   H18U11529   5.726   0.796   8.704  1.3457 -0.1661 -0.1902
  111OSM    C1F11530   5.947   0.866  10.310 -0.4532 -0.4794  0.5478
  111OSM     OF11531   6.045   0.853  10.383  0.6581 -0.1736 -0.3707
  111OSM    C2F11532   5.962   0.961  10.187  0.7914 -0.8129  0.3921
  111OSM    H2F11533   5.879   1.030  10.213 -0.6179 -2.5086  0.5929
  111OSM    H2G11534   5.914   0.920  10.096 -0.6255 -1.3625  1.3427
  111OSM    C3F11535   6.097   1.033  10.189  0.5894  0.0724 -0.1891
  111OSM    H3F11536   6.183   0.967  10.214 -0.6508 -1.8022 -0.7106
  111OSM    H3G11537   6.090   1.096  10.281 -0.3449 -0.9110  0.4432
  111OSM    C4F11538   6.110   1.106  10.064 -0.0763  0.5104  0.0213
  111OSM    H4F11539   6.127   1.037   9.979  0.4345  2.1326 -1.2599
  111OSM    H4G11540   6.205   1.164  10.074  0.8152 -1.0768  1.3314
  111OSM    C5F11541   6.002   1.210  10.030  0.5356  1.4764  0.1947
  111OSM    H5F11542   5.986   1.276  10.117 -0.2718 -0.3721  1.4952
  111OSM    H5G11543   5.911   1.149  10.013  1.6059 -0.9739  2.6466
  111OSM    C6F11544   6.022   1.304   9.904 -0.7564  0.6843  0.1097
  111OSM    H6F11545   6.097   1.381   9.934  0.2262 -0.2380  0.0792
  111OSM    H6G11546   5.924   1.345   9.870 -0.4071  1.8576  0.4668
  111OSM    C7F11547   6.084   1.227   9.783  0.5089  0.0578 -0.4900
  111OSM    H7F11548   6.018   1.140   9.764  0.2665  0.1623 -0.1224
  111OSM    H7G11549   6.175   1.174   9.818 -0.7921 -0.8191  1.7434
  111OSM    C8F11550   6.116   1.319   9.667 -0.1438  0.8330 -1.1357
  111OSM    H8F11551   6.182   1.261   9.599 -0.9338 -1.4900 -0.0422
  111OSM    H8G11552   6.165   1.412   9.702  2.2883 -0.9164  0.3899
  111OSM    C9F11553   5.994   1.363   9.596 -0.0049  0.3354  0.6250
  111OSM    H9F11554   5.909   1.383   9.663 -1.1963 -0.0090 -0.7392
  111OSM   C10F11555   5.973   1.374   9.461 -0.7660  0.2599 -0.9404
  111OSM   H10F11556   5.876   1.416   9.428 -1.4521  0.0442  0.6933
  111OSM   C11F11557   6.064   1.346   9.352 -0.2829  0.2415 -0.2797
  111OSM   H11F11558   6.162   1.298   9.376 -0.5086 -0.4698 -0.7488
  111OSM   H11G11559   6.084   1.434   9.288 -0.3054  0.2695 -0.2479
  111OSM   C12F11560   5.986   1.249   9.259 -0.0701 -0.1684 -0.5152
  111OSM   H12F11561   5.892   1.299   9.226  0.5529  0.1218 -1.9171
  111OSM   H12G11562   5.948   1.155   9.305 -2.5657  0.3964 -1.2811
  111OSM   C13F11563   6.057   1.216   9.127  0.0292  0.4441  0.3994
  111OSM   H13F11564   6.148   1.154   9.144  1.6154  1.9255 -1.9522
  111OSM   H13G11565   6.089   1.304   9.068  1.3364 -1.2389 -1.5739
  111OSM   C14F11566   5.969   1.137   9.035  0.4137  0.3343  0.0531
  111OSM   H14F11567   5.889   1.201   8.992  1.0373  0.6045 -0.7304
  111OSM   H14G11568   5.928   1.047   9.086 -0.8425  1.8896  1.9446
  111OSM   C15F11569   6.043   1.094   8.905  0.2973  0.4762  0.8148
  111OSM   H15F11570   6.129   1.028   8.925  0.4558  0.3593 -0.2083
  111OSM   H15G11571   6.081   1.182   8.848  0.5355 -0.5072 -0.5760
  111OSM   C16F11572   5.944   1.010   8.815  0.0556 -0.3348 -0.3122
  111OSM   H16F11573   5.848   1.067   8.815  0.6106  0.6262 -0.1310
  111OSM   H16G11574   5.925   0.917   8.872 -0.0882 -0.3125 -0.3241
  111OSM   C17F11575   5.993   0.992   8.674 -0.1084 -0.1178  0.6580
  111OSM   H17F11576   5.933   0.910   8.629  1.0246  0.0712 -1.2782
  111OSM   H17G11577   6.101   0.966   8.680  0.2916  1.5722  1.3894
  111OSM   C18F11578   5.989   1.105   8.575 -0.2078  0.7180  0.0882
  111OSM   H18F11579   5.887   1.147   8.561 -0.5372 -0.0790  0.0625
  111OSM   H18G11580   6.025   1.063   8.479  1.8530  0.9232  0.7250
  111OSM   H18H11581   6.063   1.176   8.620 -0.3791  0.2402  1.1578
  112OSM      N11582   6.449   3.748  11.362  0.4343 -0.0022 -0.1442
  112OSM    C1511583   6.497   3.610  11.386 -0.1477  0.0346 -0.1405
  112OSM   H15A11584   6.595   3.611  11.431 -0.2758 -1.8014  0.2639
  112OSM   H15B11585   6.492   3.555  11.293  0.3901 -0.8350  0.3274
  112OSM   H15C11586   6.430   3.556  11.451 -1.8451  0.1121 -1.7384
  112OSM    C1411587   6.304   3.742  11.323 -0.6900 -0.2340  0.7656
  112OSM   H14A11588   6.253   3.832  11.291  0.4573  0.7342  1.5724
  112OSM   H14B11589   6.261   3.690  11.408 -1.2892 -2.6186 -0.9081
  112OSM   H14C11590   6.295   3.671  11.242 -0.2143  2.4148 -1.7656
  112OSM    C1311591   6.458   3.819  11.497  0.0705  0.0353  0.3927
  112OSM   H13A11592   6.557   3.805  11.538  0.4538  0.1978 -0.4580
  112OSM   H13B11593   6.382   3.766  11.553 -1.4946  1.0819 -0.6889
  112OSM   H13C11594   6.433   3.922  11.477 -0.1405 -0.2734 -1.0370
  112OSM    C1211595   6.536   3.811  11.261  0.3908 -0.2022  0.5514
  112OSM   H12A11596   6.632   3.831  11.306  0.9960  0.9305 -1.1180
  112OSM   H12B11597   6.491   3.903  11.228 -2.2178 -1.6852 -0.2903
  112OSM    C1111598   6.557   3.740  11.127  0.5760  0.0624 -0.8744
  112OSM   H11A11599   6.617   3.648  11.137  1.8927  1.0296  0.5620
  112OSM   H11B11600   6.620   3.797  11.056  0.0827 -0.4738 -1.7638
  112OSM      P11601   6.370   3.810  10.960 -0.0301  0.1332  0.3481
  112OSM    O1311602   6.244   3.754  10.906  0.4777 -0.2662  0.1994
  112OSM    O1411603   6.361   3.935  11.026 -0.8323 -0.6341 -0.1295
  112OSM    O1111604   6.483   3.809  10.843 -0.9011 -0.0466  0.3713
  112OSM    O1211605   6.430   3.706  11.067  0.2637 -0.3296 -0.0449
  112OSM    C1S11606   6.474   3.688  10.761  0.1306 -0.2730 -0.4874
  112OSM    H1S11607   6.387   3.714  10.697 -0.9144  2.8324  1.9264
  112OSM    H1T11608   6.448   3.596  10.817 -2.5817  0.3969 -0.4946
  112OSM     NF11609   6.567   3.607  10.539 -0.3846  0.0179 -0.0491
  112OSM    HNF11610   6.614   3.520  10.531 -0.3896 -0.1314  1.3571
  112OSM    C2S11611   6.599   3.677  10.668 -0.1596  0.6972 -0.7526
  112OSM    H2S11612   6.622   3.779  10.632 -0.6535  0.4237 -1.8887
  112OSM    C3S11613   6.727   3.622  10.749 -0.7193 -0.0311 -1.0766
  112OSM    H3S11614   6.696   3.524  10.790 -0.5813  0.5466  0.4690
  112OSM     O311615   6.763   3.696  10.863  0.3932 -0.0695  0.0506
  112OSM    HO311616   6.693   3.761  10.875 -1.4474 -1.9373 -0.0014
  112OSM    C4S11617   6.842   3.614  10.656 -0.9876 -0.0445 -0.2509
  112OSM    H4S11618   6.901   3.522  10.647  2.0975  1.9045 -1.5572
  112OSM    C5S11619   6.904   3.715  10.590  0.4105  0.4397  0.4327
  112OSM    H5S11620   6.881   3.819  10.619 -2.1929 -0.3429  1.4664
  112OSM    C6S11621   7.016   3.688  10.490  0.6622 -0.8859  0.5449
  112OSM    H6S11622   7.116   3.704  10.536  2.0062 -0.0869 -2.3752
  112OSM    H6T11623   7.022   3.761  10.406  0.6400 -0.9492  0.4891
  112OSM    C7S11624   7.025   3.552  10.425  0.0769  0.4735 -0.1226
  112OSM    H7S11625   6.921   3.529  10.394  0.6114 -1.8808 -0.3520
  112OSM    H7T11626   7.058   3.484  10.507 -3.1889  1.1684  1.9696
  112OSM    C8S11627   7.114   3.548  10.302 -0.8883  0.1558  0.4265
  112OSM    H8S11628   7.122   3.442  10.269 -1.8573 -0.2484  1.4178
  112OSM    H8T11629   7.215   3.577  10.337 -2.0708  0.0626  4.4432
  112OSM    C9S11630   7.061   3.640  10.190  0.2224  0.0204 -0.3629
  112OSM    H9S11631   7.096   3.745  10.198 -0.8010  0.2545  2.8610
  112OSM    H9T11632   6.950   3.629  10.184  0.3663 -1.3360 -0.9230
  112OSM   C10S11633   7.100   3.597  10.050 -0.1594 -0.0103 -0.3704
  112OSM   H10S11634   7.211   3.590  10.053 -0.1733 -2.0160 -1.8630
  112OSM   H10T11635   7.079   3.690   9.993 -0.2134  0.1465 -0.0930
  112OSM   C11S11636   7.025   3.477   9.998  0.0117  0.4834 -0.2167
  112OSM   H11S11637   6.921   3.494   9.964  0.0209  0.3338 -0.3218
  112OSM   H11T11638   7.014   3.399  10.077 -0.0343 -0.4866 -1.1497
  112OSM   C12S11639   7.102   3.417   9.875  0.1267  0.1279  0.5032
  112OSM   H12S11640   7.182   3.347   9.907  1.6129 -0.6723 -4.2235
  112OSM   H12T11641   7.143   3.507   9.824 -1.8861 -0.3194 -2.0295
  112OSM   C13S11642   7.008   3.343   9.786 -0.5317 -0.3877 -0.1432
  112OSM   H13S11643   6.903   3.377   9.772 -0.4923 -0.9356 -2.1183
  112OSM   H13T11644   7.004   3.238   9.824  0.7946 -0.2768  0.3478
  112OSM   C14S11645   7.055   3.333   9.642 -0.5545 -0.4715  0.5081
  112OSM   H14S11646   7.010   3.246   9.591 -1.0143 -0.2017  0.4520
  112OSM   H14T11647   7.165   3.322   9.629 -0.8420 -1.7391 -1.1284
  112OSM   C15S11648   7.009   3.450   9.554 -0.5641 -0.0675 -0.3428
  112OSM   H15S11649   7.076   3.534   9.582  0.7008 -0.9320 -0.6688
  112OSM   H15T11650   6.913   3.486   9.596  0.4181  1.7912  0.4641
  112OSM   C16S11651   7.014   3.408   9.403 -0.2376 -0.2273 -0.5472
  112OSM   H16S11652   6.917   3.355   9.390 -0.4566 -0.7653  2.5599
  112OSM   H16T11653   7.097   3.336   9.388 -0.6865 -1.0524  0.8136
  112OSM   C17S11654   7.017   3.527   9.307 -0.0004 -0.6966 -0.2846
  112OSM   H17S11655   6.945   3.605   9.339 -0.0264 -0.4253 -0.9954
  112OSM   H17T11656   6.977   3.502   9.206 -0.7555  0.2422 -0.2241
  112OSM   C18S11657   7.156   3.584   9.286  0.1282  1.0004 -0.0432
  112OSM   H18S11658   7.222   3.509   9.236 -0.4712 -0.7341  1.6322
  112OSM   H18T11659   7.194   3.612   9.386 -0.1800  0.2942  0.2793
  112OSM   H18U11660   7.159   3.670   9.216  0.3866  1.4063  0.4665
  112OSM    C1F11661   6.476   3.641  10.455 -0.4771  0.0691  0.3367
  112OSM     OF11662   6.421   3.750  10.445 -0.1639 -0.4157 -0.0358
  112OSM    C2F11663   6.448   3.537  10.351  0.0376 -0.2264 -0.1083
  112OSM    H2F11664   6.344   3.560  10.318 -2.0227 -4.5999  2.5538
  112OSM    H2G11665   6.449   3.433  10.390  1.6812 -0.3398 -0.3796
  112OSM    C3F11666   6.551   3.541  10.232  0.5410 -0.6113  0.2136
  112OSM    H3F11667   6.652   3.554  10.275 -0.0891  2.6923  0.9282
  112OSM    H3G11668   6.529   3.635  10.178 -0.7140 -1.6196 -1.1278
  112OSM    C4F11669   6.545   3.407  10.149  0.7449 -0.7575  0.6370
  112OSM    H4F11670   6.440   3.401  10.112  1.0355 -0.5723 -0.2280
  112OSM    H4G11671   6.575   3.322  10.213 -1.8945 -1.8485  0.5689
  112OSM    C5F11672   6.649   3.412  10.042 -0.3113  0.1950 -0.3249
  112OSM    H5F11673   6.742   3.414  10.102 -0.6623  1.7562  0.2136
  112OSM    H5G11674   6.644   3.512   9.994 -0.3348  0.3519  0.0018
  112OSM    C6F11675   6.647   3.306   9.922  0.0971 -0.4819 -0.3810
  112OSM    H6F11676   6.684   3.209   9.962  0.2585 -1.4372 -2.6559
  112OSM    H6G11677   6.716   3.346   9.844 -2.8336 -1.6824 -3.8333
  112OSM    C7F11678   6.510   3.291   9.866 -0.1763  0.2053 -0.9713
  112OSM    H7F11679   6.432   3.273   9.943 -0.9610  1.2836 -1.4844
  112OSM    H7G11680   6.523   3.194   9.813  0.9489 -1.5389  2.2173
  112OSM    C8F11681   6.455   3.400   9.776 -0.4954 -0.0454  0.0269
  112OSM    H8F11682   6.532   3.429   9.701 -0.6416 -1.2319 -0.6102
  112OSM    H8G11683   6.428   3.485   9.842  0.9253  0.6583 -0.2716
  112OSM    C9F11684   6.332   3.358   9.700  0.1533  0.1590  0.5118
  112OSM    H9F11685   6.238   3.385   9.751 -0.9476  2.3910 -2.4129
  112OSM   C10F11686   6.324   3.308   9.576  0.2376 -0.4008  0.3459
  112OSM   H10F11687   6.219   3.285   9.554 -1.0962  1.8119  3.5656
  112OSM   C11F11688   6.434   3.286   9.470  0.5862  0.8651  0.2276
  112OSM   H11F11689   6.462   3.184   9.437  0.2898  0.6666  0.5795
  112OSM   H11G11690   6.537   3.319   9.496  1.1328  0.9340 -1.8002
  112OSM   C12F11691   6.401   3.361   9.345  1.0815 -0.3321  0.0511
  112OSM   H12F11692   6.497   3.368   9.289  1.3089 -0.6685  0.3885
  112OSM   H12G11693   6.378   3.468   9.364  2.3157  0.0359 -0.4419
  112OSM   C13F11694   6.298   3.294   9.260  0.3942  0.7877  0.8868
  112OSM   H13F11695   6.197   3.276   9.303  0.8683 -1.3711  1.1893
  112OSM   H13G11696   6.347   3.195   9.249 -0.1529  0.5436  0.5772
  112OSM   C14F11697   6.286   3.353   9.121 -0.3881 -0.0709  0.2764
  112OSM   H14F11698   6.391   3.358   9.084 -0.7878 -1.0176 -1.0741
  112OSM   H14G11699   6.237   3.453   9.122  1.5079  0.9194 -0.2408
  112OSM   C15F11700   6.215   3.256   9.027  0.6710 -0.1601  0.3440
  112OSM   H15F11701   6.113   3.232   9.062  1.0067 -0.0320  1.4348
  112OSM   H15G11702   6.278   3.165   9.030 -0.0847 -0.6613  1.1918
  112OSM   C16F11703   6.215   3.294   8.879  0.4360  0.1746 -0.5600
  112OSM   H16F11704   6.169   3.211   8.821  1.4446 -0.7586 -0.0740
  112OSM   H16G11705   6.319   3.316   8.844  0.4854  0.6041 -0.1512
  112OSM   C17F11706   6.139   3.420   8.848 -0.2594  0.8236  0.4398
  112OSM   H17F11707   6.185   3.506   8.900 -0.0700  2.1814 -1.8233
  112OSM   H17G11708   6.033   3.423   8.880 -0.3008 -1.5189  0.7102
  112OSM   C18F11709   6.154   3.459   8.702 -0.3043  0.4941 -0.4950
  112OSM   H18F11710   6.260   3.468   8.671 -0.6411  1.4594 -1.4491
  112OSM   H18G11711   6.093   3.548   8.676 -0.3177  1.0364  1.2676
  112OSM   H18H11712   6.111   3.374   8.644 -0.7868  0.9873 -0.8675
  113OSM      N11713   2.496   4.085  11.325 -0.6441  0.0665 -0.3689
  113OSM    C1511714   2.606   4.165  11.357  0.0795 -0.1162  0.1710
  113OSM   H15A11715   2.586   4.228  11.442  0.3620  0.3610 -0.1093
  113OSM   H15B11716   2.642   4.221  11.272 -1.2276 -0.4631 -0.6464
  113OSM   H15C11717   2.688   4.103  11.391  0.8729  1.8349  2.0807
  113OSM    C1411718   2.466   3.989  11.438 -0.6562  0.7470  0.1033
  113OSM   H14A11719   2.556   3.940  11.472 -1.6949  0.0066  1.9376
  113OSM   H14B11720   2.390   3.917  11.414  0.4288 -0.4700  0.2164
  113OSM   H14C11721   2.440   4.044  11.527  2.8820  2.0949  0.4374
  113OSM    C1311722   2.369   4.168  11.317  0.1527 -0.1260 -0.7353
  113OSM   H13A11723   2.286   4.105  11.289 -1.4810  1.8532 -0.5938
  113OSM   H13B11724   2.375   4.242  11.239 -0.4329  1.5745  0.7687
  113OSM   H13C11725   2.346   4.204  11.416  2.1674  1.5136 -0.7977
  113OSM    C1211726   2.520   4.010  11.198 -0.5516  0.3337 -0.4181
  113OSM   H12A11727   2.446   3.934  11.180 -0.5674  0.3289 -0.3329
  113OSM   H12B11728   2.609   3.951  11.212 -1.3473 -0.4110  2.0445
  113OSM    C1111729   2.534   4.096  11.071 -0.3571 -0.6015 -1.1823
  113OSM   H11A11730   2.477   4.191  11.079  3.0618  1.6077 -1.2442
  113OSM   H11B11731   2.515   4.031  10.983  0.0056 -0.7058 -1.1846
  113OSM      P11732   2.791   4.051  11.030  0.0555  0.2014 -0.2339
  113OSM    O1311733   2.925   4.117  11.030  0.2604 -0.0563 -0.0643
  113OSM    O1411734   2.777   3.929  11.108  0.1659  0.1993  0.3545
  113OSM    O1111735   2.744   4.030  10.877 -0.0336  0.2166 -0.5192
  113OSM    O1211736   2.670   4.150  11.077 -0.5391  0.2909  0.0795
  113OSM    C1S11737   2.717   4.130  10.787  0.1568 -0.2989 -0.3606
  113OSM    H1S11738   2.818   4.169  10.763 -0.2953  0.2385 -1.4650
  113OSM    H1T11739   2.674   4.214  10.847  2.5599  1.2964 -0.7421
  113OSM     NF11740   2.657   4.209  10.555  0.7006 -0.3277  0.0472
  113OSM    HNF11741   2.576   4.258  10.524  0.5196 -1.9319 -2.3254
  113OSM    C2S11742   2.652   4.098  10.650  0.3186  0.7361 -0.3633
  113OSM    H2S11743   2.724   4.020  10.618  1.4351  1.3185  0.6506
  113OSM    C3S11744   2.517   4.034  10.665  0.1090 -0.3806 -0.2961
  113OSM    H3S11745   2.443   4.104  10.710  1.5634  0.2281  1.2309
  113OSM     O311746   2.519   3.926  10.762 -0.0247  0.3676 -0.1769
  113OSM    HO311747   2.600   3.946  10.810 -0.8993  0.9233  1.1095
  113OSM    C4S11748   2.459   3.980  10.535 -0.0089 -0.5460  0.0418
  113OSM    H4S11749   2.514   3.897  10.487 -0.6663  0.2571 -2.2343
  113OSM    C5S11750   2.351   4.018  10.463 -0.5735 -0.2188 -0.3750
  113OSM    H5S11751   2.282   4.092  10.507  0.7081  1.0963 -0.5326
  113OSM    C6S11752   2.312   3.957  10.335  0.6524 -0.7910  0.4824
  113OSM    H6S11753   2.225   3.891  10.354 -1.1212  1.2572 -0.0322
  113OSM    H6T11754   2.390   3.903  10.278  2.3080  0.8625  1.0982
  113OSM    C7S11755   2.260   4.051  10.220 -0.4699  0.0736  0.5902
  113OSM    H7S11756   2.338   4.127  10.199  0.8874 -1.7499 -1.3721
  113OSM    H7T11757   2.163   4.098  10.249 -0.6205  1.2864 -1.6953
  113OSM    C8S11758   2.244   3.966  10.093  0.1190  0.2618 -0.3585
  113OSM    H8S11759   2.168   3.888  10.110  1.6409 -0.9594  1.2982
  113OSM    H8T11760   2.334   3.903  10.077  1.3615  1.7292  0.5160
  113OSM    C9S11761   2.207   4.046   9.971 -0.2869  0.2593  0.8908
  113OSM    H9S11762   2.271   4.136   9.962  1.0147 -0.7935 -1.2776
  113OSM    H9T11763   2.105   4.089   9.978 -0.4070  0.2731 -0.5502
  113OSM   C10S11764   2.219   3.980   9.833  0.5112 -0.1609  0.3099
  113OSM   H10S11765   2.139   3.903   9.825 -0.3601  0.8656 -2.0705
  113OSM   H10T11766   2.311   3.922   9.810 -0.3353 -0.2674 -3.6416
  113OSM   C11S11767   2.201   4.065   9.706  0.7667 -0.1994  0.4832
  113OSM   H11S11768   2.290   4.127   9.686  0.2345  0.6080  0.5884
  113OSM   H11T11769   2.115   4.133   9.724  1.3741  0.6295  0.3031
  113OSM   C12S11770   2.174   3.977   9.575  0.2685  0.0517  0.2996
  113OSM   H12S11771   2.095   3.902   9.600 -0.1639  1.0058  1.9727
  113OSM   H12T11772   2.262   3.909   9.563  0.3332  0.0863  0.5639
  113OSM   C13S11773   2.166   4.061   9.450  0.1522 -0.4149  0.0215
  113OSM   H13S11774   2.266   4.109   9.440  0.4156 -1.2253 -1.5536
  113OSM   H13T11775   2.089   4.141   9.452 -0.4961 -1.0338  0.1867
  113OSM   C14S11776   2.136   3.980   9.320  0.0072 -0.3296  0.5223
  113OSM   H14S11777   2.030   3.953   9.333 -1.1568  3.6389  0.5752
  113OSM   H14T11778   2.205   3.892   9.320 -0.1826 -0.4847 -0.1689
  113OSM   C15S11779   2.159   4.063   9.192  0.6207 -0.6632 -0.2462
  113OSM   H15S11780   2.244   4.134   9.196 -1.2055  1.5466  1.2683
  113OSM   H15T11781   2.074   4.131   9.172  0.0125 -0.9821  1.1552
  113OSM   C16S11782   2.182   3.979   9.074  0.2844  0.2880 -0.1613
  113OSM   H16S11783   2.086   3.925   9.058 -0.3238  1.1149  0.5682
  113OSM   H16T11784   2.257   3.901   9.095  0.1259 -0.1510 -1.2093
  113OSM   C17S11785   2.231   4.052   8.949  0.1414  0.2487  0.4898
  113OSM   H17S11786   2.333   4.090   8.973 -0.4037  1.4006  1.0816
  113OSM   H17T11787   2.171   4.145   8.942  0.4874  0.5942  1.7827
  113OSM   C18S11788   2.229   3.977   8.810  0.1381 -0.3029 -0.8154
  113OSM   H18S11789   2.307   3.899   8.818 -0.1567 -0.4163  2.1519
  113OSM   H18T11790   2.249   4.046   8.725 -0.1083 -0.5336 -1.0586
  113OSM   H18U11791   2.129   3.932   8.797 -1.1162  1.8813  0.5861
  113OSM    C1F11792   2.772   4.258  10.509 -0.4096  0.2023  0.2637
  113OSM     OF11793   2.880   4.206  10.539  0.5822  0.1304 -0.1995
  113OSM    C2F11794   2.771   4.375  10.423  0.5284  0.3897  0.1722
  113OSM    H2F11795   2.786   4.472  10.475  1.1197  1.5357 -2.0193
  113OSM    H2G11796   2.668   4.391  10.385  1.0133 -1.7024 -2.2274
  113OSM    C3F11797   2.869   4.394  10.301  0.7060 -0.0873 -0.6252
  113OSM    H3F11798   2.972   4.388  10.344  0.7983  0.4567 -0.7612
  113OSM    H3G11799   2.855   4.501  10.272  1.5213  0.6635  1.5261
  113OSM    C4F11800   2.839   4.302  10.182 -0.1860 -0.0119  0.2359
  113OSM    H4F11801   2.736   4.324  10.146 -0.8114  0.0425  1.9377
  113OSM    H4G11802   2.850   4.201  10.229  1.8907 -0.6853 -1.5383
  113OSM    C5F11803   2.932   4.309  10.063  0.7784  0.8625 -0.3022
  113OSM    H5F11804   2.923   4.209  10.015 -1.5792 -0.5779  2.7766
  113OSM    H5G11805   3.036   4.310  10.101  0.7904 -0.9412 -0.1854
  113OSM    C6F11806   2.906   4.419   9.964  0.2567 -1.0017  0.5279
  113OSM    H6F11807   2.907   4.523  10.002  1.1568 -1.7008  2.5828
  113OSM    H6G11808   2.806   4.402   9.918  0.7892  1.5419 -1.8092
  113OSM    C7F11809   3.013   4.413   9.856 -0.0201 -0.0887  0.0554
  113OSM    H7F11810   3.040   4.309   9.828 -1.1208 -0.6883  1.0910
  113OSM    H7G11811   3.098   4.474   9.894  0.4642  0.1015 -1.2791
  113OSM    C8F11812   2.966   4.491   9.730  0.1010  0.0557  0.0218
  113OSM    H8F11813   2.930   4.591   9.762  3.5183  2.0256 -1.7241
  113OSM    H8G11814   2.873   4.438   9.701  0.9535 -2.1936  1.1249
  113OSM    C9F11815   3.067   4.511   9.627 -0.8547  1.2730  0.0370
  113OSM    H9F11816   3.173   4.495   9.653 -0.9945 -0.4682 -0.3942
  113OSM   C10F11817   3.040   4.525   9.497 -0.3498 -0.5175 -0.8553
  113OSM   H10F11818   3.127   4.541   9.431 -1.0770  2.6706 -1.1883
  113OSM   C11F11819   2.907   4.535   9.434 -0.0444 -0.1644  0.2294
  113OSM   H11F11820   2.825   4.518   9.507  0.6246  2.1886  1.6398
  113OSM   H11G11821   2.883   4.461   9.354 -4.0646  0.8681  0.2364
  113OSM   C12F11822   2.885   4.674   9.386  0.0936 -0.2470 -0.1943
  113OSM   H12F11823   2.885   4.755   9.463 -1.2252 -0.4415  0.0315
  113OSM   H12G11824   2.782   4.673   9.345 -0.3421 -0.1406  0.8569
  113OSM   C13F11825   2.969   4.710   9.260  0.0044 -0.3413  0.0433
  113OSM   H13F11826   2.968   4.623   9.191 -3.0876  0.7888 -1.4802
  113OSM   H13G11827   3.072   4.725   9.300 -0.3626  0.1593  0.8289
  113OSM   C14F11828   2.918   4.835   9.196 -0.1284 -0.5490  0.1535
  113OSM   H14F11829   2.859   4.900   9.264  0.8899  0.6068 -0.0277
  113OSM   H14G11830   2.850   4.804   9.113  1.2129 -0.6912 -0.9279
  113OSM   C15F11831   3.034   4.926   9.144  0.3249  0.1265  0.1547
  113OSM   H15F11832   3.105   4.867   9.083  0.3770 -0.9105  1.1775
  113OSM   H15G11833   3.078   4.975   9.234  1.8783 -1.1466  0.1147
  113OSM   C16F11834   2.978   5.031   9.048 -0.2918 -0.1020  0.0768
  113OSM   H16F11835   2.887   5.083   9.083  0.3993  0.8420  0.5076
  113OSM   H16G11836   2.937   4.983   8.957 -0.5831 -1.7880  1.0480
  113OSM   C17F11837   3.084   5.120   9.006 -0.2130  0.3170  0.4948
  113OSM   H17F11838   3.167   5.054   8.971  0.6020  2.3896 -1.7045
  113OSM   H17G11839   3.129   5.175   9.092 -0.4268  1.6724 -0.2358
  113OSM   C18F11840   3.041   5.209   8.894 -0.1506 -0.3920 -0.8441
  113OSM   H18F11841   2.996   5.147   8.814 -1.1000 -0.0772 -0.5705
  113OSM   H18G11842   3.137   5.255   8.862  0.3308 -0.9364 -0.2365
  113OSM   H18H11843   2.976   5.289   8.935  0.5436  0.5641 -1.5661
  114OSM      N11844   5.330   4.404  10.792  0.5958 -0.3554 -0.2284
  114OSM    C1511845   5.249   4.297  10.728 -0.3833 -0.5184  0.0682
  114OSM   H15A11846   5.300   4.243  10.650 -1.9176 -1.7837 -0.1241
  114OSM   H15B11847   5.161   4.338  10.682 -0.0800 -0.6865 -0.6750
  114OSM   H15C11848   5.224   4.214  10.793 -3.3489  0.5325  0.4054
  114OSM    C1411849   5.256   4.466  10.908  0.5374  0.3603  0.1559
  114OSM   H14A11850   5.315   4.540  10.958 -0.3854  0.8762  0.5075
  114OSM   H14B11851   5.235   4.394  10.986 -2.5117 -0.7269 -1.4693
  114OSM   H14C11852   5.160   4.499  10.870 -0.6407 -2.2192  0.6763
  114OSM    C1311853   5.447   4.326  10.845  0.6315  0.2482 -0.2794
  114OSM   H13A11854   5.412   4.252  10.916 -1.0027 -0.1941 -1.4746
  114OSM   H13B11855   5.526   4.383  10.891  0.0025  2.4975 -1.8011
  114OSM   H13C11856   5.488   4.263  10.768  0.8723  0.1201 -0.0463
  114OSM    C1211857   5.383   4.501  10.693 -0.0223  0.1389 -0.2123
  114OSM   H12A11858   5.304   4.544  10.634  1.1066 -1.2782 -2.9302
  114OSM   H12B11859   5.446   4.441  10.628  0.8789  0.2685  0.5206
  114OSM    C1111860   5.478   4.601  10.750  0.0957  0.4859  0.6751
  114OSM   H11A11861   5.425   4.657  10.831 -0.0067  0.9529  0.2864
  114OSM   H11B11862   5.489   4.676  10.669 -0.9872 -0.7702 -0.6816
  114OSM      P11863   5.744   4.598  10.794  0.3858 -0.1646 -0.2902
  114OSM    O1311864   5.745   4.727  10.864  0.0948 -0.1217 -0.3936
  114OSM    O1411865   5.838   4.501  10.853  0.2832 -0.6182 -0.5440
  114OSM    O1111866   5.760   4.613  10.644  0.0558  0.1678 -0.0112
  114OSM    O1211867   5.598   4.546  10.813 -0.0573 -0.2265 -0.4045
  114OSM    C1S11868   5.772   4.486  10.569 -0.2324 -0.0825 -0.6038
  114OSM    H1S11869   5.669   4.445  10.570  0.2296 -1.3026  0.7530
  114OSM    H1T11870   5.836   4.408  10.615 -1.3098 -1.3610 -1.2036
  114OSM     NF11871   5.838   4.378  10.358  0.8264 -0.5675  0.2470
  114OSM    HNF11872   5.938   4.371  10.354  1.0467  1.7982  0.1198
  114OSM    C2S11873   5.811   4.505  10.424  0.0503 -0.4539 -0.2951
  114OSM    H2S11874   5.720   4.542  10.372 -1.3219 -2.4419  0.5813
  114OSM    C3S11875   5.927   4.608  10.404  0.3409  0.8799  0.0903
  114OSM    H3S11876   6.019   4.565  10.449 -0.6997  0.7336  2.1897
  114OSM     O311877   5.903   4.736  10.461  0.3517 -0.3088 -0.0701
  114OSM    HO311878   5.828   4.729  10.520 -0.4392  0.3590 -0.9802
  114OSM    C4S11879   5.949   4.641  10.257  0.4767 -0.3640  0.0033
  114OSM    H4S11880   5.880   4.719  10.224  1.4182  0.1339 -0.8399
  114OSM    C5S11881   6.043   4.592  10.173  0.9363  0.0569  0.2172
  114OSM    H5S11882   6.124   4.527  10.210 -0.8352 -1.7398  1.1080
  114OSM    C6S11883   6.055   4.620  10.024  0.7322  0.4907 -0.2206
  114OSM    H6S11884   6.124   4.706  10.015  3.5672 -1.4817  1.1057
  114OSM    H6T11885   5.954   4.649   9.987  0.6274 -1.2315 -1.4030
  114OSM    C7S11886   6.094   4.499   9.935  0.0414  0.6863 -0.0947
  114OSM    H7S11887   6.027   4.411   9.949 -0.5806  1.0004 -1.0310
  114OSM    H7T11888   6.197   4.467   9.962 -0.1369  0.3086  0.1647
  114OSM    C8S11889   6.102   4.532   9.784  0.2358  0.3313 -0.0389
  114OSM    H8S11890   6.197   4.583   9.762 -0.5048  1.8354  0.1234
  114OSM    H8T11891   6.022   4.602   9.751  1.0421  3.3630  3.7849
  114OSM    C9S11892   6.119   4.401   9.707  0.2652 -0.2628  0.5203
  114OSM    H9S11893   6.032   4.333   9.718  0.7562 -1.5084 -2.2971
  114OSM    H9T11894   6.210   4.343   9.732 -0.3928 -1.0015  1.2859
  114OSM   C10S11895   6.148   4.425   9.557  0.2417  1.0648  0.2668
  114OSM   H10S11896   6.247   4.475   9.546  1.4504 -0.7327  2.2979
  114OSM   H10T11897   6.066   4.487   9.514 -0.1093  1.1416  1.0412
  114OSM   C11S11898   6.169   4.291   9.475  0.3705  0.2605  0.4089
  114OSM   H11S11899   6.074   4.234   9.471  0.4528 -0.1494  2.6575
  114OSM   H11T11900   6.234   4.226   9.538 -0.5563  0.5295  1.6771
  114OSM   C12S11901   6.249   4.310   9.343  0.6272  0.0161  0.1968
  114OSM   H12S11902   6.260   4.209   9.299  1.6845  0.3395 -0.2902
  114OSM   H12T11903   6.336   4.370   9.376  1.3621 -1.2350  0.6251
  114OSM   C13S11904   6.156   4.394   9.250  0.3974  0.2417 -0.8657
  114OSM   H13S11905   6.145   4.494   9.297  0.4209  0.4892 -1.3797
  114OSM   H13T11906   6.060   4.341   9.266  0.5456  0.5027  1.2228
  114OSM   C14S11907   6.199   4.406   9.106 -0.3042  0.5265  0.3325
  114OSM   H14S11908   6.106   4.436   9.053  0.3320 -0.7273 -1.6326
  114OSM   H14T11909   6.223   4.306   9.062  2.2065  1.5601 -0.8525
  114OSM   C15S11910   6.318   4.496   9.097  0.3496  0.1731 -0.5301
  114OSM   H15S11911   6.407   4.470   9.158  1.7937  0.6945 -2.3224
  114OSM   H15T11912   6.309   4.602   9.130  2.4116 -0.5421  2.8454
  114OSM   C16S11913   6.359   4.494   8.950  0.6523  0.8542  0.2194
  114OSM   H16S11914   6.274   4.508   8.880  1.8970 -0.2163 -1.5752
  114OSM   H16T11915   6.397   4.391   8.937 -0.4096  0.5200 -0.3494
  114OSM   C17S11916   6.468   4.599   8.911  0.2267 -0.8181  0.4213
  114OSM   H17S11917   6.521   4.555   8.824  0.5049  3.3616 -1.7819
  114OSM   H17T11918   6.535   4.603   9.000 -0.4564  1.4868  0.9024
  114OSM   C18S11919   6.425   4.741   8.876  0.1004 -0.0253  0.2663
  114OSM   H18S11920   6.510   4.810   8.854 -0.0929  0.2344  0.3279
  114OSM   H18T11921   6.359   4.789   8.951 -0.6481 -0.8093  0.1194
  114OSM   H18U11922   6.362   4.743   8.785 -0.2140 -1.2847  0.4446
  114OSM    C1F11923   5.760   4.279  10.321  0.2426  0.0970 -0.0702
  114OSM     OF11924   5.641   4.276  10.366 -0.3629 -0.2678  0.1369
  114OSM    C2F11925   5.820   4.184  10.229  0.2780  0.2409 -1.1059
  114OSM    H2F11926   5.754   4.094  10.229  1.9706 -1.1150 -3.3019
  114OSM    H2G11927   5.922   4.157  10.262  1.3103  1.7532 -2.9160
  114OSM    C3F11928   5.813   4.240  10.091  0.1260 -0.1755 -0.3721
  114OSM    H3F11929   5.863   4.339  10.089  0.5725 -0.3948 -0.0297
  114OSM    H3G11930   5.708   4.268  10.064 -0.6709  1.3207  3.6057
  114OSM    C4F11931   5.867   4.150   9.980 -0.1306 -0.1672 -0.0690
  114OSM    H4F11932   5.819   4.052  10.003  0.3609 -0.7663 -1.4568
  114OSM    H4G11933   5.977   4.139   9.988  0.4823  4.6422  0.6393
  114OSM    C5F11934   5.807   4.177   9.844  0.0660 -0.0450  0.6387
  114OSM    H5F11935   5.854   4.273   9.815 -0.5677  0.1134  0.0995
  114OSM    H5G11936   5.699   4.202   9.850  0.2182  1.0701 -0.7191
  114OSM    C6F11937   5.836   4.071   9.744 -0.0395 -0.4961 -0.4384
  114OSM    H6F11938   5.804   3.978   9.796  0.0383  0.5067  1.5144
  114OSM    H6G11939   5.947   4.069   9.733  0.4253  0.3897  2.9432
  114OSM    C7F11940   5.760   4.104   9.615 -0.3286 -0.2091 -0.1197
  114OSM    H7F11941   5.788   4.203   9.573  1.5223 -0.5293  0.2441
  114OSM    H7G11942   5.655   4.118   9.646  0.2219 -0.9660  2.2631
  114OSM    C8F11943   5.770   3.994   9.508 -0.4932  0.2028 -0.5050
  114OSM    H8F11944   5.680   4.011   9.445 -1.9847 -0.0112  1.4696
  114OSM    H8G11945   5.739   3.902   9.563 -0.4118 -0.1125 -0.9811
  114OSM    C9F11946   5.903   3.999   9.437 -0.4076 -0.5895  0.5240
  114OSM    H9F11947   5.988   3.981   9.504 -1.6383 -0.0683  2.2950
  114OSM   C10F11948   5.928   4.030   9.310  0.8829  0.1126 -0.2872
  114OSM   H10F11949   6.023   4.034   9.255  0.2449  0.0305 -1.4203
  114OSM   C11F11950   5.815   4.065   9.211  0.3907 -0.2327 -0.0409
  114OSM   H11F11951   5.853   4.132   9.131 -0.3786 -0.6144 -0.7350
  114OSM   H11G11952   5.728   4.120   9.254  0.4588  0.1367 -0.3611
  114OSM   C12F11953   5.749   3.949   9.128 -0.1868  0.2336  0.1124
  114OSM   H12F11954   5.699   3.991   9.038 -0.4679  0.2399  0.2685
  114OSM   H12G11955   5.677   3.901   9.198  0.1251  0.4801  0.6046
  114OSM   C13F11956   5.842   3.831   9.087 -0.2095 -0.0144 -0.3195
  114OSM   H13F11957   5.772   3.759   9.038 -2.7737  0.9811  1.6133
  114OSM   H13G11958   5.878   3.780   9.179  2.2497  1.4229 -0.3960
  114OSM   C14F11959   5.953   3.881   8.998 -0.5631 -0.1073  0.5904
  114OSM   H14F11960   5.980   3.983   9.032 -2.7551  0.2147  1.5551
  114OSM   H14G11961   5.907   3.902   8.899 -0.5915  0.8544  0.7947
  114OSM   C15F11962   6.076   3.792   9.000 -0.6119 -0.0229 -0.1660
  114OSM   H15F11963   6.057   3.697   8.945 -0.1961  0.5852 -1.4120
  114OSM   H15G11964   6.103   3.767   9.104 -1.4382  0.2433  0.1181
  114OSM   C16F11965   6.206   3.852   8.945 -0.5589 -0.6608  0.6660
  114OSM   H16F11966   6.194   3.888   8.841  0.8492 -3.3311 -0.5393
  114OSM   H16G11967   6.289   3.778   8.941  1.3027  1.3999 -0.4462
  114OSM   C17F11968   6.271   3.957   9.036  0.0588  0.0176  0.0339
  114OSM   H17F11969   6.309   3.908   9.128 -1.1219  1.5042  1.3583
  114OSM   H17G11970   6.191   4.030   9.060 -1.2389 -1.4396  0.3732
  114OSM   C18F11971   6.386   4.040   8.975 -0.3927 -0.7496 -0.0329
  114OSM   H18F11972   6.368   4.095   8.881 -0.5751 -0.5897  0.0957
  114OSM   H18G11973   6.470   3.969   8.957  0.5490  0.1035  0.9095
  114OSM   H18H11974   6.414   4.117   9.050 -0.7084 -0.2393 -0.4335
  115OSM      N11975   1.027   4.197  10.850 -0.2285  0.3709  0.1769
  115OSM    C1511976   1.034   4.146  10.990 -0.9497 -0.5637 -0.7119
  115OSM   H15A11977   1.140   4.130  11.006 -0.4324  2.5956 -0.4691
  115OSM   H15B11978   0.984   4.050  10.995  0.4047 -1.3708 -1.8790
  115OSM   H15C11979   0.996   4.210  11.068 -0.7737 -0.5708 -0.6203
  115OSM    C1411980   1.083   4.089  10.765 -0.0937 -0.2175 -0.2099
  115OSM   H14A11981   1.185   4.063  10.791  0.6099 -1.9659 -4.0623
  115OSM   H14B11982   1.093   4.125  10.664  0.7075 -2.1778 -0.8967
  115OSM   H14C11983   1.011   4.009  10.773  0.7526 -1.3567 -2.8619
  115OSM    C1311984   0.883   4.225  10.810  0.1749  0.4240  0.3231
  115OSM   H13A11985   0.885   4.284  10.719  1.7000 -0.3754 -0.1969
  115OSM   H13B11986   0.830   4.280  10.886  2.1375  0.9890  1.3425
  115OSM   H13C11987   0.826   4.137  10.784  0.1613  0.2416  0.9721
  115OSM    C1211988   1.115   4.319  10.843  0.1788 -0.6168  0.1367
  115OSM   H12A11989   1.067   4.401  10.894 -1.3927 -1.4509  0.0923
  115OSM   H12B11990   1.135   4.346  10.740 -1.2068  1.5663  0.3717
  115OSM    C1111991   1.263   4.315  10.908 -0.3318 -0.0251  0.6266
  115OSM   H11A11992   1.236   4.338  11.013 -0.5359 -1.6342  0.9602
  115OSM   H11B11993   1.318   4.399  10.861 -1.0093  0.0245 -0.0872
  115OSM      P11994   1.482   4.172  10.937 -0.2996  0.0126  0.5067
  115OSM    O1311995   1.554   4.297  10.910  0.4514 -0.5589  0.4054
  115OSM    O1411996   1.501   4.126  11.075 -0.3515 -0.3729 -0.4590
  115OSM    O1111997   1.537   4.066  10.837 -0.5820 -0.3643 -0.0241
  115OSM    O1211998   1.326   4.185  10.907 -0.0175 -0.6941 -0.2106
  115OSM    C1S11999   1.521   4.089  10.697 -0.3888 -0.2193  0.1275
  115OSM    H1S12000   1.615   4.141  10.668 -0.7433  2.9903  3.8912
  115OSM    H1T12001   1.438   4.156  10.666  1.0406  0.4741 -2.4697
  115OSM     NF12002   1.509   3.985  10.476 -0.5771 -0.1450 -0.3613
  115OSM    HNF12003   1.418   3.997  10.438 -0.5011 -2.1755 -1.3489
  115OSM    C2S12004   1.513   3.953  10.613  0.2355 -0.1104 -0.6212
  115OSM    H2S12005   1.610   3.898  10.622 -1.2164 -2.8880 -0.6348
  115OSM    C3S12006   1.397   3.857  10.669 -0.5607  0.4623  0.3783
  115OSM    H3S12007   1.305   3.915  10.689 -1.7068 -0.7201 -1.2906
  115OSM     O312008   1.432   3.806  10.794 -0.6364  0.1239 -0.3623
  115OSM    HO312009   1.492   3.871  10.831 -2.3191  0.8196  1.3366
  115OSM    C4S12010   1.356   3.734  10.583 -0.4222 -0.4845  0.1586
  115OSM    H4S12011   1.434   3.657  10.595  0.0537  0.1386  1.1602
  115OSM    C5S12012   1.241   3.705  10.517  0.1056 -0.1572 -0.8487
  115OSM    H5S12013   1.168   3.786  10.500  1.3135  1.3077  0.5778
  115OSM    C6S12014   1.206   3.577  10.447  0.2436 -0.1347 -0.6765
  115OSM    H6S12015   1.111   3.538  10.490 -2.1436  1.2394 -4.2248
  115OSM    H6T12016   1.287   3.506  10.472 -0.4788  0.0690  2.6378
  115OSM    C7S12017   1.179   3.595  10.299  0.6469  0.4169  0.2130
  115OSM    H7S12018   1.171   3.491  10.261  1.7107 -0.4942  2.2857
  115OSM    H7T12019   1.270   3.649  10.264  0.8334 -0.1371 -0.1629
  115OSM    C8S12020   1.059   3.686  10.267 -0.0891  1.0277  1.4202
  115OSM    H8S12021   1.105   3.785  10.245 -2.6675  2.4902  2.1471
  115OSM    H8T12022   0.973   3.682  10.338  0.1448 -0.2679  1.6427
  115OSM    C9S12023   0.986   3.653  10.128 -0.3750  0.1771 -0.2726
  115OSM    H9S12024   0.903   3.726  10.116 -0.4966  0.1534  0.3632
  115OSM    H9T12025   0.934   3.559  10.158  0.7454 -0.7202 -1.0473
  115OSM   C10S12026   1.074   3.641  10.006 -0.5900 -0.3079  0.8049
  115OSM   H10S12027   1.155   3.567  10.025  0.6282  0.5786 -0.6942
  115OSM   H10T12028   1.124   3.736   9.979 -3.2624  1.3348  1.3172
  115OSM   C11S12029   0.989   3.584   9.891 -0.2565 -1.0159  0.4111
  115OSM   H11S12030   0.903   3.653   9.880  0.0773 -0.9103 -2.2560
  115OSM   H11T12031   0.949   3.483   9.916  0.7162 -2.1231 -2.1613
  115OSM   C12S12032   1.067   3.569   9.764  0.4572 -0.0881  0.1097
  115OSM   H12S12033   1.003   3.509   9.695 -0.9578  2.1975 -0.6590
  115OSM   H12T12034   1.157   3.504   9.774  0.6950  0.2026 -0.1015
  115OSM   C13S12035   1.120   3.690   9.691 -0.0118  0.2875  0.3976
  115OSM   H13S12036   1.202   3.740   9.747  2.0030 -2.8378  0.5356
  115OSM   H13T12037   1.034   3.758   9.678 -1.0376 -1.3442 -2.0787
  115OSM   C14S12038   1.175   3.656   9.552 -0.2226  0.3818  0.2356
  115OSM   H14S12039   1.245   3.570   9.555 -1.7340 -0.9192 -0.2243
  115OSM   H14T12040   1.234   3.739   9.509 -1.6052  1.9555  1.2690
  115OSM   C15S12041   1.062   3.646   9.453 -0.1640 -0.9219  0.1251
  115OSM   H15S12042   1.012   3.745   9.442  1.8509  0.1322 -0.0464
  115OSM   H15T12043   0.984   3.571   9.479 -0.8808  0.0448  0.8423
  115OSM   C16S12044   1.108   3.592   9.316  0.2042  0.5843  0.1164
  115OSM   H16S12045   1.030   3.599   9.237  1.1846  0.1668 -0.9210
  115OSM   H16T12046   1.141   3.488   9.339 -2.2808 -0.3474 -0.2312
  115OSM   C17S12047   1.223   3.670   9.255 -0.0136  0.4023  0.0511
  115OSM   H17S12048   1.323   3.646   9.299  0.0151  2.3166  1.1149
  115OSM   H17T12049   1.216   3.779   9.273  1.6684  0.4921  0.3534
  115OSM   C18S12050   1.247   3.636   9.104 -0.4958 -0.8770 -0.4083
  115OSM   H18S12051   1.257   3.525   9.101 -0.2930 -0.8434 -1.7601
  115OSM   H18T12052   1.335   3.690   9.062  0.3564 -0.7245  1.4406
  115OSM   H18U12053   1.158   3.670   9.048 -1.7066 -0.2861  1.7828
  115OSM    C1F12054   1.616   4.026  10.409 -0.0433 -0.0016  0.0428
  115OSM     OF12055   1.730   4.030  10.461 -0.1717  0.7965 -0.3058
  115OSM    C2F12056   1.596   4.062  10.267  0.2835  0.3930 -0.0459
  115OSM    H2F12057   1.526   4.148  10.264 -3.7434 -2.6511 -1.4572
  115OSM    H2G12058   1.552   3.976  10.213  1.8647 -1.3421  1.3112
  115OSM    C3F12059   1.724   4.107  10.187 -0.2729 -0.7288  0.3365
  115OSM    H3F12060   1.799   4.026  10.191 -1.1192 -1.4834  1.3968
  115OSM    H3G12061   1.764   4.193  10.244  1.6138  0.3966 -2.4293
  115OSM    C4F12062   1.686   4.134  10.036 -0.0669 -0.0005  0.0931
  115OSM    H4F12063   1.627   4.228  10.025 -0.4007 -0.3277 -1.1324
  115OSM    H4G12064   1.622   4.049  10.004  0.3041 -0.1728 -0.1939
  115OSM    C5F12065   1.804   4.146   9.936 -0.0573 -0.3130 -1.1091
  115OSM    H5F12066   1.886   4.073   9.958  0.7062  1.4647  2.7536
  115OSM    H5G12067   1.855   4.244   9.946 -2.8291  1.0280  1.1688
  115OSM    C6F12068   1.764   4.113   9.802  0.6350 -0.3838  0.5341
  115OSM    H6F12069   1.661   4.155   9.794 -0.1264 -1.9720  1.5200
  115OSM    H6G12070   1.736   4.006   9.788 -3.4765  0.6518 -0.4441
  115OSM    C7F12071   1.852   4.164   9.689  0.5098  0.5829  0.2776
  115OSM    H7F12072   1.919   4.077   9.672  0.0015  0.1380  0.5242
  115OSM    H7G12073   1.926   4.242   9.716  0.0277  1.5687 -1.1403
  115OSM    C8F12074   1.770   4.193   9.560  0.1366 -0.6235 -0.8452
  115OSM    H8F12075   1.685   4.123   9.570 -1.1961  1.1001  0.6019
  115OSM    H8G12076   1.824   4.163   9.467  0.2564  0.9134 -1.3149
  115OSM    C9F12077   1.718   4.336   9.557  0.1266  0.8574  0.4817
  115OSM    H9F12078   1.633   4.352   9.626 -1.0433 -0.7594 -0.5255
  115OSM   C10F12079   1.754   4.436   9.475 -0.6130 -0.0467 -0.4160
  115OSM   H10F12080   1.677   4.515   9.471 -0.1121  0.4021 -1.7159
  115OSM   C11F12081   1.859   4.424   9.369  0.4079  0.7591  0.4292
  115OSM   H11F12082   1.933   4.344   9.393  1.0656  0.8436 -1.2140
  115OSM   H11G12083   1.898   4.525   9.344 -0.4080  0.3860 -2.8210
  115OSM   C12F12084   1.796   4.374   9.235  0.1566  0.4934  0.0360
  115OSM   H12F12085   1.705   4.433   9.212  0.3561  0.0759 -1.9832
  115OSM   H12G12086   1.758   4.275   9.268  1.1931  0.4412  1.1501
  115OSM   C13F12087   1.883   4.371   9.117 -0.5260  0.1707  0.0768
  115OSM   H13F12088   1.981   4.328   9.144 -0.2391 -1.1850 -2.7500
  115OSM   H13G12089   1.898   4.479   9.094 -0.3592  0.4726  1.5213
  115OSM   C14F12090   1.814   4.313   8.998  0.2445 -0.1785  0.2059
  115OSM   H14F12091   1.881   4.331   8.911  1.2436  0.3190  1.0559
  115OSM   H14G12092   1.725   4.373   8.969  0.1851 -0.5986 -0.5274
  115OSM   C15F12093   1.789   4.159   9.008  0.9043  0.7142 -1.1438
  115OSM   H15F12094   1.704   4.146   9.078  0.2793 -2.4003 -2.3195
  115OSM   H15G12095   1.885   4.108   9.031  1.4190  2.4456  0.8799
  115OSM   C16F12096   1.748   4.109   8.870 -0.5507  0.5240  0.0845
  115OSM   H16F12097   1.816   4.137   8.787 -1.7038  0.7476 -0.8216
  115OSM   H16G12098   1.650   4.152   8.839  0.3528  1.4247 -1.6937
  115OSM   C17F12099   1.727   3.957   8.859 -0.1946  0.1055  0.4327
  115OSM   H17F12100   1.646   3.931   8.931  0.2599 -2.5415  0.0704
  115OSM   H17G12101   1.819   3.900   8.882 -0.5765 -1.8163 -2.3062
  115OSM   C18F12102   1.680   3.924   8.716 -0.4953 -0.1774  0.1271
  115OSM   H18F12103   1.734   3.983   8.639  1.7297 -2.5552 -0.2779
  115OSM   H18G12104   1.571   3.927   8.695 -0.1482 -1.3085 -2.1687
  115OSM   H18H12105   1.706   3.817   8.699  0.9079 -0.2602  2.3153
  116OSM      N12106   0.001   0.504  10.578  0.2958 -0.3568 -0.3774
  116OSM    C1512107   0.117   0.419  10.553 -0.3062  0.7034 -0.4170
  116OSM   H15A12108   0.094   0.353  10.471 -0.5920  0.1879  0.0706
  116OSM   H15B12109   0.140   0.358  10.639 -2.0768 -1.4846 -1.4025
  116OSM   H15C12110   0.198   0.479  10.514 -0.4272  0.2097 -1.4634
  116OSM    C1412111   0.040   0.596  10.687  0.5693 -0.0922  0.4768
  116OSM   H14A12112   0.122   0.660  10.660 -0.2650  0.0294 -1.9339
  116OSM   H14B12113   0.068   0.549  10.780 -1.5973  0.3741  1.4368
  116OSM   H14C12114  -0.041   0.661  10.716  0.4366 -0.5148  1.0737
  116OSM    C1312115  -0.019   0.594  10.458  0.3478  0.3651  0.2683
  116OSM   H13A12116  -0.022   0.530  10.371  5.3805  0.8043 -0.5068
  116OSM   H13B12117   0.055   0.672  10.448 -1.9352  2.7080  0.2178
  116OSM   H13C12118  -0.112   0.650  10.461 -0.0375  0.1985 -3.5146
  116OSM    C1212119  -0.124   0.426  10.612 -0.2877 -0.2914  0.9592
  116OSM   H12A12120  -0.213   0.487  10.610  0.8010  1.3212 -0.5835
  116OSM   H12B12121  -0.104   0.388  10.711 -1.2604 -0.4396  1.1085
  116OSM    C1112122  -0.157   0.303  10.519 -0.5008  0.3303 -0.0828
  116OSM   H11A12123  -0.075   0.227  10.522 -2.1336 -1.5068  1.8827
  116OSM   H11B12124  -0.161   0.338  10.414  1.9200 -1.1342 -0.7352
  116OSM      P12125  -0.290   0.123  10.664 -0.2293 -0.1682  0.2637
  116OSM    O1312126  -0.160   0.080  10.718  0.4254 -0.3907  0.1378
  116OSM    O1412127  -0.400   0.139  10.761  0.6267  0.4750 -0.0061
  116OSM    O1112128  -0.335   0.008  10.559 -0.0662  0.1732  0.3834
  116OSM    O1212129  -0.286   0.244  10.564 -0.3416 -0.1635  0.1062
  116OSM    C1S12130  -0.277  -0.023  10.435 -0.4452  0.2863 -0.5449
  116OSM    H1S12131  -0.219  -0.115  10.456  0.2914  0.8400 -0.0762
  116OSM    H1T12132  -0.201   0.053  10.406  0.9108 -1.7220 -2.6480
  116OSM     NF12133  -0.282  -0.074  10.197  0.1128 -0.1256 -0.4162
  116OSM    HNF12134  -0.232  -0.003  10.148 -1.5617  0.9424 -0.6702
  116OSM    C2S12135  -0.370  -0.044  10.312 -0.1821  0.8870  0.1296
  116OSM    H2S12136  -0.443  -0.125  10.331 -0.3970  0.0736 -3.4933
  116OSM    C3S12137  -0.464   0.079  10.286  0.9644 -0.4450 -0.3503
  116OSM    H3S12138  -0.394   0.165  10.282 -0.9862  1.2057 -0.4651
  116OSM     O312139  -0.535   0.113  10.405 -0.3864  0.3237 -0.1659
  116OSM    HO312140  -0.476   0.083  10.474  0.2750 -0.5007 -1.0630
  116OSM    C4S12141  -0.554   0.075  10.163 -0.6913 -0.5059 -0.1308
  116OSM    H4S12142  -0.507   0.129  10.080 -2.3160  0.0830 -0.7132
  116OSM    C5S12143  -0.680   0.035  10.153  0.1589  0.2685  0.3593
  116OSM    H5S12144  -0.734   0.004  10.244  1.7112 -0.7174  0.9713
  116OSM    C6S12145  -0.765   0.030  10.031 -0.4336  0.3390  0.2035
  116OSM    H6S12146  -0.841   0.110  10.036 -0.5356  0.2503  0.0918
  116OSM    H6T12147  -0.811  -0.071  10.032 -1.6351  0.8664  1.8287
  116OSM    C7S12148  -0.689   0.030   9.896  0.3853 -0.2021  0.3619
  116OSM    H7S12149  -0.609  -0.047   9.889  0.6097  0.0545  0.0204
  116OSM    H7T12150  -0.655   0.136   9.885  0.0523 -0.2043 -0.7774
  116OSM    C8S12151  -0.785   0.015   9.780 -0.4059 -0.0766  0.4778
  116OSM    H8S12152  -0.836  -0.082   9.798 -0.2122 -0.3185 -0.2354
  116OSM    H8T12153  -0.730   0.012   9.683  0.8019  1.3213  1.1013
  116OSM    C9S12154  -0.895   0.120   9.781  0.1831 -0.2079  0.0038
  116OSM    H9S12155  -0.839   0.216   9.774  2.4525 -1.3587  1.4521
  116OSM    H9T12156  -0.963   0.108   9.868  0.2903 -1.3895 -0.0595
  116OSM   C10S12157  -0.972   0.120   9.647  0.0551 -0.1959 -0.3689
  116OSM   H10S12158  -1.047   0.202   9.645  0.7134  0.4086 -1.1645
  116OSM   H10T12159  -1.045   0.037   9.637 -1.0713  0.6791  0.2902
  116OSM   C11S12160  -0.889   0.155   9.523  0.0964 -0.4081 -1.1747
  116OSM   H11S12161  -0.827   0.065   9.501 -0.1522 -0.9110  0.0974
  116OSM   H11T12162  -0.814   0.233   9.546 -1.6650  0.6065  1.7095
  116OSM   C12S12163  -0.971   0.186   9.393 -0.1160  0.3207 -0.1998
  116OSM   H12S12164  -1.002   0.292   9.384  0.8871  0.5189 -1.4256
  116OSM   H12T12165  -1.065   0.126   9.397 -0.4308  0.7976 -0.4343
  116OSM   C13S12166  -0.904   0.151   9.258 -0.3991  0.4378 -0.0349
  116OSM   H13S12167  -0.885   0.044   9.238  1.8382  1.1146 -1.8853
  116OSM   H13T12168  -0.815   0.219   9.252 -0.6661  1.1237  2.4014
  116OSM   C14S12169  -1.004   0.181   9.144  0.2385  0.0799  0.4729
  116OSM   H14S12170  -1.011   0.292   9.151  0.0018  0.2595 -1.7698
  116OSM   H14T12171  -1.101   0.137   9.173  0.4222 -1.7046 -1.3724
  116OSM   C15S12172  -0.956   0.152   9.001  0.1085  0.3413  0.0343
  116OSM   H15S12173  -0.946   0.041   8.996 -1.2359  0.2552 -0.9893
  116OSM   H15T12174  -0.855   0.192   8.977 -0.3729  1.6608  0.1258
  116OSM   C16S12175  -1.049   0.203   8.893  0.2109  0.6599  0.4233
  116OSM   H16S12176  -1.012   0.184   8.790 -0.7689  0.8113  0.0289
  116OSM   H16T12177  -1.053   0.314   8.900  0.3322  0.7270 -0.4613
  116OSM   C17S12178  -1.189   0.133   8.908 -0.4669 -0.6913  0.3219
  116OSM   H17S12179  -1.261   0.182   8.839  1.5777  1.3066 -0.4808
  116OSM   H17T12180  -1.221   0.157   9.012  1.6155  0.3127  0.7725
  116OSM   C18S12181  -1.191  -0.016   8.874 -0.1457  0.4530 -0.0410
  116OSM   H18S12182  -1.299  -0.039   8.863  0.2050 -0.5616 -1.6458
  116OSM   H18T12183  -1.148  -0.074   8.958 -1.6130 -1.0429 -0.2681
  116OSM   H18U12184  -1.140  -0.039   8.778 -1.2545 -0.2284 -0.4865
  116OSM    C1F12185  -0.236  -0.195  10.173  0.2244 -0.6659 -0.1511
  116OSM     OF12186  -0.265  -0.291  10.248  0.2365  0.2717 -0.6655
  116OSM    C2F12187  -0.158  -0.221  10.048 -0.0441 -0.4085 -0.6123
  116OSM    H2F12188  -0.189  -0.142   9.975 -1.0121 -0.9032 -0.7638
  116OSM    H2G12189  -0.181  -0.318  10.000 -0.0357  0.4443 -2.4267
  116OSM    C3F12190   0.001  -0.220  10.065  0.4782  0.8528 -0.4300
  116OSM    H3F12191   0.028  -0.307  10.129  0.9456  1.1408 -0.2299
  116OSM    H3G12192   0.037  -0.127  10.113  0.2162  0.7934 -0.1094
  116OSM    C4F12193   0.066  -0.209   9.929 -0.1269 -0.4573  0.1153
  116OSM    H4F12194   0.164  -0.163   9.952 -0.5406  1.1424 -1.1356
  116OSM    H4G12195   0.014  -0.140   9.860  1.7937  1.9135  0.9011
  116OSM    C5F12196   0.077  -0.341   9.849  0.0265 -0.6385 -0.4088
  116OSM    H5F12197  -0.024  -0.389   9.846  0.0830 -0.8990  0.9757
  116OSM    H5G12198   0.151  -0.389   9.917  3.4104  2.0760 -1.8784
  116OSM    C6F12199   0.151  -0.331   9.714  0.0482 -0.3894  0.1629
  116OSM    H6F12200   0.149  -0.436   9.677 -1.0331 -0.5229  0.5397
  116OSM    H6G12201   0.260  -0.314   9.721  0.3338 -1.8734 -0.3794
  116OSM    C7F12202   0.091  -0.238   9.610  0.2113 -0.2183  0.7265
  116OSM    H7F12203   0.173  -0.223   9.536  0.5492  0.1017  1.1621
  116OSM    H7G12204   0.061  -0.139   9.650  1.0418  0.3751 -0.0641
  116OSM    C8F12205  -0.028  -0.287   9.524 -0.1973  0.3901 -0.3089
  116OSM    H8F12206  -0.062  -0.197   9.469 -0.4396  1.1622  1.0423
  116OSM    H8G12207  -0.107  -0.301   9.602 -2.5914  1.6699 -2.3800
  116OSM    C9F12208  -0.015  -0.412   9.439 -0.7012  0.3461  0.2160
  116OSM    H9F12209   0.064  -0.482   9.468  2.6397  4.5371  2.3189
  116OSM   C10F12210  -0.082  -0.436   9.323  0.4387 -0.1885 -0.6548
  116OSM   H10F12211  -0.057  -0.530   9.272  0.9651 -0.7994  0.6883
  116OSM   C11F12212  -0.182  -0.340   9.263 -0.1933 -0.3614  1.0409
  116OSM   H11F12213  -0.240  -0.288   9.342 -0.9423  0.6715 -0.1479
  116OSM   H11G12214  -0.252  -0.415   9.221  2.0072 -1.3405 -1.1319
  116OSM   C12F12215  -0.149  -0.240   9.161 -0.1238 -0.5811  0.2367
  116OSM   H12F12216  -0.058  -0.190   9.201  0.5647 -2.5330  1.2005
  116OSM   H12G12217  -0.226  -0.160   9.153  1.1287  0.9104  2.2462
  116OSM   C13F12218  -0.118  -0.290   9.023  0.2766 -0.0757 -0.4742
  116OSM   H13F12219  -0.194  -0.366   8.994 -1.9625  1.9835 -0.3345
  116OSM   H13G12220  -0.019  -0.339   9.018  0.6389  0.4210  1.2909
  116OSM   C14F12221  -0.123  -0.181   8.912 -0.8701  0.3896  0.0088
  116OSM   H14F12222  -0.224  -0.135   8.909 -1.7182 -1.3826  0.4283
  116OSM   H14G12223  -0.111  -0.231   8.814  6.0380  0.2356  0.4370
  116OSM   C15F12224  -0.015  -0.066   8.925  0.1871 -0.2081  0.5017
  116OSM   H15F12225   0.088  -0.089   8.888 -0.8966 -3.2338 -1.0279
  116OSM   H15G12226  -0.014  -0.040   9.033 -1.2269 -0.3375  0.5659
  116OSM   C16F12227  -0.052   0.057   8.844 -0.2018 -0.1539 -0.1153
  116OSM   H16F12228   0.035   0.126   8.845  0.4541 -0.9524  1.6107
  116OSM   H16G12229  -0.139   0.118   8.879  1.2686  1.8821  0.1824
  116OSM   C17F12230  -0.085   0.027   8.698  0.7924 -0.1591 -0.4113
  116OSM   H17F12231  -0.125   0.124   8.661  1.0378  0.1301  0.0670
  116OSM   H17G12232  -0.166  -0.049   8.698  1.4116 -0.8378 -1.1624
  116OSM   C18F12233   0.019  -0.024   8.604 -0.3846 -0.8936 -0.1280
  116OSM   H18F12234   0.081  -0.104   8.650  1.8439 -0.2622 -1.8306
  116OSM   H18G12235   0.088   0.057   8.572 -0.5271 -0.7193  0.0082
  116OSM   H18H12236  -0.012  -0.077   8.512 -0.7120  0.4474 -0.8151
  117OSM      N12237   3.011   2.795  10.686  0.3646 -0.2400  0.7873
  117OSM    C1512238   3.028   2.821  10.540  0.1179 -0.7776  0.0780
  117OSM   H15A12239   3.082   2.739  10.493 -1.0888 -2.1567  1.0286
  117OSM   H15B12240   3.080   2.916  10.532 -0.0094 -0.6500  0.7276
  117OSM   H15C12241   2.932   2.839  10.493 -0.6556 -1.5049  1.3366
  117OSM    C1412242   2.970   2.648  10.698 -0.8939 -0.5650 -0.0170
  117OSM   H14A12243   3.014   2.575  10.632 -2.2286 -0.9709 -0.5058
  117OSM   H14B12244   2.863   2.642  10.681 -0.7847 -0.0674 -0.9613
  117OSM   H14C12245   2.991   2.608  10.796  0.5434 -1.0644 -0.5054
  117OSM    C1312246   3.142   2.814  10.745  0.1235 -0.0487  0.5070
  117OSM   H13A12247   3.159   2.778  10.845  0.9903  1.2699  0.8562
  117OSM   H13B12248   3.165   2.919  10.752 -1.0214  0.1281  2.1077
  117OSM   H13C12249   3.224   2.769  10.691  0.2422 -0.0521  0.6893
  117OSM    C1212250   2.893   2.878  10.739 -0.0287 -0.3858  0.0343
  117OSM   H12A12251   2.865   2.831  10.832  0.2964 -0.2194  0.2171
  117OSM   H12B12252   2.817   2.862  10.664  0.1293  0.5261 -0.3326
  117OSM    C1112253   2.918   3.028  10.758  0.4548  0.4785  0.7446
  117OSM   H11A12254   2.820   3.079  10.769  1.0758  1.4915  1.7596
  117OSM   H11B12255   2.970   3.064  10.666 -2.4260  0.0834 -1.1749
  117OSM      P12256   3.079   3.166  10.910  0.3567 -0.4380  0.3130
  117OSM    O1312257   3.008   3.262  10.993  0.2536  0.3595  0.0826
  117OSM    O1412258   3.208   3.108  10.958 -0.0904 -0.5870 -0.1000
  117OSM    O1112259   3.092   3.230  10.771 -0.2022 -0.0522 -0.4839
  117OSM    O1212260   2.990   3.041  10.885 -0.1327  0.7648 -0.3504
  117OSM    C1S12261   3.202   3.215  10.686 -0.5753  0.5916 -0.0305
  117OSM    H1S12262   3.194   3.113  10.643 -2.6729  1.6663 -2.4431
  117OSM    H1T12263   3.297   3.240  10.737 -1.1138  3.2295 -0.1640
  117OSM     NF12264   3.284   3.266  10.462 -0.4238  0.1180  0.3153
  117OSM    HNF12265   3.355   3.333  10.444 -1.9839  1.6476 -0.3566
  117OSM    C2S12266   3.192   3.304  10.557 -0.1208  0.5932 -0.9200
  117OSM    H2S12267   3.094   3.278  10.510 -0.9038  0.3105  0.7988
  117OSM    C3S12268   3.191   3.456  10.591  0.7159  0.3533  0.3948
  117OSM    H3S12269   3.286   3.494  10.634 -0.1108  2.7533  0.2658
  117OSM     O312270   3.102   3.497  10.693  0.4125  0.3629 -0.2135
  117OSM    HO312271   3.080   3.410  10.726  1.3476 -0.5002 -1.7346
  117OSM    C4S12272   3.151   3.537  10.469  0.4413  0.3700 -0.8049
  117OSM    H4S12273   3.043   3.544  10.448  0.3069  0.4215 -0.1149
  117OSM    C5S12274   3.244   3.597  10.392  0.7694  0.6599  0.2673
  117OSM    H5S12275   3.351   3.585  10.415  0.7052 -3.7998 -0.8898
  117OSM    C6S12276   3.224   3.674  10.259 -0.2987 -0.5457 -0.2878
  117OSM    H6S12277   3.203   3.781  10.277  2.4105  0.0546 -0.3020
  117OSM    H6T12278   3.143   3.612  10.215  0.0480 -1.2466  0.0319
  117OSM    C7S12279   3.339   3.646  10.157 -0.5992 -0.4473 -0.2289
  117OSM    H7S12280   3.362   3.538  10.144 -1.0968 -0.5135 -0.5994
  117OSM    H7T12281   3.438   3.684  10.192 -0.8130 -0.8913  0.9055
  117OSM    C8S12282   3.309   3.694  10.019  0.0085  0.4432  0.4835
  117OSM    H8S12283   3.352   3.794   9.996  2.4579 -0.9401 -1.4240
  117OSM    H8T12284   3.201   3.711  10.002  0.5759  3.1186 -0.9318
  117OSM    C9S12285   3.372   3.603   9.913 -0.0666  0.1246  0.4190
  117OSM    H9S12286   3.350   3.496   9.934 -1.0946  0.6123  2.0976
  117OSM    H9T12287   3.482   3.609   9.902  0.0497 -0.2223  1.3114
  117OSM   C10S12288   3.313   3.654   9.778  0.0254  0.2575 -0.9632
  117OSM   H10S12289   3.325   3.764   9.775  1.7096  0.1306 -0.0831
  117OSM   H10T12290   3.205   3.628   9.780  0.0651  0.0726 -1.1316
  117OSM   C11S12291   3.385   3.594   9.653 -0.2764  0.8907  0.1770
  117OSM   H11S12292   3.329   3.499   9.637 -1.3411  1.5867 -0.3926
  117OSM   H11T12293   3.490   3.570   9.679 -0.3988 -0.1732 -0.2564
  117OSM   C12S12294   3.362   3.682   9.533  0.4894  0.7710  0.6843
  117OSM   H12S12295   3.432   3.768   9.545  2.7590 -1.0215  1.1845
  117OSM   H12T12296   3.253   3.699   9.531 -0.0718 -2.2439 -1.9114
  117OSM   C13S12297   3.386   3.611   9.395 -0.0410 -0.5434  0.3773
  117OSM   H13S12298   3.311   3.533   9.372 -1.2958  0.9062 -0.6260
  117OSM   H13T12299   3.484   3.559   9.396  0.1170 -0.2455  0.7516
  117OSM   C14S12300   3.389   3.710   9.279 -0.6466 -0.3155 -0.5082
  117OSM   H14S12301   3.497   3.730   9.258 -0.4180 -1.8389 -0.8658
  117OSM   H14T12302   3.334   3.804   9.301 -0.3059 -0.9377  3.9944
  117OSM   C15S12303   3.345   3.641   9.153  0.0339  0.3781 -0.1993
  117OSM   H15S12304   3.246   3.592   9.163  0.1456  0.2002  0.0554
  117OSM   H15T12305   3.414   3.555   9.138 -1.5204 -1.0566  0.5279
  117OSM   C16S12306   3.332   3.728   9.031 -0.5301 -0.2721 -0.2222
  117OSM   H16S12307   3.427   3.781   9.007 -0.5731 -0.9783 -2.1981
  117OSM   H16T12308   3.251   3.802   9.050  1.0535  1.1773  1.1794
  117OSM   C17S12309   3.301   3.647   8.906  0.0847  0.0079  0.0094
  117OSM   H17S12310   3.395   3.597   8.876  1.1633  1.4014  0.9474
  117OSM   H17T12311   3.282   3.728   8.832 -1.7469  1.6489  2.1218
  117OSM   C18S12312   3.191   3.540   8.902 -0.3565  0.6060  0.1313
  117OSM   H18S12313   3.152   3.512   8.802 -2.8134  0.9132  0.9196
  117OSM   H18T12314   3.100   3.579   8.953  0.3277  1.0964  1.0080
  117OSM   H18U12315   3.231   3.448   8.949  1.0201 -0.2095 -2.4468
  117OSM    C1F12316   3.290   3.144  10.407  0.6809  0.2749  0.6169
  117OSM     OF12317   3.182   3.090  10.383  0.0131 -0.3533  0.4167
  117OSM    C2F12318   3.421   3.095  10.370  0.4577  0.6251  0.5837
  117OSM    H2F12319   3.483   3.092  10.462  0.1285 -0.7865  0.7732
  117OSM    H2G12320   3.473   3.165  10.301 -1.9582  1.8012 -0.1632
  117OSM    C3F12321   3.425   2.955  10.307 -0.4050 -0.2930 -0.4787
  117OSM    H3F12322   3.365   2.879  10.362 -1.6652  0.4068 -0.8477
  117OSM    H3G12323   3.532   2.929  10.292  0.3680  2.1822  0.2625
  117OSM    C4F12324   3.363   2.959  10.162  0.3056  0.0304 -0.2605
  117OSM    H4F12325   3.263   3.001  10.185  0.4337  0.1981 -0.0057
  117OSM    H4G12326   3.370   2.858  10.115  1.3810  0.0485 -0.1649
  117OSM    C5F12327   3.423   3.059  10.066  0.2400  0.4747  0.2400
  117OSM    H5F12328   3.418   3.163  10.103  0.8315  0.6945 -0.2887
  117OSM    H5G12329   3.347   3.038   9.988  0.4274 -1.1962  0.4665
  117OSM    C6F12330   3.563   3.030  10.005 -0.2220  0.0150  0.1717
  117OSM    H6F12331   3.561   2.938   9.943 -0.9685  0.7432 -0.9053
  117OSM    H6G12332   3.632   3.002  10.088  1.2822 -1.8842 -1.6142
  117OSM    C7F12333   3.628   3.146   9.909  0.1389 -0.5595 -0.4518
  117OSM    H7F12334   3.717   3.100   9.861 -0.7740 -2.0842 -0.7592
  117OSM    H7G12335   3.654   3.235   9.970  0.6455 -0.8791 -0.1917
  117OSM    C8F12336   3.532   3.190   9.794  0.2281 -0.2749 -0.8263
  117OSM    H8F12337   3.582   3.275   9.742 -1.9908  2.6640  1.4042
  117OSM    H8G12338   3.450   3.232   9.857  1.6122  0.5358  0.5109
  117OSM    C9F12339   3.469   3.083   9.709  0.2543 -0.2387 -0.4186
  117OSM    H9F12340   3.414   3.009   9.768  2.0528 -0.3012  1.3116
  117OSM   C10F12341   3.472   3.079   9.575  0.3910 -0.5554 -0.3761
  117OSM   H10F12342   3.419   2.995   9.529  2.0508 -2.0641  0.3266
  117OSM   C11F12343   3.541   3.170   9.477 -0.1730  0.2832 -0.4196
  117OSM   H11F12344   3.633   3.120   9.439 -0.2703  0.7962 -1.3876
  117OSM   H11G12345   3.581   3.259   9.531 -1.0556  0.2532  0.2924
  117OSM   C12F12346   3.459   3.225   9.361 -0.3898  1.0500  0.2274
  117OSM   H12F12347   3.524   3.297   9.307 -0.7420  1.9406  0.9581
  117OSM   H12G12348   3.374   3.286   9.400  0.5312  3.7303 -1.6940
  117OSM   C13F12349   3.410   3.118   9.257 -0.0117 -0.3655 -0.2574
  117OSM   H13F12350   3.362   3.031   9.307  0.0843 -0.0660  0.3652
  117OSM   H13G12351   3.502   3.076   9.208  0.5337 -0.0863  0.5118
  117OSM   C14F12352   3.315   3.166   9.146  0.4042  0.4068  0.2035
  117OSM   H14F12353   3.362   3.243   9.082  0.5984 -0.9444 -1.3503
  117OSM   H14G12354   3.222   3.195   9.200  1.2026 -0.0879  1.9154
  117OSM   C15F12355   3.277   3.051   9.049  1.1073  0.1325 -0.2874
  117OSM   H15F12356   3.244   2.955   9.096  2.5117  0.3192  1.1974
  117OSM   H15G12357   3.367   3.020   8.991  2.1001  0.4585  1.0283
  117OSM   C16F12358   3.162   3.100   8.956  0.2744  0.0449 -0.3676
  117OSM   H16F12359   3.197   3.179   8.887  1.6409 -0.2697 -0.0762
  117OSM   H16G12360   3.084   3.137   9.026  0.8137 -0.5052  0.5499
  117OSM   C17F12361   3.089   2.984   8.888  0.4157  0.3888  0.3268
  117OSM   H17F12362   2.989   3.015   8.850  0.4579 -1.0463 -1.0665
  117OSM   H17G12363   3.063   2.904   8.961  2.0468 -0.7870 -0.3015
  117OSM   C18F12364   3.168   2.920   8.772  0.3717  0.1858  0.2232
  117OSM   H18F12365   3.249   2.860   8.819 -1.3356 -3.2119 -0.8982
  117OSM   H18G12366   3.220   2.998   8.712  0.6912 -0.2216 -0.0305
  117OSM   H18H12367   3.108   2.855   8.704  1.9071 -3.4736  2.1042
  118OSM      N12368   4.048   4.279  11.171  1.2071 -1.0343  0.0991
  118OSM    C1512369   4.163   4.234  11.085 -0.0873 -0.0945 -0.9042
  118OSM   H15A12370   4.254   4.287  11.107 -0.3577 -0.9435  2.7968
  118OSM   H15B12371   4.147   4.246  10.979  2.9936  0.4916 -1.3886
  118OSM   H15C12372   4.186   4.129  11.097  0.3413 -0.2307 -2.5619
  118OSM    C1412373   4.080   4.227  11.309  0.0364  0.5212  0.6166
  118OSM   H14A12374   4.122   4.130  11.288  3.6963  2.3396 -1.5552
  118OSM   H14B12375   3.991   4.232  11.370 -0.7609 -0.1121 -0.4496
  118OSM   H14C12376   4.163   4.281  11.351  0.4657 -0.3167  0.8586
  118OSM    C1312377   4.033   4.425  11.179  0.0747  0.1344  0.0010
  118OSM   H13A12378   4.117   4.485  11.211 -0.8872  1.0112  0.9502
  118OSM   H13B12379   3.954   4.449  11.248  0.7765  0.7241  0.6152
  118OSM   H13C12380   4.006   4.477  11.088 -0.5939  2.1889  1.2987
  118OSM    C1212381   3.920   4.216  11.115 -0.1542  0.0677 -0.7293
  118OSM   H12A12382   3.837   4.236  11.180  0.3083  0.2139 -0.1800
  118OSM   H12B12383   3.940   4.110  11.114  0.6691  0.2163 -0.7794
  118OSM    C1112384   3.868   4.249  10.972  0.0560  0.5031 -0.5178
  118OSM   H11A12385   3.833   4.354  10.977  1.3536  1.0900 -2.5400
  118OSM   H11B12386   3.771   4.198  10.957  0.5831 -1.4578  1.9581
  118OSM      P12387   3.984   4.092  10.802 -0.1331 -0.4405  0.0108
  118OSM    O1312388   4.094   4.101  10.705  0.3137 -0.3929  0.5241
  118OSM    O1412389   3.996   3.993  10.906  0.0329 -0.8088 -0.2128
  118OSM    O1112390   3.847   4.068  10.724 -0.1283  0.2235 -0.5048
  118OSM    O1212391   3.968   4.229  10.872 -0.1621 -0.0629 -0.7842
  118OSM    C1S12392   3.793   4.188  10.658  0.4015  0.0378  0.0716
  118OSM    H1S12393   3.863   4.247  10.596 -0.4191  0.3104 -0.6119
  118OSM    H1T12394   3.751   4.254  10.736 -0.2614  0.4762 -0.6357
  118OSM     NF12395   3.670   4.238  10.444  0.3783  0.5736  0.1101
  118OSM    HNF12396   3.594   4.302  10.447  1.2249  1.6033  2.5984
  118OSM    C2S12397   3.679   4.146  10.565  0.7970  0.3872  0.6514
  118OSM    H2S12398   3.690   4.047  10.517 -1.6095  0.1124  0.5535
  118OSM    C3S12399   3.550   4.123  10.639 -0.1133 -0.4334  1.1035
  118OSM    H3S12400   3.523   4.221  10.683 -3.1397  0.1161 -1.5844
  118OSM     O312401   3.571   4.031  10.745 -0.2113  0.5110  0.8932
  118OSM    HO312402   3.660   4.056  10.771 -0.1624  2.2293 -0.6561
  118OSM    C4S12403   3.439   4.065  10.558  0.5482  0.4282  0.2259
  118OSM    H4S12404   3.456   3.965  10.517 -1.3914  0.5747 -1.0697
  118OSM    C5S12405   3.333   4.135  10.516  0.0821  0.2463 -0.3547
  118OSM    H5S12406   3.318   4.237  10.555  0.0346 -0.2110  0.8653
  118OSM    C6S12407   3.223   4.086  10.430 -0.4205 -0.1437  0.0775
  118OSM    H6S12408   3.121   4.113  10.463 -1.3505 -2.7884 -0.3707
  118OSM    H6T12409   3.229   3.975  10.427 -0.5729 -0.1293 -1.1460
  118OSM    C7S12410   3.223   4.121  10.277  0.1418 -0.2122 -0.4083
  118OSM    H7S12411   3.225   4.232  10.273  1.5396 -0.0194  2.5993
  118OSM    H7T12412   3.123   4.090  10.243  0.2831 -0.5804 -0.4904
  118OSM    C8S12413   3.339   4.062  10.199  0.2742  0.3287  0.1485
  118OSM    H8S12414   3.349   3.954  10.221  4.3916  0.6565  0.6871
  118OSM    H8T12415   3.436   4.101  10.236  1.0134 -0.8716 -0.4879
  118OSM    C9S12416   3.331   4.084  10.052  0.0918 -0.5540 -0.2694
  118OSM    H9S12417   3.222   4.070  10.034 -0.1853  0.1649  0.7738
  118OSM    H9T12418   3.399   4.010  10.004  0.1015 -0.7791  0.0882
  118OSM   C10S12419   3.372   4.226  10.006 -0.3841  0.0363  0.6544
  118OSM   H10S12420   3.479   4.251  10.024 -0.4879  2.4545 -1.4888
  118OSM   H10T12421   3.312   4.305  10.057 -0.6574 -1.4155  2.7000
  118OSM   C11S12422   3.344   4.245   9.851 -0.0963 -0.2328 -0.5889
  118OSM   H11S12423   3.321   4.350   9.824 -0.6310 -0.3759 -0.6900
  118OSM   H11T12424   3.249   4.194   9.825 -0.5054  0.9673 -1.5463
  118OSM   C12S12425   3.456   4.207   9.768 -0.4658 -0.0502 -0.2413
  118OSM   H12S12426   3.487   4.105   9.800 -1.2030  0.3677  1.9558
  118OSM   H12T12427   3.544   4.274   9.785  0.6381 -0.7702 -2.6512
  118OSM   C13S12428   3.418   4.209   9.619 -0.4785 -0.3501  0.4187
  118OSM   H13S12429   3.505   4.199   9.549 -0.8228 -0.0447 -0.0612
  118OSM   H13T12430   3.369   4.301   9.580 -1.4143 -1.3468 -0.8546
  118OSM   C14S12431   3.323   4.088   9.574  0.0888 -0.0198  0.3602
  118OSM   H14S12432   3.218   4.107   9.607 -0.4386 -0.2124 -1.1267
  118OSM   H14T12433   3.369   4.014   9.643  0.7997 -0.1691 -0.2700
  118OSM   C15S12434   3.323   4.047   9.429 -0.2962 -0.1397 -0.2585
  118OSM   H15S12435   3.265   3.953   9.417 -1.3201 -0.0746  3.0229
  118OSM   H15T12436   3.428   4.033   9.395 -0.8042 -0.1062 -1.8756
  118OSM   C16S12437   3.266   4.155   9.330 -0.0873  0.7576  1.0456
  118OSM   H16S12438   3.338   4.238   9.316  0.0323  0.1802 -3.1958
  118OSM   H16T12439   3.178   4.193   9.387 -0.5374 -1.2412  1.7722
  118OSM   C17S12440   3.223   4.116   9.183  0.3587 -0.4032  0.0587
  118OSM   H17S12441   3.315   4.087   9.127 -0.7329  0.7424 -2.5233
  118OSM   H17T12442   3.185   4.211   9.140 -2.4290 -1.1340  0.6860
  118OSM   C18S12443   3.117   4.010   9.176  1.3387 -0.7183 -0.9574
  118OSM   H18S12444   3.017   4.058   9.191  1.5660 -0.4662 -0.2161
  118OSM   H18T12445   3.130   3.933   9.254  0.0779  0.1217  0.1409
  118OSM   H18U12446   3.101   3.947   9.086 -0.3169 -0.4836 -0.8767
  118OSM    C1F12447   3.758   4.239  10.341  0.0500  0.5133 -0.7852
  118OSM     OF12448   3.857   4.165  10.339 -0.4032  0.2438  0.5409
  118OSM    C2F12449   3.728   4.339  10.236 -0.3612 -0.1448 -0.2184
  118OSM    H2F12450   3.758   4.442  10.262  0.1027  0.3013 -2.3542
  118OSM    H2G12451   3.619   4.349  10.221 -0.4152  2.4497  1.3030
  118OSM    C3F12452   3.797   4.287  10.104 -0.1559 -0.1412  0.2672
  118OSM    H3F12453   3.758   4.184  10.089 -0.2149 -0.0859  0.0469
  118OSM    H3G12454   3.908   4.290  10.114  0.1342  0.7267 -2.4386
  118OSM    C4F12455   3.768   4.372   9.974 -0.2549 -0.3345 -0.5191
  118OSM    H4F12456   3.807   4.475   9.987 -0.3948  0.4241 -4.8749
  118OSM    H4G12457   3.658   4.382   9.963 -0.4752  1.3153  2.2483
  118OSM    C5F12458   3.824   4.314   9.849  0.4174  0.2149  0.0091
  118OSM    H5F12459   3.775   4.218   9.822 -0.1695  0.8587 -1.3135
  118OSM    H5G12460   3.932   4.301   9.873  0.2766 -0.0501  0.5199
  118OSM    C6F12461   3.809   4.405   9.727 -0.3022 -0.7375  0.4337
  118OSM    H6F12462   3.878   4.490   9.744 -1.4829 -0.0520  2.0822
  118OSM    H6G12463   3.706   4.448   9.725 -0.3718 -0.8900 -2.0249
  118OSM    C7F12464   3.844   4.331   9.595  0.1564 -0.4781  0.0756
  118OSM    H7F12465   3.770   4.248   9.587  1.0400 -1.3744  0.8091
  118OSM    H7G12466   3.944   4.283   9.602  0.5678  0.2412 -0.7483
  118OSM    C8F12467   3.829   4.418   9.465  0.3576 -0.1952 -0.4893
  118OSM    H8F12468   3.881   4.371   9.379 -0.4730  0.9405 -1.6496
  118OSM    H8G12469   3.884   4.514   9.478 -1.6232  0.9541 -0.1847
  118OSM    C9F12470   3.682   4.447   9.427 -1.0529 -0.0744 -0.0321
  118OSM    H9F12471   3.637   4.527   9.488 -0.2354 -2.7520  4.5278
  118OSM   C10F12472   3.604   4.385   9.338  0.0142 -0.6114  0.1936
  118OSM   H10F12473   3.504   4.426   9.323  0.2593  0.3836  1.1343
  118OSM   C11F12474   3.645   4.274   9.240  0.2439 -0.0022  0.0938
  118OSM   H11F12475   3.554   4.214   9.217  0.9430 -0.7483 -0.7828
  118OSM   H11G12476   3.718   4.200   9.279 -0.3441  0.2157  1.7136
  118OSM   C12F12477   3.701   4.340   9.111  0.2354  0.3089  0.7512
  118OSM   H12F12478   3.744   4.248   9.066  0.8083  1.0070 -0.1509
  118OSM   H12G12479   3.785   4.405   9.143  2.2601 -1.3589 -0.8836
  118OSM   C13F12480   3.595   4.416   9.034  0.0056 -0.4156 -0.4409
  118OSM   H13F12481   3.564   4.507   9.088 -0.9835 -0.2052 -1.3371
  118OSM   H13G12482   3.498   4.364   9.018 -1.6489  2.6674 -1.1084
  118OSM   C14F12483   3.639   4.465   8.896 -0.2577 -0.0857  0.7308
  118OSM   H14F12484   3.666   4.383   8.826 -2.6901 -0.0875 -0.2892
  118OSM   H14G12485   3.728   4.526   8.924  1.4568 -2.0752 -0.1093
  118OSM   C15F12486   3.532   4.549   8.828 -0.7573 -0.3330 -0.2077
  118OSM   H15F12487   3.512   4.642   8.887  0.5046  0.8351 -1.5487
  118OSM   H15G12488   3.437   4.492   8.817 -0.2223 -1.0316 -1.3872
  118OSM   C16F12489   3.569   4.586   8.682  0.5027 -0.2537  0.6309
  118OSM   H16F12490   3.652   4.659   8.674  1.6464 -1.5428  0.3556
  118OSM   H16G12491   3.481   4.648   8.654  2.4518  1.9850 -0.9760
  118OSM   C17F12492   3.601   4.468   8.600 -0.8264 -0.1555  0.8634
  118OSM   H17F12493   3.520   4.392   8.611 -0.1454 -1.6111 -2.7151
  118OSM   H17G12494   3.697   4.417   8.621 -0.6657  0.0430  0.5993
  118OSM   C18F12495   3.596   4.495   8.451  0.0790 -0.2566 -0.1212
  118OSM   H18F12496   3.640   4.410   8.395 -0.1910  1.0245 -2.3954
  118OSM   H18G12497   3.647   4.589   8.423  2.2728 -1.4274 -0.2461
  118OSM   H18H12498   3.489   4.503   8.420  0.5678  0.3662 -1.7084
  119OSM      N12499   4.664   2.228  10.814 -0.3649  0.5279  0.3646
  119OSM    C1512500   4.685   2.295  10.684  0.7589 -0.0836 -0.4537
  119OSM   H15A12501   4.791   2.296  10.666  0.6782 -0.7492 -1.0215
  119OSM   H15B12502   4.652   2.397  10.694 -0.8134 -0.7535  1.9973
  119OSM   H15C12503   4.620   2.253  10.608 -1.5856  2.8360 -0.2001
  119OSM    C1412504   4.690   2.078  10.790  0.0279 -0.4835  0.3713
  119OSM   H14A12505   4.611   2.044  10.726 -0.6118  0.1554  0.7990
  119OSM   H14B12506   4.678   2.026  10.884 -0.6140 -2.0800 -0.5527
  119OSM   H14C12507   4.788   2.079  10.744  0.2308  0.3669  0.7990
  119OSM    C1312508   4.752   2.283  10.918  0.2409  0.6123 -0.3837
  119OSM   H13A12509   4.854   2.250  10.903  0.8860  1.4126  1.7484
  119OSM   H13B12510   4.720   2.256  11.018  3.8926  2.0450  1.3520
  119OSM   H13C12511   4.750   2.391  10.924  2.3429  0.8270 -2.2639
  119OSM    C1212512   4.521   2.257  10.853  0.1310 -0.4661 -0.0985
  119OSM   H12A12513   4.455   2.285  10.772  0.1042 -0.4995 -0.0888
  119OSM   H12B12514   4.530   2.355  10.899  0.5780  0.5940 -2.3146
  119OSM    C1112515   4.459   2.167  10.960  0.4880  0.4204 -0.1071
  119OSM   H11A12516   4.363   2.210  10.992  0.3968 -0.4063  0.7626
  119OSM   H11B12517   4.532   2.175  11.044  1.8270  0.4994 -1.2291
  119OSM      P12518   4.323   1.985  10.827 -0.2141 -0.0179  0.0747
  119OSM    O1312519   4.273   1.853  10.869 -0.6002  0.0748 -0.0438
  119OSM    O1412520   4.226   2.088  10.814 -0.1052  0.0780 -0.2792
  119OSM    O1112521   4.399   1.984  10.683 -0.2391  0.4739  0.3033
  119OSM    O1212522   4.439   2.033  10.920  0.2797  0.1953  0.4026
  119OSM    C1S12523   4.450   1.860  10.629 -0.3155  0.8609 -0.6164
  119OSM    H1S12524   4.386   1.780  10.672 -1.4360  2.1108  0.1098
  119OSM    H1T12525   4.555   1.835  10.656 -0.6424  2.0158  2.1503
  119OSM     NF12526   4.481   1.730  10.427  0.4361  0.7118  0.2182
  119OSM    HNF12527   4.565   1.743  10.374  0.7608 -0.2041  0.4973
  119OSM    C2S12528   4.425   1.854  10.475 -0.4097 -0.4090 -0.5963
  119OSM    H2S12529   4.315   1.862  10.458 -0.1702  1.4470 -1.4880
  119OSM    C3S12530   4.485   1.979  10.407 -0.3642  0.1332 -0.9160
  119OSM    H3S12531   4.595   1.981  10.424 -0.5020  3.0301  0.1253
  119OSM     O312532   4.428   2.105  10.449 -0.0705  0.3684  0.8072
  119OSM    HO312533   4.379   2.077  10.527 -0.2684 -0.7231  0.3141
  119OSM    C4S12534   4.468   1.959  10.255  0.0547 -0.1574 -0.2097
  119OSM    H4S12535   4.549   1.898  10.213 -0.8419 -1.8753  0.4242
  119OSM    C5S12536   4.355   1.984  10.187 -0.1990  0.2983 -0.1813
  119OSM    H5S12537   4.266   2.024  10.238 -0.0045  0.1679  0.2650
  119OSM    C6S12538   4.329   1.958  10.044  0.1628 -0.2335  0.4532
  119OSM    H6S12539   4.308   2.058  10.000 -0.5910 -0.5774  0.0102
  119OSM    H6T12540   4.231   1.907  10.030  0.3719 -0.0575 -2.0497
  119OSM    C7S12541   4.435   1.877   9.968 -0.2926  0.2147 -0.1425
  119OSM    H7S12542   4.449   1.777  10.013  1.2437 -0.0853 -1.2106
  119OSM    H7T12543   4.528   1.937   9.975 -1.5735  2.2601  0.2571
  119OSM    C8S12544   4.394   1.856   9.829  0.1060  1.2931  1.0950
  119OSM    H8S12545   4.449   1.772   9.783 -1.7007  0.9935 -0.6943
  119OSM    H8T12546   4.416   1.950   9.774  1.8954  2.3709  3.5022
  119OSM    C9S12547   4.246   1.823   9.799 -1.0780  0.1377  0.4612
  119OSM    H9S12548   4.166   1.897   9.825 -0.7354 -0.0176  2.0737
  119OSM    H9T12549   4.229   1.738   9.869  1.6335 -1.6890 -0.9056
  119OSM   C10S12550   4.212   1.768   9.661  0.1960  0.0655  0.1293
  119OSM   H10S12551   4.115   1.715   9.668  0.8847 -1.2052  0.2678
  119OSM   H10T12552   4.281   1.683   9.646 -0.2493 -0.5404  1.3412
  119OSM   C11S12553   4.210   1.879   9.552 -0.6855 -1.0741  0.2397
  119OSM   H11S12554   4.302   1.939   9.569 -2.0582  0.9025  1.0677
  119OSM   H11T12555   4.121   1.944   9.566  0.4355  0.8410 -1.0179
  119OSM   C12S12556   4.214   1.834   9.406  0.3248  0.4296  0.7385
  119OSM   H12S12557   4.286   1.751   9.393 -0.2799 -0.0332  0.2879
  119OSM   H12T12558   4.246   1.913   9.334  3.5381  0.2868  1.8656
  119OSM   C13S12559   4.076   1.770   9.360 -0.0832  0.5441  0.3027
  119OSM   H13S12560   4.062   1.684   9.428  0.6402  0.8924  0.9138
  119OSM   H13T12561   4.103   1.718   9.265  3.6546  2.9582 -0.1621
  119OSM   C14S12562   3.958   1.865   9.370 -0.4134 -0.6772 -0.0701
  119OSM   H14S12563   3.980   1.974   9.363  2.5994 -1.2937 -2.2111
  119OSM   H14T12564   3.898   1.835   9.458  1.6761 -0.5075  1.4661
  119OSM   C15S12565   3.856   1.841   9.262 -0.6355  0.1989 -0.1238
  119OSM   H15S12566   3.758   1.888   9.286 -0.5069  0.6585 -0.4868
  119OSM   H15T12567   3.839   1.732   9.257  0.0279 -0.0935  2.3168
  119OSM   C16S12568   3.905   1.893   9.132  0.0554 -0.3291  0.2653
  119OSM   H16S12569   4.016   1.903   9.136 -0.0115  0.7496 -0.0221
  119OSM   H16T12570   3.877   1.999   9.114 -1.3213 -1.1156 -2.9533
  119OSM   C17S12571   3.869   1.817   9.010 -0.3902  0.6642  0.5083
  119OSM   H17S12572   3.758   1.807   9.013 -0.2618 -0.9861  2.6140
  119OSM   H17T12573   3.911   1.715   9.021  0.6060  0.7078 -2.2811
  119OSM   C18S12574   3.897   1.891   8.874  0.6423  0.4552 -0.0189
  119OSM   H18S12575   4.004   1.879   8.848  0.6025  1.4030 -0.6690
  119OSM   H18T12576   3.869   1.999   8.879  0.2365  0.3354  0.3204
  119OSM   H18U12577   3.834   1.849   8.794  0.9157  0.6405 -0.3326
  119OSM    C1F12578   4.443   1.610  10.458 -0.1052 -0.2073 -0.5266
  119OSM     OF12579   4.358   1.590  10.545 -0.4450 -0.0364  0.2226
  119OSM    C2F12580   4.506   1.500  10.376  0.6511  0.6849  0.2906
  119OSM    H2F12581   4.473   1.406  10.425 -0.8239  1.6939  1.3411
  119OSM    H2G12582   4.616   1.506  10.389  0.8425  0.4961 -1.1280
  119OSM    C3F12583   4.462   1.527  10.226  1.1134 -0.4921 -0.7847
  119OSM    H3F12584   4.503   1.438  10.174  1.6277 -2.2701  2.4085
  119OSM    H3G12585   4.494   1.622  10.178  0.2337  0.6575  0.7852
  119OSM    C4F12586   4.312   1.520  10.215  0.6577  0.5916 -1.0573
  119OSM    H4F12587   4.256   1.611  10.246 -1.0613 -0.4154 -1.0781
  119OSM    H4G12588   4.269   1.437  10.275  2.1837 -1.7131 -2.9615
  119OSM    C5F12589   4.265   1.492  10.070  0.1127 -0.2573 -0.1693
  119OSM    H5F12590   4.347   1.502   9.996 -0.2831 -0.8767 -0.7084
  119OSM    H5G12591   4.179   1.558  10.045  0.5074  0.2305 -0.2568
  119OSM    C6F12592   4.203   1.343  10.040 -0.6413  0.6209  0.2487
  119OSM    H6F12593   4.128   1.340  10.121  0.4700  0.7363  1.3149
  119OSM    H6G12594   4.272   1.258  10.060 -0.5784  0.5559 -0.2162
  119OSM    C7F12595   4.150   1.340   9.899 -0.0708 -0.4094  0.3508
  119OSM    H7F12596   4.085   1.430   9.891  1.0074  0.2044 -2.2741
  119OSM    H7G12597   4.091   1.248   9.879 -0.4155 -0.0455 -0.3220
  119OSM    C8F12598   4.261   1.334   9.790  0.2552  0.1553 -0.3532
  119OSM    H8F12599   4.310   1.234   9.791  0.8145  0.4080  0.9477
  119OSM    H8G12600   4.338   1.412   9.804  0.0333  0.3555 -0.2525
  119OSM    C9F12601   4.195   1.363   9.661 -0.7061 -0.3078 -0.7015
  119OSM    H9F12602   4.133   1.454   9.652 -1.5088 -0.6629  0.7602
  119OSM   C10F12603   4.190   1.289   9.546 -0.8224 -0.1357 -0.4817
  119OSM   H10F12604   4.137   1.330   9.460 -0.2388 -0.4621 -1.0024
  119OSM   C11F12605   4.245   1.153   9.536 -0.7466 -0.4192  0.3721
  119OSM   H11F12606   4.164   1.077   9.536 -0.4393 -0.7547 -0.2076
  119OSM   H11G12607   4.311   1.127   9.621 -1.6833 -0.0531  1.2315
  119OSM   C12F12608   4.320   1.136   9.399 -0.2795  0.1418 -0.1157
  119OSM   H12F12609   4.247   1.129   9.316 -1.2222 -0.3332  0.7397
  119OSM   H12G12610   4.367   1.035   9.407 -0.0455  0.2374 -0.2825
  119OSM   C13F12611   4.414   1.239   9.368 -0.6823 -0.6693 -0.0779
  119OSM   H13F12612   4.475   1.268   9.456 -0.5804 -0.2798 -0.2760
  119OSM   H13G12613   4.363   1.331   9.333  0.7022  1.1214  2.3019
  119OSM   C14F12614   4.516   1.208   9.259 -0.0212  0.8461  0.1216
  119OSM   H14F12615   4.595   1.141   9.300  0.0179  0.5227 -0.4687
  119OSM   H14G12616   4.578   1.295   9.229  0.2351  0.6975  0.2172
  119OSM   C15F12617   4.474   1.142   9.122  0.0345  0.0301 -0.7202
  119OSM   H15F12618   4.375   1.186   9.099  0.3949  2.4393  1.8439
  119OSM   H15G12619   4.460   1.032   9.136 -2.2863  0.2209 -1.1816
  119OSM   C16F12620   4.563   1.164   8.991 -0.7225  0.2544 -0.1743
  119OSM   H16F12621   4.593   1.271   9.000 -1.9190  0.6898 -0.9920
  119OSM   H16G12622   4.504   1.147   8.898 -3.2434 -2.9050  1.8023
  119OSM   C17F12623   4.679   1.058   8.984 -0.1355 -0.4403 -0.9797
  119OSM   H17F12624   4.623   0.963   8.987 -2.1345  0.7153  0.5908
  119OSM   H17G12625   4.744   1.052   9.074  0.1829 -2.7844 -1.3050
  119OSM   C18F12626   4.755   1.066   8.854  0.4255 -0.3926  0.2024
  119OSM   H18F12627   4.839   0.993   8.855  1.8025  1.1245 -0.0859
  119OSM   H18G12628   4.802   1.166   8.847  0.3885 -0.3411  0.6553
  119OSM   H18H12629   4.682   1.037   8.776 -1.9917  0.5393  2.0090
  120OSM      N12630   3.246   6.446  10.689 -0.6047 -0.2117 -0.2469
  120OSM    C1512631   3.128   6.368  10.662  0.1895  0.6653  0.0787
  120OSM   H15A12632   3.046   6.429  10.628 -1.4474 -1.0911  0.6637
  120OSM   H15B12633   3.100   6.318  10.754  0.9381 -1.0170 -0.5663
  120OSM   H15C12634   3.143   6.296  10.583 -2.6656  0.9484 -0.8328
  120OSM    C1412635   3.225   6.543  10.799  0.4165  0.6564 -0.5477
  120OSM   H14A12636   3.196   6.499  10.893  4.6430 -0.3398  0.5168
  120OSM   H14B12637   3.153   6.617  10.765  3.6346  3.0228 -2.9207
  120OSM   H14C12638   3.316   6.602  10.804 -0.2143  1.6489 -0.5469
  120OSM    C1312639   3.354   6.360  10.748  0.0119  0.7021  0.4431
  120OSM   H13A12640   3.322   6.316  10.841 -0.3232  0.3691  0.1730
  120OSM   H13B12641   3.438   6.426  10.766  1.7008 -1.1121 -0.4750
  120OSM   H13C12642   3.381   6.277  10.685 -1.0563  0.4861  0.2478
  120OSM    C1212643   3.289   6.515  10.558 -0.1828 -0.6813 -0.0816
  120OSM   H12A12644   3.201   6.568  10.525  1.4450  0.7720 -2.3203
  120OSM   H12B12645   3.307   6.436  10.488 -0.0661  1.2812 -2.3882
  120OSM    C1112646   3.406   6.615  10.563  0.0797  0.3512 -0.4222
  120OSM   H11A12647   3.452   6.629  10.462  0.1460  2.5240 -0.1470
  120OSM   H11B12648   3.491   6.566  10.615  0.1045 -2.1018 -2.5735
  120OSM      P12649   3.445   6.855  10.632  0.4035  0.0659  0.2289
  120OSM    O1312650   3.363   6.978  10.637  0.1385 -0.4891  0.0486
  120OSM    O1412651   3.542   6.834  10.739  0.4923 -0.5127 -0.0828
  120OSM    O1112652   3.530   6.854  10.498 -0.0677 -0.1046  0.3994
  120OSM    O1212653   3.358   6.730  10.620  0.5437 -0.2633 -0.1477
  120OSM    C1S12654   3.454   6.879  10.381  0.0654  0.0716 -0.1840
  120OSM    H1S12655   3.407   6.979  10.370  0.3779  0.3366  0.8017
  120OSM    H1T12656   3.378   6.798  10.366 -0.7854  0.9313 -0.5962
  120OSM     NF12657   3.453   6.875  10.139 -0.2100 -0.0896  0.4065
  120OSM    HNF12658   3.428   6.791  10.090 -1.4746  0.0002  0.8600
  120OSM    C2S12659   3.542   6.865  10.250 -0.5547 -0.2356 -0.4643
  120OSM    H2S12660   3.607   6.955  10.256 -0.8891 -0.0317  0.4292
  120OSM    C3S12661   3.624   6.736  10.243 -0.1707 -0.2353  0.3610
  120OSM    H3S12662   3.547   6.657  10.236 -0.7271  0.3003  0.3333
  120OSM     O312663   3.700   6.694  10.355  0.5564 -0.3583  0.2254
  120OSM    HO312664   3.672   6.745  10.430  1.8247 -2.3280  2.1686
  120OSM    C4S12665   3.720   6.730  10.119 -0.3550  0.0741 -0.8010
  120OSM    H4S12666   3.676   6.677  10.034 -1.0588 -2.1819  0.8870
  120OSM    C5S12667   3.858   6.752  10.108 -0.6211 -0.1159  0.4846
  120OSM    H5S12668   3.909   6.793  10.196 -0.0220  0.8802 -0.2937
  120OSM    C6S12669   3.940   6.723   9.987 -0.1561  0.5657 -0.1537
  120OSM    H6S12670   4.017   6.653  10.024  0.6347  0.6971 -1.4869
  120OSM    H6T12671   4.004   6.807   9.953  2.8827 -0.3250  2.9411
  120OSM    C7S12672   3.879   6.642   9.871 -0.3386  0.8296  0.3444
  120OSM    H7S12673   3.797   6.700   9.822 -0.9607 -1.4384 -1.4512
  120OSM    H7T12674   3.837   6.547   9.909  2.9379 -0.8106  0.1976
  120OSM    C8S12675   3.979   6.606   9.763 -0.5175  0.1983  0.1487
  120OSM    H8S12676   4.053   6.536   9.809  2.2598  2.3106 -0.8193
  120OSM    H8T12677   4.033   6.699   9.734  1.2395 -0.1688  1.9662
  120OSM    C9S12678   3.911   6.538   9.639  0.6377  0.2956  0.1036
  120OSM    H9S12679   3.851   6.453   9.677  0.8380  0.7449  1.4880
  120OSM    H9T12680   3.999   6.491   9.589  2.0452  0.3500  2.4121
  120OSM   C10S12681   3.833   6.637   9.554 -0.2462 -0.1975  0.7613
  120OSM   H10S12682   3.881   6.736   9.565  2.9964 -1.3196 -1.6693
  120OSM   H10T12683   3.730   6.642   9.595 -0.4970  2.9240 -0.0713
  120OSM   C11S12684   3.838   6.608   9.406  0.0290 -0.1147 -0.2632
  120OSM   H11S12685   3.776   6.520   9.379 -1.1915  0.9284 -0.9614
  120OSM   H11T12686   3.935   6.570   9.366 -0.9659 -2.3272 -0.7327
  120OSM   C12S12687   3.804   6.732   9.327  0.4868  0.1320  0.3494
  120OSM   H12S12688   3.878   6.809   9.356 -0.3348  1.3193 -0.5902
  120OSM   H12T12689   3.699   6.759   9.350 -0.1272 -0.6122 -1.3453
  120OSM   C13S12690   3.822   6.731   9.170 -0.4365 -0.3985  0.2494
  120OSM   H13S12691   3.824   6.837   9.136  2.4882 -0.7577 -0.9967
  120OSM   H13T12692   3.729   6.687   9.128  0.3543  2.1998 -4.9645
  120OSM   C14S12693   3.948   6.668   9.109  0.4064  0.2876 -0.3490
  120OSM   H14S12694   3.958   6.560   9.132  0.0567  0.1395 -0.8864
  120OSM   H14T12695   4.031   6.724   9.157  0.3610  0.2672 -0.2490
  120OSM   C15S12696   3.962   6.688   8.961  0.1927  0.1039 -0.8062
  120OSM   H15S12697   3.942   6.793   8.931  3.0231  0.7408 -0.7409
  120OSM   H15T12698   3.885   6.633   8.901  2.0019 -0.8244 -2.4087
  120OSM   C16S12699   4.103   6.657   8.903  0.6613 -0.5975 -0.0114
  120OSM   H16S12700   4.122   6.548   8.910 -0.4374 -0.9997 -2.2961
  120OSM   H16T12701   4.179   6.701   8.971  1.4553 -1.4380 -0.3385
  120OSM   C17S12702   4.114   6.707   8.758 -0.3402 -0.2570 -0.3440
  120OSM   H17S12703   4.086   6.815   8.753  2.3836  0.7119  2.1328
  120OSM   H17T12704   4.040   6.644   8.705 -0.5567 -0.7763  0.5670
  120OSM   C18S12705   4.251   6.689   8.693  0.5045 -0.1697 -0.4740
  120OSM   H18S12706   4.294   6.586   8.701  0.7014 -0.1241 -0.9093
  120OSM   H18T12707   4.325   6.759   8.737  1.7552 -0.8926 -1.3466
  120OSM   H18U12708   4.245   6.715   8.586 -0.7473  1.4233 -0.0559
  120OSM    C1F12709   3.404   6.991  10.094 -0.0857 -0.2256  0.0976
  120OSM     OF12710   3.446   7.092  10.143  0.7626 -0.2867 -0.6466
  120OSM    C2F12711   3.293   6.991   9.985 -0.3439 -0.6952  0.2565
  120OSM    H2F12712   3.209   7.052  10.025 -0.8474 -0.9785 -0.3708
  120OSM    H2G12713   3.267   6.883   9.983  0.1538 -0.8030 -0.9394
  120OSM    C3F12714   3.342   7.035   9.848  0.0181  0.2971 -0.2990
  120OSM    H3F12715   3.425   6.968   9.819 -0.6311 -0.7957  0.2991
  120OSM    H3G12716   3.382   7.138   9.847  0.5930  0.1154  1.2675
  120OSM    C4F12717   3.231   7.014   9.733  0.1967 -0.3478 -0.1069
  120OSM    H4F12718   3.148   7.080   9.766  0.3087 -0.7840  1.0861
  120OSM    H4G12719   3.182   6.915   9.747  0.2754 -0.7227 -2.1185
  120OSM    C5F12720   3.288   7.044   9.599  0.4666 -0.4917 -0.0267
  120OSM    H5F12721   3.379   6.986   9.573  1.2065  1.5188 -2.2312
  120OSM    H5G12722   3.325   7.148   9.590  0.7896 -0.5818  0.2093
  120OSM    C6F12723   3.194   7.008   9.489 -0.6591  0.5376  0.0955
  120OSM    H6F12724   3.125   7.094   9.479  1.3435  2.5580  2.3429
  120OSM    H6G12725   3.140   6.916   9.519  2.1464 -0.9998  0.8300
  120OSM    C7F12726   3.268   6.997   9.352  0.0086 -0.1203  0.4793
  120OSM    H7F12727   3.343   6.919   9.378  2.6524  1.9292 -0.3907
  120OSM    H7G12728   3.324   7.093   9.343 -1.0618  0.6758  1.9423
  120OSM    C8F12729   3.197   6.941   9.227  0.1880  0.3649 -0.9114
  120OSM    H8F12730   3.151   6.846   9.262  0.3792  1.2481  2.0033
  120OSM    H8G12731   3.281   6.921   9.158  1.2914  1.4227  0.0561
  120OSM    C9F12732   3.085   7.026   9.170  0.6121 -0.1030 -0.0410
  120OSM    H9F12733   3.032   7.097   9.236 -0.4380 -1.2032  0.3297
  120OSM   C10F12734   3.057   7.032   9.038  0.1862 -0.0766  0.0688
  120OSM   H10F12735   2.977   7.093   8.994  0.7578  0.1484 -0.6755
  120OSM   C11F12736   3.122   6.941   8.942  1.1152  0.2847  1.0535
  120OSM   H11F12737   3.146   6.841   8.984  0.7378 -1.4033 -2.4285
  120OSM   H11G12738   3.223   6.976   8.913  2.5821 -3.5413  0.9940
  120OSM   C12F12739   3.040   6.917   8.813  0.3006 -0.4777 -0.1011
  120OSM   H12F12740   3.008   7.009   8.759 -0.4551 -1.7360 -1.8752
  120OSM   H12G12741   2.948   6.863   8.845  0.8495 -0.1685  2.1731
  120OSM   C13F12742   3.125   6.851   8.704  0.1050  0.3897  0.2199
  120OSM   H13F12743   3.147   6.750   8.744  0.9043  1.0563  1.5249
  120OSM   H13G12744   3.221   6.903   8.681  0.4470 -0.3589 -0.0577
  120OSM   C14F12745   3.044   6.824   8.583 -0.7802 -0.3059  0.4042
  120OSM   H14F12746   3.048   6.913   8.517 -1.5364 -0.7776 -0.2884
  120OSM   H14G12747   2.936   6.804   8.596 -1.4731 -0.1425 -3.7287
  120OSM   C15F12748   3.098   6.716   8.493 -0.6427 -0.4358  1.1703
  120OSM   H15F12749   3.027   6.708   8.408 -1.0094  0.3561  1.3903
  120OSM   H15G12750   3.103   6.621   8.551  0.7014 -0.5974  0.8328
  120OSM   C16F12751   3.246   6.744   8.441  0.4411 -0.0738 -0.1633
  120OSM   H16F12752   3.307   6.744   8.534 -0.6052 -1.4176  0.5686
  120OSM   H16G12753   3.250   6.840   8.386  1.0183  0.5421  0.9202
  120OSM   C17F12754   3.307   6.637   8.352  0.7739 -0.3043  0.0083
  120OSM   H17F12755   3.275   6.544   8.404  0.5680  1.0439  2.4040
  120OSM   H17G12756   3.418   6.644   8.356  0.7516  0.8975 -0.9335
  120OSM   C18F12757   3.259   6.624   8.207  0.6776 -0.5783 -0.3013
  120OSM   H18F12758   3.289   6.707   8.139  0.7117  0.7245  1.2575
  120OSM   H18G12759   3.149   6.637   8.197  0.6759 -0.3134  0.0441
  120OSM   H18H12760   3.286   6.526   8.161  0.7801 -0.2056 -1.0600
  121OSM      N12761   2.232   3.291  11.005  0.0689  0.6681  0.4207
  121OSM    C1512762   2.267   3.440  10.998 -0.3326 -0.2401 -0.3056
  121OSM   H15A12763   2.373   3.443  10.981 -0.4443 -2.0502 -1.6818
  121OSM   H15B12764   2.251   3.493  11.091  1.1892  1.3599 -0.9071
  121OSM   H15C12765   2.209   3.502  10.932 -2.3002 -0.1236  1.4320
  121OSM    C1412766   2.297   3.229  11.120  0.7715  0.1005  0.3626
  121OSM   H14A12767   2.399   3.263  11.130  0.5319  1.1305 -0.4512
  121OSM   H14B12768   2.302   3.121  11.118  1.2580  0.1296 -0.5824
  121OSM   H14C12769   2.246   3.265  11.208 -1.4742  0.3529 -0.9772
  121OSM    C1312770   2.083   3.274  11.009  0.7537 -0.0091 -0.5818
  121OSM   H13A12771   2.046   3.319  10.918  0.0293  0.6092 -0.0052
  121OSM   H13B12772   2.023   3.317  11.089 -1.0610 -1.4893 -1.0693
  121OSM   H13C12773   2.069   3.167  11.013  3.1851 -0.3401  1.4041
  121OSM    C1212774   2.279   3.228  10.876 -0.8213 -0.2681 -0.9008
  121OSM   H12A12775   2.386   3.245  10.868 -0.5847  0.4668  2.1820
  121OSM   H12B12776   2.227   3.278  10.797  0.2435  0.8920 -0.8984
  121OSM    C1112777   2.259   3.079  10.863 -0.6234  0.1008 -0.2825
  121OSM   H11A12778   2.270   3.061  10.754 -1.3256  1.8953 -0.6791
  121OSM   H11B12779   2.153   3.053  10.883 -0.1504 -0.6629  1.4185
  121OSM      P12780   2.493   2.985  10.930 -0.1694 -0.0178  0.2302
  121OSM    O1312781   2.553   3.118  10.954 -0.2896 -0.4157  0.1402
  121OSM    O1412782   2.546   2.875  11.011  0.1033  0.0729 -0.2359
  121OSM    O1112783   2.519   2.956  10.775  0.4208  0.3037  0.0074
  121OSM    O1212784   2.333   2.999  10.956 -0.4153  0.3199 -0.4735
  121OSM    C1S12785   2.464   2.838  10.711  1.1230  0.1836  0.0439
  121OSM    H1S12786   2.362   2.821  10.751  1.2990 -3.1232 -0.6777
  121OSM    H1T12787   2.535   2.754  10.728  0.3847 -0.5544 -0.4570
  121OSM     NF12788   2.347   2.764  10.503 -0.1722 -0.1539 -0.4626
  121OSM    HNF12789   2.401   2.695  10.456  1.8385  1.0873 -0.1102
  121OSM    C2S12790   2.435   2.864  10.560 -0.3260 -0.9546  0.0261
  121OSM    H2S12791   2.387   2.964  10.547  0.0636 -0.2783  3.0984
  121OSM    C3S12792   2.572   2.869  10.483 -0.4581  0.3107  0.4244
  121OSM    H3S12793   2.619   2.771  10.503 -0.3525  0.6512  1.9526
  121OSM     O312794   2.661   2.961  10.532 -0.0913  0.1844 -0.2033
  121OSM    HO312795   2.619   2.984  10.615  0.5960 -3.1150  1.2302
  121OSM    C4S12796   2.542   2.887  10.329  0.4169 -0.0220 -0.2592
  121OSM    H4S12797   2.539   2.790  10.277 -2.4479 -0.5625  0.7559
  121OSM    C5S12798   2.527   3.009  10.271 -0.3027 -0.5286  0.9266
  121OSM    H5S12799   2.532   3.108  10.317  0.5841 -0.0925 -0.0516
  121OSM    C6S12800   2.498   3.028  10.121 -0.5675 -0.5233  0.5126
  121OSM    H6S12801   2.590   3.071  10.076  0.3008 -0.9962  1.7726
  121OSM    H6T12802   2.423   3.108  10.107  1.4676  1.0822 -2.2969
  121OSM    C7S12803   2.453   2.898  10.049 -0.1451  0.2331  0.2854
  121OSM    H7S12804   2.355   2.855  10.080  1.1066 -2.6182  0.6682
  121OSM    H7T12805   2.529   2.818  10.062 -0.7192 -0.4785 -0.5680
  121OSM    C8S12806   2.435   2.886   9.895 -0.1430 -0.2651  0.3230
  121OSM    H8S12807   2.384   2.793   9.863 -0.8279  0.3976 -0.5724
  121OSM    H8T12808   2.533   2.886   9.842  1.3562 -1.3347  2.9017
  121OSM    C9S12809   2.356   3.007   9.845 -0.7376 -0.3433 -0.3421
  121OSM    H9S12810   2.417   3.097   9.865 -0.0857 -0.8207 -0.1363
  121OSM    H9T12811   2.263   3.024   9.903 -2.6238  1.1585 -3.5432
  121OSM   C10S12812   2.319   3.005   9.698 -0.8721 -0.1454 -0.0369
  121OSM   H10S12813   2.263   3.100   9.685  0.6126  1.1295  2.1833
  121OSM   H10T12814   2.251   2.922   9.672 -0.1749 -0.1295 -2.1151
  121OSM   C11S12815   2.434   3.029   9.603 -0.3335  0.3358 -0.2143
  121OSM   H11S12816   2.491   2.934   9.602 -0.2118  0.3928  0.6078
  121OSM   H11T12817   2.505   3.102   9.647  0.0258  0.6299 -1.2632
  121OSM   C12S12818   2.399   3.056   9.456  0.0544  0.3711  0.1127
  121OSM   H12S12819   2.372   3.160   9.430 -1.6270 -0.3769 -1.3144
  121OSM   H12T12820   2.307   2.996   9.440  0.0539  0.6500 -0.9976
  121OSM   C13S12821   2.508   3.008   9.356 -0.4514 -0.0134 -0.1951
  121OSM   H13S12822   2.532   2.901   9.371 -1.7281 -0.5206 -1.5066
  121OSM   H13T12823   2.591   3.077   9.382  0.2191 -1.7829  2.7732
  121OSM   C14S12824   2.474   3.021   9.207 -0.0976  0.4169  0.0948
  121OSM   H14S12825   2.563   3.016   9.141 -1.2075 -0.6582 -1.3909
  121OSM   H14T12826   2.424   3.120   9.202 -0.3090  0.4596  2.1592
  121OSM   C15S12827   2.377   2.912   9.162  0.7270  0.5597 -0.2462
  121OSM   H15S12828   2.290   2.913   9.230 -0.8022  1.0254 -2.1085
  121OSM   H15T12829   2.419   2.809   9.173  0.2781  0.4411  0.4064
  121OSM   C16S12830   2.321   2.920   9.013 -0.6843 -0.4930  0.1234
  121OSM   H16S12831   2.296   3.028   9.015  0.5236 -0.1571  3.2148
  121OSM   H16T12832   2.220   2.875   9.001 -1.0132  0.0651  0.7108
  121OSM   C17S12833   2.420   2.889   8.900 -0.2875 -0.5446  0.1653
  121OSM   H17S12834   2.509   2.946   8.936 -0.3698 -0.6111  0.4776
  121OSM   H17T12835   2.396   2.943   8.806 -1.3142 -1.7393 -0.2801
  121OSM   C18S12836   2.452   2.753   8.867  0.0985  0.3866 -0.2182
  121OSM   H18S12837   2.511   2.698   8.944 -0.2886 -1.3077 -1.0695
  121OSM   H18T12838   2.506   2.743   8.770  0.6958  0.2105  0.1271
  121OSM   H18U12839   2.361   2.690   8.861  1.6733 -2.1482  0.5981
  121OSM    C1F12840   2.215   2.760  10.533 -0.1720 -0.0174  0.2190
  121OSM     OF12841   2.171   2.859  10.595 -0.0884 -0.0614  0.2485
  121OSM    C2F12842   2.122   2.646  10.486  0.0626 -0.2925  0.0052
  121OSM    H2F12843   2.035   2.639  10.555  0.8524  1.5942  1.2781
  121OSM    H2G12844   2.164   2.543  10.478 -2.5984 -1.5328  0.7391
  121OSM    C3F12845   2.071   2.675  10.339 -0.4954 -0.1822 -0.6275
  121OSM    H3F12846   2.163   2.692  10.278  0.2357 -1.7515 -0.0257
  121OSM    H3G12847   2.024   2.776  10.344  1.0247  0.5187  0.7795
  121OSM    C4F12848   1.963   2.582  10.281 -0.2699  0.7200  0.5475
  121OSM    H4F12849   1.865   2.597  10.332  0.2907  1.2677  1.4913
  121OSM    H4G12850   1.990   2.475  10.297  1.3406  0.9571 -0.4073
  121OSM    C5F12851   1.949   2.618  10.132 -0.3551  0.3464  0.1795
  121OSM    H5F12852   1.920   2.725  10.129  0.6247  0.6368  0.6811
  121OSM    H5G12853   1.869   2.563  10.079  0.0789 -0.7091  0.5882
  121OSM    C6F12854   2.065   2.597  10.041 -0.0060  0.3916 -0.2833
  121OSM    H6F12855   2.101   2.493  10.059  3.0216  0.9008 -2.6203
  121OSM    H6G12856   2.154   2.662  10.060 -0.8274  1.8793 -1.3522
  121OSM    C7F12857   2.035   2.605   9.888  0.7068  0.0324  0.6924
  121OSM    H7F12858   2.022   2.716   9.888 -0.8479 -0.1276  0.9212
  121OSM    H7G12859   1.938   2.553   9.872  0.8047  0.2764 -0.8154
  121OSM    C8F12860   2.155   2.570   9.796 -0.5792  0.0436 -0.0532
  121OSM    H8F12861   2.246   2.610   9.846 -0.2756  0.2099 -0.7240
  121OSM    H8G12862   2.139   2.629   9.703  1.0791  2.2286  0.9677
  121OSM    C9F12863   2.174   2.418   9.767 -0.3216 -0.4420 -0.9423
  121OSM    H9F12864   2.250   2.383   9.839 -0.4450 -0.6769 -0.9254
  121OSM   C10F12865   2.124   2.342   9.678 -0.3343  0.6549  0.2445
  121OSM   H10F12866   2.131   2.232   9.687 -0.2629  0.5258 -1.1282
  121OSM   C11F12867   2.030   2.388   9.570  1.0520  1.0071 -0.0575
  121OSM   H11F12868   2.001   2.494   9.578 -1.5504  0.4826 -1.5575
  121OSM   H11G12869   1.937   2.329   9.583  1.2424 -0.4051 -3.8153
  121OSM   C12F12870   2.071   2.364   9.424  0.3236 -0.3751  0.4757
  121OSM   H12F12871   2.090   2.256   9.413 -1.7878 -0.7021 -0.4850
  121OSM   H12G12872   2.159   2.432   9.419 -0.1832  0.2544 -0.0457
  121OSM   C13F12873   1.968   2.421   9.326 -0.0293 -0.0244  0.0666
  121OSM   H13F12874   2.023   2.443   9.232  0.1523  0.7127  0.3364
  121OSM   H13G12875   1.925   2.517   9.362  1.0465  0.4989  0.0138
  121OSM   C14F12876   1.858   2.329   9.284  0.1700 -0.1863 -0.2416
  121OSM   H14F12877   1.770   2.335   9.350  0.5794  0.0427  0.2938
  121OSM   H14G12878   1.901   2.226   9.285 -1.2545 -0.8285 -1.6184
  121OSM   C15F12879   1.813   2.340   9.135  0.4918  0.2977  0.3268
  121OSM   H15F12880   1.770   2.440   9.114  1.7474  0.2795 -2.9697
  121OSM   H15G12881   1.733   2.265   9.130  1.5086 -0.9709  1.8945
  121OSM   C16F12882   1.923   2.330   9.019  0.1412 -0.0056 -0.6445
  121OSM   H16F12883   1.983   2.238   9.031 -0.0719 -0.3146 -1.8371
  121OSM   H16G12884   1.995   2.413   9.032  1.1228 -1.1259  1.5361
  121OSM   C17F12885   1.870   2.320   8.876  0.2188 -0.2143  0.4464
  121OSM   H17F12886   1.827   2.415   8.837  0.9651 -0.5210 -1.1826
  121OSM   H17G12887   1.794   2.240   8.864 -2.0536  2.0883 -1.7405
  121OSM   C18F12888   1.981   2.292   8.773  0.0854 -0.5700 -0.8857
  121OSM   H18F12889   2.053   2.215   8.809 -0.9805 -1.7880 -1.3010
  121OSM   H18G12890   2.043   2.384   8.767  0.8248 -0.9867  0.1346
  121OSM   H18H12891   1.943   2.266   8.672  1.4548 -1.4567 -1.2026
  122OSM      N12892   4.526   6.093  10.939 -0.2530 -0.5248 -0.0422
  122OSM    C1512893   4.394   6.147  10.892  0.0489 -0.9625 -0.4661
  122OSM   H15A12894   4.396   6.152  10.784  1.9488  0.8701 -0.4157
  122OSM   H15B12895   4.376   6.247  10.928  0.9800 -1.5601  1.8237
  122OSM   H15C12896   4.311   6.084  10.923 -0.1884  0.6249  2.4284
  122OSM    C1412897   4.614   6.215  10.972  0.2280  0.5105 -0.4159
  122OSM   H14A12898   4.705   6.179  11.018  0.5914  3.0118  0.9702
  122OSM   H14B12899   4.557   6.277  11.039 -0.1034 -0.2309  0.0038
  122OSM   H14C12900   4.636   6.276  10.885  1.5936  0.2182 -0.3000
  122OSM    C1312901   4.509   6.011  11.056  0.8443 -0.1378 -0.2022
  122OSM   H13A12902   4.425   5.943  11.048 -0.6196  1.5206  0.4367
  122OSM   H13B12903   4.469   6.073  11.135  0.6048  0.0706 -0.4859
  122OSM   H13C12904   4.593   5.950  11.084 -0.2478 -0.8685  1.6986
  122OSM    C1212905   4.594   6.007  10.833 -0.1250 -0.4966 -0.2636
  122OSM   H12A12906   4.697   5.990  10.863  0.2303  0.7184 -0.7325
  122OSM   H12B12907   4.600   6.060  10.739  0.4624  0.1685  0.1330
  122OSM    C1112908   4.532   5.864  10.817  0.2961 -0.0008  0.5784
  122OSM   H11A12909   4.526   5.801  10.909 -1.1581  0.1644  0.6235
  122OSM   H11B12910   4.604   5.814  10.749  0.8006 -2.0574  2.5119
  122OSM      P12911   4.278   5.812  10.805  0.8350 -0.0401  0.1455
  122OSM    O1312912   4.269   5.670  10.769 -0.1552  0.2538 -0.1843
  122OSM    O1412913   4.260   5.852  10.949  0.2843 -0.6758 -0.2931
  122OSM    O1112914   4.167   5.896  10.727  0.2328  0.0830 -0.4562
  122OSM    O1212915   4.409   5.873  10.744 -0.1376 -0.3017 -0.3312
  122OSM    C1S12916   4.156   5.879  10.585  0.6857  0.3393  0.5701
  122OSM    H1S12917   4.114   5.781  10.553  1.2517  0.3181 -0.1264
  122OSM    H1T12918   4.253   5.891  10.533  1.1000 -3.0442  0.3603
  122OSM     NF12919   4.082   5.985  10.377  0.1274 -0.6136 -0.3005
  122OSM    HNF12920   4.163   6.019  10.330  0.8110  0.1398  1.3538
  122OSM    C2S12921   4.080   5.998  10.519 -0.1965 -0.7718  0.3674
  122OSM    H2S12922   3.975   6.003  10.556 -0.1904 -2.0457  0.5868
  122OSM    C3S12923   4.142   6.137  10.570 -0.1107 -0.0590  1.2458
  122OSM    H3S12924   4.252   6.142  10.556 -0.4023  0.4912 -1.4236
  122OSM     O312925   4.143   6.165  10.709  0.3131 -0.2078 -0.2682
  122OSM    HO312926   4.142   6.077  10.749 -0.7848 -0.1566 -0.1434
  122OSM    C4S12927   4.073   6.251  10.508 -0.3240 -0.2696 -0.2364
  122OSM    H4S12928   3.983   6.286  10.560 -0.8115 -1.4268 -0.2661
  122OSM    C5S12929   4.111   6.313  10.396  0.2978 -0.4124 -0.2947
  122OSM    H5S12930   4.180   6.273  10.320 -0.6787 -0.4309 -1.2002
  122OSM    C6S12931   4.036   6.434  10.344  0.0946  0.3040 -0.0769
  122OSM    H6S12932   4.109   6.479  10.273  2.2463 -0.6392  1.4431
  122OSM    H6T12933   4.018   6.518  10.415  0.6054  1.4409 -1.2435
  122OSM    C7S12934   3.910   6.385  10.271  0.0463 -0.1774  0.3634
  122OSM    H7S12935   3.852   6.460  10.213 -1.8205 -2.4815 -0.9237
  122OSM    H7T12936   3.836   6.366  10.351  1.3718  1.4624  2.0716
  122OSM    C8S12937   3.922   6.265  10.172 -0.2504 -0.1295  0.0407
  122OSM    H8S12938   3.817   6.235  10.149 -1.1995 -0.6637  4.2799
  122OSM    H8T12939   3.979   6.180  10.216 -0.4300 -0.6389 -0.6836
  122OSM    C9S12940   3.992   6.305  10.043 -0.3725  0.3420  0.4878
  122OSM    H9S12941   4.100   6.332  10.046  0.0690 -1.3500  2.0456
  122OSM    H9T12942   3.935   6.390  10.000  1.0701  0.0829 -2.1495
  122OSM   C10S12943   3.986   6.182   9.947  0.2595 -0.1393  0.1748
  122OSM   H10S12944   3.888   6.131   9.958 -0.5522  0.8475 -2.0189
  122OSM   H10T12945   4.070   6.113   9.971  0.1784 -0.3479 -0.1409
  122OSM   C11S12946   4.012   6.226   9.798 -0.0009  0.1148  0.4562
  122OSM   H11S12947   4.116   6.264   9.801 -0.8576  3.0436 -1.9732
  122OSM   H11T12948   3.948   6.310   9.763  1.3928  1.1769  0.3659
  122OSM   C12S12949   4.016   6.110   9.692  0.1086 -0.0161 -0.2411
  122OSM   H12S12950   3.915   6.064   9.691  0.5735 -1.4455  3.4180
  122OSM   H12T12951   4.095   6.036   9.717 -0.6673 -0.1562  2.0713
  122OSM   C13S12952   4.038   6.172   9.551  0.1196 -0.3699 -0.3273
  122OSM   H13S12953   4.140   6.214   9.540  0.4949 -0.9387  0.8591
  122OSM   H13T12954   3.955   6.242   9.524  0.6334 -0.0111 -1.0144
  122OSM   C14S12955   4.035   6.064   9.437 -0.0936 -0.0177 -0.1364
  122OSM   H14S12956   3.928   6.041   9.420  0.0695 -0.2416 -0.8676
  122OSM   H14T12957   4.091   5.969   9.452 -1.3891 -0.9026 -0.6733
  122OSM   C15S12958   4.088   6.128   9.306 -0.5273  0.8185 -0.0874
  122OSM   H15S12959   4.134   6.049   9.243  1.6227  0.2896  1.9784
  122OSM   H15T12960   4.177   6.190   9.332 -0.5735  0.9506 -0.2478
  122OSM   C16S12961   3.976   6.198   9.228  0.3872 -0.8545  0.7489
  122OSM   H16S12962   3.951   6.293   9.278 -1.7890 -1.3954  0.8214
  122OSM   H16T12963   3.881   6.141   9.241  0.5890 -1.2226  0.6245
  122OSM   C17S12964   4.004   6.206   9.081  0.1987 -0.3676 -0.4902
  122OSM   H17S12965   4.030   6.108   9.036 -1.0812 -0.7699 -0.3860
  122OSM   H17T12966   4.092   6.274   9.085  0.0281 -0.1967  0.8601
  122OSM   C18S12967   3.884   6.269   9.003 -0.2301 -0.2138  0.4568
  122OSM   H18S12968   3.885   6.380   9.002 -0.4871 -0.2112 -1.0676
  122OSM   H18T12969   3.787   6.242   9.052 -0.6751  1.1495  0.3770
  122OSM   H18U12970   3.884   6.221   8.903 -0.2963 -0.7432  0.7063
  122OSM    C1F12971   4.006   5.896  10.310 -0.9812  0.1870 -0.4111
  122OSM     OF12972   3.917   5.837  10.371 -0.1239  0.2541 -0.5440
  122OSM    C2F12973   4.058   5.878  10.169  0.3201 -0.2317 -0.0286
  122OSM    H2F12974   4.140   5.804  10.174 -1.2072 -1.9515  0.6921
  122OSM    H2G12975   4.100   5.974  10.132 -1.9542  0.6784 -0.3894
  122OSM    C3F12976   3.947   5.829  10.071 -0.7420  0.8084  0.4187
  122OSM    H3F12977   3.996   5.836   9.972  0.5922  0.9800  1.0761
  122OSM    H3G12978   3.846   5.874  10.082 -1.9783 -1.3769 -1.0718
  122OSM    C4F12979   3.917   5.681  10.099 -0.4653  0.0763 -0.4302
  122OSM    H4F12980   3.854   5.671  10.190 -0.3248 -1.4189 -0.4694
  122OSM    H4G12981   4.003   5.613  10.116 -1.0146 -0.4068  0.5151
  122OSM    C5F12982   3.836   5.604   9.993 -0.2273  1.0740 -0.2153
  122OSM    H5F12983   3.733   5.640   9.971 -0.0935  0.6137 -1.7141
  122OSM    H5G12984   3.818   5.499  10.027 -1.0640  0.5318 -2.2169
  122OSM    C6F12985   3.907   5.598   9.855  0.2970 -0.7316 -0.6521
  122OSM    H6F12986   4.001   5.538   9.857  0.4777 -0.4389 -0.4363
  122OSM    H6G12987   3.933   5.705   9.843 -1.1650  0.3054  3.7069
  122OSM    C7F12988   3.820   5.553   9.740  0.1192 -0.5718 -0.1659
  122OSM    H7F12989   3.728   5.615   9.729  1.2467  0.9320 -1.7889
  122OSM    H7G12990   3.791   5.450   9.767 -0.2517  0.1473  2.4091
  122OSM    C8F12991   3.904   5.563   9.614  0.0274 -0.1105 -0.1185
  122OSM    H8F12992   3.848   5.488   9.554 -1.0947  0.9137 -0.4069
  122OSM    H8G12993   4.005   5.518   9.624 -0.3358 -0.9453 -0.1084
  122OSM    C9F12994   3.906   5.698   9.541  1.0562 -0.4483 -0.4160
  122OSM    H9F12995   3.886   5.792   9.594 -2.5673 -0.3193 -1.7083
  122OSM   C10F12996   3.900   5.715   9.408  0.0577  0.2761 -0.0218
  122OSM   H10F12997   3.878   5.816   9.370 -0.8901  0.4324  0.8787
  122OSM   C11F12998   3.902   5.602   9.308  0.2227 -0.0011  0.4262
  122OSM   H11F12999   3.827   5.525   9.336  0.6941 -2.2083 -3.6401
  122OSM   H11G13000   3.995   5.542   9.322 -1.3417 -3.4094 -2.2237
  122OSM   C12F13001   3.868   5.639   9.164 -0.5142  0.0448 -0.4006
  122OSM   H12F13002   3.763   5.675   9.163 -0.6723 -0.1692  2.4021
  122OSM   H12G13003   3.887   5.543   9.110  1.0017 -0.9019  1.6888
  122OSM   C13F13004   3.949   5.755   9.099 -0.0479  0.5335  0.0471
  122OSM   H13F13005   4.053   5.728   9.127 -0.0954 -0.5555 -0.7922
  122OSM   H13G13006   3.931   5.850   9.155  0.1102  1.5396 -1.5384
  122OSM   C14F13007   3.933   5.762   8.948  0.6484 -0.3367 -1.2611
  122OSM   H14F13008   3.827   5.766   8.916  0.9904 -0.3569 -2.4273
  122OSM   H14G13009   3.985   5.671   8.914  0.7869 -0.3551 -1.0088
  122OSM   C15F13010   4.015   5.882   8.889 -0.2071 -0.2001  0.0358
  122OSM   H15F13011   4.096   5.908   8.960 -1.9775  1.8226  1.4383
  122OSM   H15G13012   3.948   5.971   8.884  0.7221  0.5362  0.3459
  122OSM   C16F13013   4.073   5.843   8.749 -0.3775 -0.5550 -0.5971
  122OSM   H16F13014   4.138   5.753   8.761  0.3669 -0.3050 -2.3952
  122OSM   H16G13015   4.142   5.924   8.716 -0.5363 -0.3212 -0.3527
  122OSM   C17F13016   3.958   5.816   8.650  0.2303  0.7027  0.4634
  122OSM   H17F13017   3.870   5.869   8.692 -0.4630 -0.2421  0.2356
  122OSM   H17G13018   3.934   5.708   8.646  2.4487  0.1603  0.7883
  122OSM   C18F13019   3.976   5.870   8.506 -0.2021 -0.1333 -0.3866
  122OSM   H18F13020   3.894   5.845   8.435 -0.7864  2.8059 -0.8795
  122OSM   H18G13021   4.077   5.832   8.483  0.8176  1.2130  1.5799
  122OSM   H18H13022   3.992   5.980   8.512  1.2081 -0.2545 -1.5239
  123OSM      N13023   2.926   4.394   5.983  0.4074  0.0561  1.2060
  123OSM    C1513024   2.970   4.436   5.843  0.2637 -0.4168 -0.2295
  123OSM   H15A13025   3.045   4.512   5.858  2.1856 -2.5329  1.4934
  123OSM   H15B13026   2.890   4.479   5.784  0.6396  1.3447  0.4877
  123OSM   H15C13027   3.008   4.353   5.786  1.5953 -0.1587  0.2592
  123OSM    C1413028   2.827   4.487   6.032 -0.6428 -1.0302  0.2440
  123OSM   H14A13029   2.785   4.457   6.126 -0.0149  0.3071  0.9835
  123OSM   H14B13030   2.744   4.493   5.964  0.8417 -0.8221 -1.6516
  123OSM   H14C13031   2.871   4.583   6.057 -2.6095  0.3504 -1.2446
  123OSM    C1313032   2.888   4.250   5.982 -0.0373 -0.2992 -0.4235
  123OSM   H13A13033   2.861   4.222   5.881 -1.0697  1.4769 -0.6968
  123OSM   H13B13034   2.797   4.243   6.039 -1.7901 -1.0828 -3.1094
  123OSM   H13C13035   2.967   4.186   6.018  0.6917 -0.2708 -1.8862
  123OSM    C1213036   3.048   4.404   6.075 -0.2977  0.4800 -0.0799
  123OSM   H12A13037   3.125   4.333   6.046  0.7205  1.5947 -0.1895
  123OSM   H12B13038   3.011   4.372   6.170 -0.8568  0.4488 -0.3076
  123OSM    C1113039   3.115   4.541   6.099  0.5530  0.2717 -0.0297
  123OSM   H11A13040   3.110   4.600   6.006 -0.7968 -2.0202 -1.5176
  123OSM   H11B13041   3.224   4.536   6.123  0.2037 -1.2481  1.4618
  123OSM      P13042   3.054   4.766   6.220 -0.0466 -0.0257 -0.3866
  123OSM    O1313043   3.189   4.818   6.253 -0.0982 -0.1526 -0.0506
  123OSM    O1413044   2.981   4.827   6.107  0.7692  0.6144  0.0992
  123OSM    O1113045   2.956   4.779   6.346 -0.3844 -0.2047  0.3655
  123OSM    O1213046   3.061   4.603   6.217  0.5477 -0.1466  0.0488
  123OSM    C1S13047   2.985   4.691   6.457  1.1447 -0.7819  0.2845
  123OSM    H1S13048   3.085   4.706   6.502  1.3317  1.9246 -0.7965
  123OSM    H1T13049   2.965   4.586   6.427  0.8012 -1.2487  2.0239
  123OSM     NF13050   2.904   4.613   6.686  0.1269 -0.4676  0.0665
  123OSM    HNF13051   2.872   4.518   6.689  1.0035 -0.7452  1.1607
  123OSM    C2S13052   2.869   4.689   6.567 -0.0796  0.1181 -0.2161
  123OSM    H2S13053   2.871   4.796   6.596  2.1100 -0.1415  0.7667
  123OSM    C3S13054   2.733   4.644   6.505 -0.2805  0.4002  0.5070
  123OSM    H3S13055   2.736   4.542   6.461  0.3537 -0.0266  1.5228
  123OSM     O313056   2.694   4.733   6.398  0.0035 -0.6715 -0.2887
  123OSM    HO313057   2.777   4.776   6.375 -0.2944 -1.2396 -2.7236
  123OSM    C4S13058   2.627   4.636   6.610 -0.4860  0.6728  0.3093
  123OSM    H4S13059   2.607   4.726   6.670 -2.4926  0.3445  0.1768
  123OSM    C5S13060   2.542   4.536   6.632  0.1028  0.6424 -0.2906
  123OSM    H5S13061   2.533   4.450   6.563 -1.0497 -0.5481  1.2653
  123OSM    C6S13062   2.443   4.530   6.746 -0.3433 -0.3829 -1.1230
  123OSM    H6S13063   2.346   4.482   6.720  1.0682 -3.2592 -1.5952
  123OSM    H6T13064   2.436   4.633   6.786 -1.1096 -0.1388 -1.8469
  123OSM    C7S13065   2.495   4.447   6.864 -0.2888  0.3489 -0.2997
  123OSM    H7S13066   2.591   4.494   6.894 -1.0715  2.4953 -0.8885
  123OSM    H7T13067   2.519   4.343   6.835 -1.7667  0.3923 -1.8912
  123OSM    C8S13068   2.402   4.442   6.992 -1.0031 -0.5910  0.1348
  123OSM    H8S13069   2.298   4.428   6.954 -0.9803  2.6124 -1.4478
  123OSM    H8T13070   2.416   4.544   7.035 -1.3278 -0.0863 -0.9248
  123OSM    C9S13071   2.434   4.332   7.091 -0.6921  0.8514 -0.1684
  123OSM    H9S13072   2.538   4.346   7.128 -0.7226  0.3023  0.1465
  123OSM    H9T13073   2.424   4.237   7.033  0.0611  0.4253  0.3687
  123OSM   C10S13074   2.339   4.321   7.218  0.9059  0.1839  0.0284
  123OSM   H10S13075   2.235   4.328   7.180  0.8089  1.9612  0.5165
  123OSM   H10T13076   2.355   4.414   7.277  0.5762 -2.1036  4.0517
  123OSM   C11S13077   2.389   4.209   7.310  0.4874  0.5750  0.1448
  123OSM   H11S13078   2.499   4.202   7.319  0.3453 -0.2221  1.5138
  123OSM   H11T13079   2.356   4.129   7.240 -0.7799  1.4314 -0.2741
  123OSM   C12S13080   2.320   4.209   7.448 -0.1453  0.1534  0.1388
  123OSM   H12S13081   2.361   4.129   7.514 -1.1608  0.6866  1.4421
  123OSM   H12T13082   2.215   4.175   7.433 -0.2460 -0.1442  1.3991
  123OSM   C13S13083   2.318   4.349   7.521  0.5616 -0.2054  0.2816
  123OSM   H13S13084   2.251   4.415   7.464  2.4738  1.3716 -0.2553
  123OSM   H13T13085   2.423   4.386   7.519  0.6153 -0.2930  1.0430
  123OSM   C14S13086   2.268   4.335   7.666  0.1432 -0.2412 -0.4294
  123OSM   H14S13087   2.323   4.258   7.722 -0.5499 -0.5306 -0.1362
  123OSM   H14T13088   2.161   4.305   7.656 -0.1775  1.1234 -1.4647
  123OSM   C15S13089   2.266   4.457   7.760 -0.5331  0.2537  0.6629
  123OSM   H15S13090   2.191   4.531   7.725  0.4596  1.0145  0.0650
  123OSM   H15T13091   2.363   4.511   7.756  0.6489 -1.7049  1.3228
  123OSM   C16S13092   2.240   4.425   7.908  0.2661  0.5386  0.9570
  123OSM   H16S13093   2.255   4.525   7.955  0.3018  1.2879 -0.5713
  123OSM   H16T13094   2.313   4.352   7.948 -0.8136  0.3090  2.6183
  123OSM   C17S13095   2.097   4.368   7.947  0.1310  0.4166  0.3467
  123OSM   H17S13096   2.101   4.349   8.056  5.7398  0.8415  0.4661
  123OSM   H17T13097   2.080   4.283   7.878  2.2956  0.6707 -0.5759
  123OSM   C18S13098   1.984   4.466   7.913  0.4373 -0.3259 -0.5423
  123OSM   H18S13099   1.884   4.427   7.943 -0.4694  1.7123 -0.7254
  123OSM   H18T13100   1.989   4.481   7.803  0.4921  0.7063 -0.4150
  123OSM   H18U13101   1.995   4.567   7.960 -0.0121  0.6404 -2.4203
  123OSM    C1F13102   3.006   4.642   6.766 -0.4337  0.3132 -0.3878
  123OSM     OF13103   3.071   4.747   6.751 -0.1946  0.3016 -0.0234
  123OSM    C2F13104   3.029   4.536   6.871  0.4525 -0.0629 -0.4523
  123OSM    H2F13105   3.119   4.476   6.847  0.1320 -0.2399 -1.2147
  123OSM    H2G13106   2.937   4.476   6.883 -0.6461  1.1828 -2.2348
  123OSM    C3F13107   3.055   4.605   7.010 -0.9193  0.0204  0.0246
  123OSM    H3F13108   2.960   4.659   7.031 -0.4641  0.3779  1.2112
  123OSM    H3G13109   3.140   4.676   7.015 -0.0583 -1.0681  2.2835
  123OSM    C4F13110   3.073   4.502   7.122  0.1772 -0.0297 -0.3136
  123OSM    H4F13111   3.070   4.562   7.215  0.3555 -2.9164  1.6713
  123OSM    H4G13112   3.173   4.454   7.129  0.7591  0.7192 -2.4424
  123OSM    C5F13113   2.951   4.406   7.143  0.0491  0.4181  0.2916
  123OSM    H5F13114   2.985   4.315   7.088  0.4952 -0.2262  1.5949
  123OSM    H5G13115   2.861   4.464   7.113 -1.5393 -0.1119  3.5307
  123OSM    C6F13116   2.923   4.374   7.294 -0.1248 -0.6270 -0.0240
  123OSM    H6F13117   2.911   4.477   7.333  1.3820 -0.3248 -0.2810
  123OSM    H6G13118   3.003   4.312   7.339  0.4511 -0.6888 -1.0860
  123OSM    C7F13119   2.792   4.294   7.314  0.0578  0.4928  0.6199
  123OSM    H7F13120   2.783   4.190   7.277 -1.3730  0.3207  1.3536
  123OSM    H7G13121   2.714   4.345   7.252  1.0616  2.8852  1.2214
  123OSM    C8F13122   2.751   4.299   7.460 -0.3801 -0.3331  0.4839
  123OSM    H8F13123   2.645   4.266   7.452 -0.7690  1.3020 -2.1246
  123OSM    H8G13124   2.748   4.401   7.504 -0.9218  0.3992 -1.1715
  123OSM    C9F13125   2.834   4.201   7.537  0.2090  0.3747  0.4210
  123OSM    H9F13126   2.815   4.099   7.502  0.3851  1.3915 -3.0634
  123OSM   C10F13127   2.908   4.220   7.650  0.2269 -0.5628 -0.1999
  123OSM   H10F13128   2.949   4.127   7.693 -0.7205 -0.0977  1.8252
  123OSM   C11F13129   2.930   4.356   7.726  0.2626  0.0665  0.6157
  123OSM   H11F13130   2.934   4.436   7.649  1.4283  0.0235  0.6160
  123OSM   H11G13131   3.032   4.364   7.768 -0.5972  4.4184  2.4957
  123OSM   C12F13132   2.816   4.388   7.823 -0.1251  0.5308 -0.6458
  123OSM   H12F13133   2.723   4.366   7.767 -0.5017  2.5350 -0.8591
  123OSM   H12G13134   2.812   4.496   7.849 -1.7036  0.5531 -0.8562
  123OSM   C13F13135   2.817   4.301   7.953 -0.6925 -0.1751 -0.0350
  123OSM   H13F13136   2.923   4.309   7.984 -0.4050 -0.8564 -0.8060
  123OSM   H13G13137   2.796   4.193   7.941  1.0869 -0.7464  1.5194
  123OSM   C14F13138   2.727   4.356   8.064  0.2500 -0.7294  0.1575
  123OSM   H14F13139   2.622   4.356   8.028 -0.7038 -0.0213  2.7082
  123OSM   H14G13140   2.749   4.460   8.097 -2.4942 -0.2900  0.8569
  123OSM   C15F13141   2.733   4.284   8.198  0.2683  0.2963 -0.4015
  123OSM   H15F13142   2.716   4.175   8.190  1.0369 -0.0807  2.1373
  123OSM   H15G13143   2.659   4.336   8.263  0.8690 -0.0740  0.6053
  123OSM   C16F13144   2.854   4.311   8.286 -0.1553  0.5043 -0.0656
  123OSM   H16F13145   2.815   4.328   8.389 -0.8482 -2.8298  0.3111
  123OSM   H16G13146   2.898   4.408   8.253  1.1721 -0.4393 -1.1963
  123OSM   C17F13147   2.949   4.194   8.294 -0.2387  0.1677 -0.7702
  123OSM   H17F13148   3.052   4.236   8.294 -0.4553  0.7193 -0.1763
  123OSM   H17G13149   2.928   4.118   8.216  0.8282 -1.7802  0.7589
  123OSM   C18F13150   2.938   4.115   8.426  0.1350 -0.0863  0.0671
  123OSM   H18F13151   2.937   4.184   8.512 -0.7248  0.5382 -0.4304
  123OSM   H18G13152   3.018   4.039   8.441 -0.0061  0.2037  2.5909
  123OSM   H18H13153   2.851   4.046   8.427  0.5741 -0.7138  3.3146
  124OSM      N13154   2.173   3.452   6.084  0.4445  0.2317  0.4421
  124OSM    C1513155   2.215   3.386   6.211 -0.0884  0.3143  0.1021
  124OSM   H15A13156   2.303   3.326   6.190 -0.0788 -0.1930  1.4884
  124OSM   H15B13157   2.134   3.321   6.242  0.8147 -0.9963 -0.1954
  124OSM   H15C13158   2.238   3.451   6.294  0.1614  0.2047  0.1201
  124OSM    C1413159   2.299   3.503   6.028 -0.1648 -0.5123  0.4133
  124OSM   H14A13160   2.282   3.556   5.936 -1.7059  0.1786  1.0792
  124OSM   H14B13161   2.362   3.415   6.017  1.5743  0.4308  2.1059
  124OSM   H14C13162   2.331   3.582   6.094 -1.4476  0.4071 -0.0353
  124OSM    C1313163   2.121   3.345   5.997  0.2774 -0.3792  0.3520
  124OSM   H13A13164   2.030   3.305   6.039 -0.7460  0.9218 -0.5521
  124OSM   H13B13165   2.200   3.276   5.970  0.6604  0.1218  0.1607
  124OSM   H13C13166   2.083   3.388   5.905 -1.3630 -0.0716  1.1389
  124OSM    C1213167   2.069   3.569   6.105  0.6965 -0.3655 -0.3996
  124OSM   H12A13168   1.974   3.519   6.117  1.4901 -1.5924  1.1140
  124OSM   H12B13169   2.052   3.626   6.015 -1.7409 -2.1549 -1.1753
  124OSM    C1113170   2.096   3.666   6.225  0.0474 -0.2777 -0.5366
  124OSM   H11A13171   2.199   3.704   6.210  2.6222 -4.9327  2.7815
  124OSM   H11B13172   2.108   3.600   6.314  1.4965  1.3719  0.5384
  124OSM      P13173   1.856   3.745   6.301 -0.2076  0.2598  0.5026
  124OSM    O1313174   1.791   3.874   6.327 -0.9957 -0.3786 -0.2665
  124OSM    O1413175   1.780   3.642   6.224  0.4548  0.1627  0.2553
  124OSM    O1113176   1.884   3.674   6.440 -0.1844  0.3717  0.5563
  124OSM    O1213177   1.996   3.766   6.228 -0.9985  0.1185 -0.1692
  124OSM    C1S13178   1.949   3.744   6.546  0.6444 -0.9858  0.0529
  124OSM    H1S13179   1.869   3.797   6.601  1.5200 -0.0978  0.5082
  124OSM    H1T13180   2.034   3.812   6.523 -0.9269  1.8922  2.0414
  124OSM     NF13181   2.051   3.724   6.774  0.6851  0.2716  0.4166
  124OSM    HNF13182   2.151   3.720   6.781  0.6079 -1.2024  0.9418
  124OSM    C2S13183   1.990   3.648   6.668 -0.1680  0.2111  0.7136
  124OSM    H2S13184   1.900   3.606   6.717 -1.3519  1.9899  0.1483
  124OSM    C3S13185   2.077   3.533   6.616 -0.1024  0.3741 -0.4930
  124OSM    H3S13186   2.168   3.579   6.572  0.9332 -1.4204 -0.3356
  124OSM     O313187   2.018   3.457   6.506 -0.3535 -0.2036 -0.0669
  124OSM    HO313188   1.950   3.518   6.478  0.4453  1.3851  1.2884
  124OSM    C4S13189   2.109   3.432   6.725  0.0101  0.8339  0.3093
  124OSM    H4S13190   2.214   3.426   6.757 -0.0633  2.3612  0.8714
  124OSM    C5S13191   2.021   3.348   6.786  0.8765  0.1375  0.8281
  124OSM    H5S13192   1.916   3.348   6.754  0.5665  0.1172  1.7875
  124OSM    C6S13193   2.058   3.248   6.885  0.2037 -0.0530 -0.2439
  124OSM    H6S13194   2.165   3.260   6.911  0.0946  3.2844 -0.9341
  124OSM    H6T13195   2.026   3.146   6.854 -2.7917 -0.0118  2.2571
  124OSM    C7S13196   1.981   3.286   7.013 -0.2226  0.0122 -0.5852
  124OSM    H7S13197   1.874   3.290   6.981  0.0392  2.0456 -1.3205
  124OSM    H7T13198   2.002   3.385   7.058 -2.1319 -1.2290  3.4761
  124OSM    C8S13199   2.012   3.182   7.118  0.1059  0.6792  0.8557
  124OSM    H8S13200   2.121   3.182   7.139  0.4129 -1.5010 -0.4436
  124OSM    H8T13201   1.991   3.078   7.086  2.0880  0.2431  0.8618
  124OSM    C9S13202   1.921   3.207   7.238 -0.4014 -0.7882  1.3281
  124OSM    H9S13203   1.817   3.213   7.201  0.2373 -0.9408 -0.6050
  124OSM    H9T13204   1.949   3.308   7.275 -2.5989 -0.3007  1.7931
  124OSM   C10S13205   1.916   3.096   7.332 -0.3060  0.9720 -0.4677
  124OSM   H10S13206   1.860   3.008   7.291 -0.4474  0.8231  0.0374
  124OSM   H10T13207   1.859   3.133   7.420  0.6886 -0.7002  0.9545
  124OSM   C11S13208   2.051   3.049   7.395 -0.4359  0.0380  0.2287
  124OSM   H11S13209   2.103   3.138   7.436  0.7860 -0.5128 -0.0884
  124OSM   H11T13210   2.108   3.002   7.313  1.3052  1.2994  0.6518
  124OSM   C12S13211   2.023   2.943   7.498 -0.0914  0.2912 -0.4063
  124OSM   H12S13212   1.985   2.856   7.440  2.3819 -0.5392 -0.9224
  124OSM   H12T13213   1.945   2.982   7.567 -1.4364 -0.1543 -1.6129
  124OSM   C13S13214   2.150   2.904   7.582 -0.9995 -0.8231  0.7836
  124OSM   H13S13215   2.199   2.999   7.611  1.9476 -1.4163 -1.7597
  124OSM   H13T13216   2.216   2.840   7.521  0.1370  0.1123  1.0024
  124OSM   C14S13217   2.109   2.810   7.694 -0.8313  0.0340  0.2419
  124OSM   H14S13218   2.084   2.710   7.653  0.2563 -0.7186  1.3415
  124OSM   H14T13219   2.023   2.857   7.747 -1.7707 -2.1564  0.8089
  124OSM   C15S13220   2.220   2.778   7.794  0.3727 -0.5421 -0.7139
  124OSM   H15S13221   2.271   2.860   7.849 -0.9707  0.0985 -0.4074
  124OSM   H15T13222   2.305   2.730   7.741  1.4707  0.3729  0.1620
  124OSM   C16S13223   2.172   2.678   7.906  0.5251 -0.3454  0.0765
  124OSM   H16S13224   2.136   2.584   7.860  0.1894 -0.8122  1.2518
  124OSM   H16T13225   2.082   2.727   7.949 -0.4492 -1.1828 -0.9466
  124OSM   C17S13226   2.274   2.650   8.017  0.5941 -0.1175  0.0265
  124OSM   H17S13227   2.226   2.602   8.105 -0.5539  0.8713 -0.0290
  124OSM   H17T13228   2.315   2.747   8.053  2.0502  0.3315 -2.6021
  124OSM   C18S13229   2.385   2.554   7.977 -0.0772  0.3025 -0.1574
  124OSM   H18S13230   2.458   2.547   8.061 -0.5155  1.7977  0.3896
  124OSM   H18T13231   2.438   2.596   7.889 -1.0139  1.3114 -0.2677
  124OSM   H18U13232   2.348   2.451   7.958  0.4886  0.3322 -1.5351
  124OSM    C1F13233   1.984   3.802   6.856 -0.1764 -0.1671  0.4406
  124OSM     OF13234   1.864   3.789   6.880 -0.5843 -0.2684  0.0790
  124OSM    C2F13235   2.060   3.908   6.926  0.1918  0.0844  0.5332
  124OSM    H2F13236   2.048   4.005   6.872  4.8063  0.8903  0.5264
  124OSM    H2G13237   2.167   3.878   6.925  0.1468 -0.1647 -1.7163
  124OSM    C3F13238   2.025   3.944   7.074  0.5291  0.4994 -0.6392
  124OSM    H3F13239   1.928   3.997   7.077 -0.3958 -1.1483  1.3268
  124OSM    H3G13240   2.106   4.011   7.110 -1.2522  3.2505 -1.4118
  124OSM    C4F13241   2.025   3.822   7.168 -0.5922 -0.1004 -0.6152
  124OSM    H4F13242   2.117   3.763   7.149  0.0620  0.5570  0.3977
  124OSM    H4G13243   1.936   3.758   7.152 -1.1232  0.5857 -0.4861
  124OSM    C5F13244   2.043   3.848   7.323 -0.0434 -0.4276 -0.4753
  124OSM    H5F13245   1.964   3.914   7.366 -1.4092 -0.8014 -2.3111
  124OSM    H5G13246   2.134   3.908   7.344 -0.9892  0.8298  0.1556
  124OSM    C6F13247   2.045   3.726   7.415 -0.5351  0.5760 -0.1295
  124OSM    H6F13248   2.117   3.651   7.374 -1.1431  0.5483 -1.1746
  124OSM    H6G13249   1.946   3.677   7.416 -0.1990 -0.2830  2.9477
  124OSM    C7F13250   2.072   3.769   7.557  0.0008 -0.1350  0.3807
  124OSM    H7F13251   1.999   3.846   7.590 -0.5238 -0.0933 -0.8252
  124OSM    H7G13252   2.169   3.821   7.570  0.4011  0.2890 -3.2234
  124OSM    C8F13253   2.081   3.657   7.660 -0.0854 -0.0201  0.5031
  124OSM    H8F13254   2.135   3.685   7.753  0.7269 -0.5056  0.1845
  124OSM    H8G13255   2.145   3.582   7.610 -0.8511 -0.9528  0.8919
  124OSM    C9F13256   1.952   3.585   7.699 -0.1090 -0.5095 -0.3382
  124OSM    H9F13257   1.893   3.557   7.611  0.9884  1.5831 -1.8395
  124OSM   C10F13258   1.912   3.530   7.809 -0.2799  0.0756  0.1825
  124OSM   H10F13259   1.817   3.476   7.818  0.3176 -0.7883  1.8789
  124OSM   C11F13260   1.985   3.534   7.940 -0.0867  0.2658  0.1229
  124OSM   H11F13261   1.954   3.608   8.017 -1.2077 -1.9047  1.8885
  124OSM   H11G13262   2.096   3.533   7.935  0.1988 -4.4916  1.7251
  124OSM   C12F13263   1.966   3.395   8.005 -0.1648 -0.2731 -0.5261
  124OSM   H12F13264   1.862   3.394   8.044 -0.0559  3.4988  0.2854
  124OSM   H12G13265   2.038   3.403   8.089  0.1377 -1.0614 -0.6949
  124OSM   C13F13266   2.007   3.270   7.919  0.1945 -0.0803  0.0739
  124OSM   H13F13267   2.114   3.270   7.890  0.3975  0.9224  0.7589
  124OSM   H13G13268   1.942   3.275   7.829  0.6605 -0.6493 -0.2992
  124OSM   C14F13269   1.978   3.133   7.987  0.6277 -0.5501 -0.5540
  124OSM   H14F13270   1.989   3.057   7.907 -1.7376  0.5461 -2.0328
  124OSM   H14G13271   1.872   3.127   8.019  0.3013 -0.9974 -1.6942
  124OSM   C15F13272   2.074   3.111   8.106  0.1039 -0.4336 -0.1032
  124OSM   H15F13273   2.073   3.183   8.191  0.4193  1.5725 -1.7198
  124OSM   H15G13274   2.174   3.128   8.060 -0.9052 -0.5816 -2.5308
  124OSM   C16F13275   2.050   2.974   8.169 -0.0973  0.1539  0.6983
  124OSM   H16F13276   2.053   2.896   8.091  0.0357 -0.0906  0.9447
  124OSM   H16G13277   1.954   2.963   8.225 -0.6734  1.7029  0.0762
  124OSM   C17F13278   2.148   2.934   8.277  0.0807  0.8722 -0.4446
  124OSM   H17F13279   2.144   3.014   8.353 -2.2907 -0.0150  0.4373
  124OSM   H17G13280   2.248   2.930   8.228  0.6429 -0.8618  0.7528
  124OSM   C18F13281   2.117   2.801   8.349 -0.6209  0.1299  0.3652
  124OSM   H18F13282   2.019   2.801   8.401  0.8693 -2.8013  3.6188
  124OSM   H18G13283   2.178   2.769   8.437 -1.6843 -3.5083 -0.0738
  124OSM   H18H13284   2.122   2.718   8.277  1.3676  2.1748 -2.0369
  125OSM      N13285   4.167   3.317   5.842  0.1507 -0.0348  0.0250
  125OSM    C1513286   4.099   3.433   5.780  0.0349 -0.4116  0.0182
  125OSM   H15A13287   4.156   3.518   5.813  1.0581 -1.6768  1.6956
  125OSM   H15B13288   4.004   3.457   5.824 -0.9994  0.5222 -2.5552
  125OSM   H15C13289   4.095   3.432   5.672 -0.7582  0.2939  0.0345
  125OSM    C1413290   4.120   3.190   5.784 -0.0146  0.0091 -0.7266
  125OSM   H14A13291   4.159   3.096   5.820  0.7766 -0.0771 -1.7380
  125OSM   H14B13292   4.135   3.191   5.677 -0.8067  0.7183 -0.8420
  125OSM   H14C13293   4.018   3.182   5.819  0.7986  0.6902  2.0356
  125OSM    C1313294   4.316   3.332   5.809  0.1467  0.0539 -1.1036
  125OSM   H13A13295   4.374   3.261   5.866 -2.0883 -1.0157 -0.0040
  125OSM   H13B13296   4.353   3.433   5.820  0.6723 -0.3512  1.3184
  125OSM   H13C13297   4.322   3.308   5.704 -1.3598  1.3416 -1.5245
  125OSM    C1213298   4.157   3.323   5.992  0.0493 -0.0979  0.1704
  125OSM   H12A13299   4.219   3.402   6.033  2.0451 -1.2155 -0.5664
  125OSM   H12B13300   4.208   3.233   6.023  0.5272 -0.1343 -0.6996
  125OSM    C1113301   4.026   3.333   6.063  0.5261  0.5871 -0.2723
  125OSM   H11A13302   3.970   3.426   6.036  0.6745  0.7449 -0.0400
  125OSM   H11B13303   4.038   3.354   6.172 -1.2042  0.4964 -0.0322
  125OSM      P13304   3.982   3.078   6.095 -0.2606 -0.2700 -0.0531
  125OSM    O1313305   3.867   2.982   6.080  0.2923  0.3309  0.8080
  125OSM    O1413306   4.107   3.035   6.033  0.2294 -0.4682  0.1798
  125OSM    O1113307   4.006   3.119   6.244  0.3636  0.0755 -0.2879
  125OSM    O1213308   3.941   3.220   6.049  0.0852 -0.3927  0.6273
  125OSM    C1S13309   3.903   3.170   6.328  0.4848  0.0830 -0.2515
  125OSM    H1S13310   3.802   3.154   6.283  0.7337  1.2565 -1.3013
  125OSM    H1T13311   3.914   3.280   6.345 -1.2204  0.1826  0.4940
  125OSM     NF13312   3.792   3.131   6.545 -0.2776  0.3480 -0.6919
  125OSM    HNF13313   3.791   3.205   6.612  3.2016 -1.4045  1.5683
  125OSM    C2S13314   3.907   3.100   6.471  0.3024 -0.0130  0.6210
  125OSM    H2S13315   3.902   2.991   6.450  0.6075  0.2658 -1.0966
  125OSM    C3S13316   4.038   3.137   6.534 -0.2461 -0.1365 -0.1287
  125OSM    H3S13317   4.033   3.248   6.549 -3.1037 -0.1585 -0.3308
  125OSM     O313318   4.152   3.097   6.459 -0.3425 -0.1545 -0.3302
  125OSM    HO313319   4.116   3.060   6.378 -0.6533  0.2868 -0.3959
  125OSM    C4S13320   4.039   3.092   6.682 -0.4794 -0.6469  0.2383
  125OSM    H4S13321   3.986   3.166   6.745  1.6942  0.7315  0.5639
  125OSM    C5S13322   4.092   2.984   6.736  0.3921 -0.2313  0.0898
  125OSM    H5S13323   4.143   2.911   6.671  0.1889  0.0469 -0.3905
  125OSM    C6S13324   4.087   2.969   6.885  0.0069  0.0162  0.0606
  125OSM    H6S13325   4.000   2.908   6.917 -0.3890  0.9895  0.8750
  125OSM    H6T13326   4.064   3.063   6.939 -1.4324  0.4461 -1.2068
  125OSM    C7S13327   4.221   2.921   6.946  0.3309  0.2461  0.2717
  125OSM    H7S13328   4.266   2.995   7.016  0.0013 -2.3317  3.4018
  125OSM    H7T13329   4.292   2.894   6.864 -1.2413 -2.0317 -0.4288
  125OSM    C8S13330   4.196   2.807   7.045  0.3143 -0.5480  0.5737
  125OSM    H8S13331   4.181   2.708   6.997  1.0713 -0.5183  0.2561
  125OSM    H8T13332   4.109   2.846   7.103  1.2640 -0.3805  1.9390
  125OSM    C9S13333   4.318   2.783   7.138 -0.1493 -0.3660 -0.1636
  125OSM    H9S13334   4.365   2.882   7.155  0.3551 -0.3291 -1.5979
  125OSM    H9T13335   4.387   2.728   7.070  1.1072  1.1818 -0.1861
  125OSM   C10S13336   4.285   2.699   7.265 -0.6027  0.0891  0.1911
  125OSM   H10S13337   4.381   2.685   7.319 -1.7356  0.2603  2.3432
  125OSM   H10T13338   4.248   2.598   7.240 -0.4065  0.5549 -2.2445
  125OSM   C11S13339   4.182   2.766   7.358  0.3788 -0.0656 -0.3758
  125OSM   H11S13340   4.079   2.739   7.326 -0.2905  0.3064  1.3409
  125OSM   H11T13341   4.194   2.876   7.354  0.8551 -0.1458 -1.3871
  125OSM   C12S13342   4.186   2.723   7.505 -0.8415 -0.4294 -0.9847
  125OSM   H12S13343   4.268   2.779   7.556 -0.4782 -0.6463 -1.3311
  125OSM   H12T13344   4.207   2.615   7.519 -0.1195 -0.5268 -2.6255
  125OSM   C13S13345   4.056   2.748   7.588 -0.1849  0.2861 -0.0092
  125OSM   H13S13346   3.976   2.713   7.520 -0.4171  0.0489  0.3774
  125OSM   H13T13347   4.040   2.858   7.593 -0.2881  0.2826 -0.2552
  125OSM   C14S13348   4.059   2.677   7.720  0.3665 -0.1744  0.2218
  125OSM   H14S13349   4.053   2.568   7.697  0.0371 -0.6491  2.3862
  125OSM   H14T13350   3.974   2.703   7.786  0.4821 -2.2182  1.2511
  125OSM   C15S13351   4.186   2.706   7.806  0.2402  0.8282  0.1320
  125OSM   H15S13352   4.210   2.815   7.811  0.3361  0.7982  0.3434
  125OSM   H15T13353   4.264   2.649   7.752 -1.6919 -1.0074 -0.8562
  125OSM   C16S13354   4.157   2.662   7.949 -0.2484 -0.0841  0.2058
  125OSM   H16S13355   4.122   2.556   7.952 -0.9146  0.0271 -2.1915
  125OSM   H16T13356   4.071   2.716   7.994 -0.1759 -0.6590  1.0616
  125OSM   C17S13357   4.285   2.686   8.036  0.1034  0.0306 -0.1553
  125OSM   H17S13358   4.243   2.728   8.130  0.3460  1.3619 -0.6099
  125OSM   H17T13359   4.340   2.765   7.980 -0.5265 -0.0521 -0.9030
  125OSM   C18S13360   4.398   2.578   8.061 -0.0608  0.4450 -0.0486
  125OSM   H18S13361   4.366   2.494   8.127 -0.8299  0.4440 -0.4024
  125OSM   H18T13362   4.492   2.612   8.109  0.3522  1.5787 -1.6051
  125OSM   H18U13363   4.424   2.538   7.961 -0.4675 -0.1268  0.0710
  125OSM    C1F13364   3.671   3.077   6.539 -0.0593  0.7424 -1.0531
  125OSM     OF13365   3.646   2.996   6.453  0.6252 -0.1430  0.4057
  125OSM    C2F13366   3.562   3.135   6.629 -0.5435 -0.2067  0.1870
  125OSM    H2F13367   3.505   3.201   6.561 -1.4330 -0.9930  0.1466
  125OSM    H2G13368   3.614   3.201   6.702  0.9967 -0.5930 -0.5082
  125OSM    C3F13369   3.478   3.035   6.710 -0.6680  0.2167 -0.5241
  125OSM    H3F13370   3.430   2.957   6.648 -1.8209  0.2089  0.3446
  125OSM    H3G13371   3.400   3.086   6.771  0.5823 -1.0012  2.3284
  125OSM    C4F13372   3.552   2.963   6.822  0.1723 -0.0698  0.2779
  125OSM    H4F13373   3.641   2.928   6.765  0.0002  0.3957 -0.2876
  125OSM    H4G13374   3.511   2.866   6.856  1.0562 -0.0711  1.4068
  125OSM    C5F13375   3.588   3.051   6.940  0.1514 -0.0786  0.0877
  125OSM    H5F13376   3.511   3.110   6.994 -0.3677 -0.4486 -0.2306
  125OSM    H5G13377   3.665   3.123   6.906  0.5487 -0.1192  0.8635
  125OSM    C6F13378   3.658   2.964   7.046  0.1350 -0.2202  0.1143
  125OSM    H6F13379   3.728   2.902   6.985  0.9038  1.0997 -0.3779
  125OSM    H6G13380   3.589   2.897   7.103 -1.0937  2.1998  1.6180
  125OSM    C7F13381   3.730   3.043   7.150  0.0911 -0.0553  0.4897
  125OSM    H7F13382   3.671   3.136   7.165  0.3136 -0.1460  2.1003
  125OSM    H7G13383   3.830   3.078   7.118 -1.0055  0.7897 -2.3729
  125OSM    C8F13384   3.739   2.981   7.290  0.0328 -0.1650 -0.3554
  125OSM    H8F13385   3.635   2.956   7.322  1.2164 -2.0259  2.4314
  125OSM    H8G13386   3.785   3.053   7.361 -1.1836  1.2721 -0.9828
  125OSM    C9F13387   3.819   2.853   7.290 -0.3524  0.0040 -1.0424
  125OSM    H9F13388   3.922   2.863   7.253  0.2954 -1.6641  0.1734
  125OSM   C10F13389   3.776   2.730   7.342 -0.2510  0.5359 -0.4950
  125OSM   H10F13390   3.845   2.646   7.325 -0.1652  0.4267  0.3197
  125OSM   C11F13391   3.645   2.700   7.410  0.1267 -0.1361  0.1639
  125OSM   H11F13392   3.586   2.790   7.438 -1.1090  0.2466 -3.1999
  125OSM   H11G13393   3.650   2.632   7.498 -0.4241 -1.3036 -0.6800
  125OSM   C12F13394   3.544   2.624   7.320 -0.3427 -0.2904  0.4305
  125OSM   H12F13395   3.590   2.557   7.244 -1.9130 -0.9305  0.0041
  125OSM   H12G13396   3.476   2.701   7.275 -0.6129 -1.1168 -0.6158
  125OSM   C13F13397   3.456   2.521   7.385  0.8186 -0.0545  0.5299
  125OSM   H13F13398   3.533   2.441   7.393  0.8202 -0.2779 -1.3670
  125OSM   H13G13399   3.387   2.468   7.317  0.6091  0.1104  0.6137
  125OSM   C14F13400   3.399   2.550   7.525  0.0373  0.5766 -0.3353
  125OSM   H14F13401   3.484   2.571   7.593  0.3232  0.1110 -0.5466
  125OSM   H14G13402   3.343   2.467   7.573  2.1092  0.5187  2.2016
  125OSM   C15F13403   3.306   2.674   7.532 -0.4530 -0.0205  0.6859
  125OSM   H15F13404   3.205   2.639   7.499  0.8134 -1.0964 -2.3550
  125OSM   H15G13405   3.341   2.752   7.462  2.5869 -0.4450  1.5916
  125OSM   C16F13406   3.309   2.751   7.662 -0.0921 -0.0237  0.2957
  125OSM   H16F13407   3.236   2.835   7.664 -0.1417 -0.0728  1.0039
  125OSM   H16G13408   3.412   2.793   7.667 -0.4035  1.0821 -1.6964
  125OSM   C17F13409   3.305   2.653   7.784 -0.1047 -0.5470  0.2243
  125OSM   H17F13410   3.392   2.583   7.783  0.1789 -0.3310 -3.8610
  125OSM   H17G13411   3.215   2.589   7.774  1.0260 -2.4775  1.5731
  125OSM   C18F13412   3.310   2.726   7.921  0.3003 -0.8164  0.2020
  125OSM   H18F13413   3.316   2.653   8.004  4.1110 -0.8583  0.0646
  125OSM   H18G13414   3.218   2.787   7.930  1.8841  1.6217  0.9723
  125OSM   H18H13415   3.394   2.799   7.925 -1.1485  0.9375  0.3166
  126OSM      N13416   0.206   4.475   6.223 -0.3474  0.0592 -0.3151
  126OSM    C1513417   0.267   4.338   6.256  0.2029 -1.1982  0.6199
  126OSM   H15A13418   0.372   4.344   6.281  0.6598 -0.5515 -1.2783
  126OSM   H15B13419   0.246   4.265   6.179 -0.0246 -0.4119 -0.0771
  126OSM   H15C13420   0.211   4.297   6.339 -1.3944  1.0331  0.7300
  126OSM    C1413421   0.270   4.514   6.091  0.2928  0.2697  0.0510
  126OSM   H14A13422   0.237   4.609   6.051 -3.8122 -0.6655  0.7282
  126OSM   H14B13423   0.249   4.444   6.011  1.6920 -1.0083  0.7613
  126OSM   H14C13424   0.376   4.529   6.104  0.5926 -0.6440 -1.1522
  126OSM    C1313425   0.059   4.462   6.200 -0.0393  0.3897  0.6582
  126OSM   H13A13426   0.001   4.456   6.291 -1.3780  0.5294 -0.1468
  126OSM   H13B13427   0.044   4.382   6.128  0.6695  0.0583  0.8718
  126OSM   H13C13428   0.040   4.556   6.150  4.5572 -0.1984 -2.7718
  126OSM    C1213429   0.251   4.576   6.327  0.0474 -0.9214 -0.2762
  126OSM   H12A13430   0.209   4.671   6.296 -1.6061 -2.4347 -3.1117
  126OSM   H12B13431   0.358   4.580   6.319  0.1435  0.5989  1.2598
  126OSM    C1113432   0.201   4.563   6.473 -0.2541  0.4801 -0.6910
  126OSM   H11A13433   0.244   4.647   6.531 -1.1775 -0.1223  0.9472
  126OSM   H11B13434   0.249   4.470   6.512  2.1187  2.3849  1.2055
  126OSM      P13435  -0.029   4.681   6.526  0.0429  0.1119  0.1269
  126OSM    O1313436   0.019   4.795   6.445  0.4845  0.3222 -0.6418
  126OSM    O1413437  -0.172   4.643   6.519 -1.0856 -0.0532  0.1690
  126OSM    O1113438   0.022   4.693   6.674  0.2087 -0.0685  0.1187
  126OSM    O1213439   0.062   4.555   6.493 -0.1598 -0.3426  0.0246
  126OSM    C1S13440   0.047   4.819   6.729  0.2125  0.3216 -0.5040
  126OSM    H1S13441  -0.048   4.877   6.737 -1.1980 -1.5766 -2.3222
  126OSM    H1T13442   0.122   4.881   6.676  2.8982  0.0342  2.6089
  126OSM     NF13443   0.086   4.917   6.951 -0.3906  0.1049 -0.2524
  126OSM    HNF13444   0.166   4.966   6.985 -1.0953  2.3333 -1.5730
  126OSM    C2S13445   0.107   4.792   6.877  0.0353  0.1890 -0.5952
  126OSM    H2S13446   0.043   4.713   6.922 -1.3876  2.5923  1.9418
  126OSM    C3S13447   0.249   4.739   6.879 -1.0501  0.6379  0.5543
  126OSM    H3S13448   0.322   4.807   6.830  2.0479 -2.3826  0.6256
  126OSM     O313449   0.261   4.610   6.819 -0.6136  0.0623  0.5047
  126OSM    HO313450   0.188   4.606   6.756 -0.6135  2.2663  0.2877
  126OSM    C4S13451   0.293   4.723   7.029  0.5796 -0.0219  0.8073
  126OSM    H4S13452   0.237   4.647   7.087 -1.7806  1.8596  1.1617
  126OSM    C5S13453   0.408   4.773   7.077 -0.5542 -0.4722  0.6538
  126OSM    H5S13454   0.475   4.838   7.017  0.6196  1.1020  3.4876
  126OSM    C6S13455   0.464   4.758   7.218  0.2627 -0.2536  0.7218
  126OSM    H6S13456   0.526   4.847   7.241  1.2183 -0.4924 -0.8323
  126OSM    H6T13457   0.524   4.665   7.218  0.9637  0.1922  0.4264
  126OSM    C7S13458   0.352   4.737   7.321 -0.5000  0.5311 -0.3523
  126OSM    H7S13459   0.286   4.650   7.302 -0.0356  0.3437 -1.1497
  126OSM    H7T13460   0.292   4.830   7.332  0.4598  1.1606 -0.3260
  126OSM    C8S13461   0.414   4.691   7.460 -0.1585 -0.5865  0.1836
  126OSM    H8S13462   0.494   4.765   7.481 -0.6780 -0.5988  2.4784
  126OSM    H8T13463   0.453   4.588   7.451 -0.9043 -0.9412  0.8876
  126OSM    C9S13464   0.315   4.714   7.573  0.5833 -0.2059  0.0611
  126OSM    H9S13465   0.225   4.652   7.552  1.6216 -1.3566 -1.2202
  126OSM    H9T13466   0.276   4.818   7.571 -1.7076 -0.9557  2.1008
  126OSM   C10S13467   0.375   4.694   7.715 -0.3618 -0.0046  0.5995
  126OSM   H10S13468   0.469   4.753   7.726 -0.9768  0.8510  1.4128
  126OSM   H10T13469   0.400   4.590   7.743  0.7243  0.0499 -0.1076
  126OSM   C11S13470   0.275   4.758   7.817  0.3840  0.0770  0.0723
  126OSM   H11S13471   0.193   4.683   7.811 -0.8866  1.5246 -1.8534
  126OSM   H11T13472   0.241   4.857   7.780  0.6581 -0.7321 -2.5460
  126OSM   C12S13473   0.343   4.769   7.952  0.7168  0.6927  0.6725
  126OSM   H12S13474   0.444   4.815   7.941  1.6333 -1.5482 -1.1999
  126OSM   H12T13475   0.361   4.664   7.985 -1.3794  0.1711  0.3022
  126OSM   C13S13476   0.245   4.822   8.050 -0.4566  0.2352  0.2757
  126OSM   H13S13477   0.143   4.781   8.030 -1.8997  3.7333 -0.1862
  126OSM   H13T13478   0.239   4.930   8.026  2.3203  0.3101 -0.3934
  126OSM   C14S13479   0.282   4.780   8.191 -0.4007 -0.0120 -0.3036
  126OSM   H14S13480   0.258   4.864   8.259 -0.8139 -0.8820  0.6533
  126OSM   H14T13481   0.390   4.757   8.202 -0.8443 -1.2553  2.2897
  126OSM   C15S13482   0.211   4.654   8.230  0.3536  0.5859  0.7396
  126OSM   H15S13483   0.223   4.576   8.151 -0.5093 -1.5885  2.6490
  126OSM   H15T13484   0.103   4.676   8.229  0.3956  0.8761 -1.0574
  126OSM   C16S13485   0.255   4.599   8.364  0.3567 -0.0979  0.1477
  126OSM   H16S13486   0.232   4.677   8.439  0.4637 -0.2845  0.3755
  126OSM   H16T13487   0.365   4.586   8.362  0.3248 -0.4336  0.5219
  126OSM   C17S13488   0.183   4.463   8.400 -0.8240 -0.8469 -0.1165
  126OSM   H17S13489   0.202   4.388   8.320 -0.5236 -2.6761  1.6032
  126OSM   H17T13490   0.072   4.476   8.402 -0.7307  0.0556 -0.1522
  126OSM   C18S13491   0.233   4.410   8.536  0.0298 -0.6075 -0.2023
  126OSM   H18S13492   0.197   4.309   8.563  1.2465 -0.9165  0.3102
  126OSM   H18T13493   0.203   4.479   8.617  1.7883  1.4315 -1.1871
  126OSM   H18U13494   0.344   4.406   8.531  0.1423  1.3284  0.0629
  126OSM    C1F13495  -0.029   4.967   6.981  0.8263  0.0512  0.2449
  126OSM     OF13496  -0.136   4.907   6.968 -0.0709  0.5857 -0.0750
  126OSM    C2F13497  -0.042   5.107   7.030 -0.0659  0.1982  0.2445
  126OSM    H2F13498  -0.132   5.157   6.988  0.2459 -0.8328 -1.8148
  126OSM    H2G13499   0.044   5.159   6.982  0.7806 -2.3331 -1.1891
  126OSM    C3F13500  -0.059   5.131   7.182 -0.3412  0.2438 -0.2596
  126OSM    H3F13501  -0.098   5.233   7.203  2.0170  1.1725 -0.0878
  126OSM    H3G13502   0.043   5.127   7.227 -0.5873 -3.2968  0.2811
  126OSM    C4F13503  -0.145   5.035   7.261 -0.0718 -0.4462  0.8705
  126OSM    H4F13504  -0.152   4.937   7.209  2.0359 -1.0256  1.5621
  126OSM    H4G13505  -0.247   5.078   7.264 -1.3275 -2.3683 -4.3265
  126OSM    C5F13506  -0.107   5.006   7.407 -0.1876  0.3375  0.4375
  126OSM    H5F13507  -0.002   4.973   7.393 -0.3123  0.7710 -1.9424
  126OSM    H5G13508  -0.159   4.916   7.448 -0.1518  0.3555  0.5232
  126OSM    C6F13509  -0.108   5.122   7.511  0.6018  0.3583 -0.0231
  126OSM    H6F13510  -0.216   5.146   7.512  0.4958 -0.0837  1.0420
  126OSM    H6G13511  -0.047   5.207   7.472  2.3190  0.1914  2.0892
  126OSM    C7F13512  -0.052   5.073   7.646 -0.0114  0.1753  0.1074
  126OSM    H7F13513  -0.011   5.162   7.700 -1.5931  0.8096  0.3275
  126OSM    H7G13514   0.023   4.994   7.626  0.1452  0.2322  0.4621
  126OSM    C8F13515  -0.163   5.018   7.735  0.0157 -0.1847 -0.4389
  126OSM    H8F13516  -0.232   4.956   7.672 -2.2872  2.7657 -1.0495
  126OSM    H8G13517  -0.225   5.104   7.767 -2.4731 -1.2118 -2.0959
  126OSM    C9F13518  -0.099   4.947   7.855  0.1065 -0.2240 -0.4577
  126OSM    H9F13519   0.007   4.924   7.838 -0.1087 -1.3881 -0.2500
  126OSM   C10F13520  -0.153   4.910   7.973 -0.2218 -0.0771  0.1163
  126OSM   H10F13521  -0.087   4.862   8.048 -1.5230  0.9360  1.9795
  126OSM   C11F13522  -0.290   4.933   8.024 -0.3470  0.4191 -0.0281
  126OSM   H11F13523  -0.338   4.840   8.062  1.9045 -0.0083  1.9897
  126OSM   H11G13524  -0.353   4.984   7.948 -0.6092  0.2108  0.0461
  126OSM   C12F13525  -0.276   5.034   8.137  0.3010 -0.0356  0.4740
  126OSM   H12F13526  -0.374   5.081   8.162  0.0368 -0.5807  0.4751
  126OSM   H12G13527  -0.236   5.121   8.081 -1.4604 -0.0676 -0.9410
  126OSM   C13F13528  -0.192   5.004   8.264 -0.3385  0.6408 -0.5624
  126OSM   H13F13529  -0.186   5.093   8.329  0.6547 -1.7612  2.8983
  126OSM   H13G13530  -0.088   4.976   8.237  0.0625 -1.3442  2.5787
  126OSM   C14F13531  -0.242   4.881   8.351 -0.3348 -0.4795  0.0994
  126OSM   H14F13532  -0.352   4.891   8.361 -0.0109  0.5763  3.9686
  126OSM   H14G13533  -0.197   4.898   8.451 -1.4054 -2.6094  1.0160
  126OSM   C15F13534  -0.196   4.735   8.310  0.1968 -0.3918 -0.3185
  126OSM   H15F13535  -0.090   4.721   8.342  0.3259 -1.2946 -1.1230
  126OSM   H15G13536  -0.202   4.714   8.201  2.6708 -1.7908 -0.2661
  126OSM   C16F13537  -0.272   4.628   8.388 -0.8278 -0.2100  0.2565
  126OSM   H16F13538  -0.286   4.650   8.496 -0.2531  1.1398  0.0737
  126OSM   H16G13539  -0.221   4.530   8.390 -0.5997 -0.0995 -0.0205
  126OSM   C17F13540  -0.413   4.601   8.343 -0.4975  0.5734 -0.5930
  126OSM   H17F13541  -0.423   4.577   8.235 -0.7226 -3.5366  0.1824
  126OSM   H17G13542  -0.470   4.691   8.375  1.3901  1.1223  1.5255
  126OSM   C18F13543  -0.471   4.479   8.417 -0.6603  1.3518  0.5197
  126OSM   H18F13544  -0.417   4.390   8.378  0.4259  3.0081 -2.0068
  126OSM   H18G13545  -0.577   4.469   8.384  0.1024 -0.5190 -1.6569
  126OSM   H18H13546  -0.467   4.480   8.528 -2.6866 -0.7073  0.6848
  127OSM      N13547   2.822   0.695   5.625  0.7581 -0.0032  0.3739
  127OSM    C1513548   2.791   0.577   5.541  0.2169  0.5108  0.1189
  127OSM   H15A13549   2.872   0.557   5.472 -0.0182  2.5689 -0.8375
  127OSM   H15B13550   2.712   0.598   5.470 -0.0638 -1.6741 -0.2767
  127OSM   H15C13551   2.764   0.486   5.592  0.9092 -0.1069 -0.5902
  127OSM    C1413552   2.930   0.654   5.718  0.5567 -0.3018 -0.3822
  127OSM   H14A13553   2.924   0.551   5.751 -2.1734 -0.4171 -1.0244
  127OSM   H14B13554   2.946   0.720   5.802  0.9057 -1.9475  0.9098
  127OSM   H14C13555   3.017   0.650   5.654 -0.3544 -0.1602 -1.6537
  127OSM    C1313556   2.869   0.816   5.563 -0.4330  0.5300 -0.4225
  127OSM   H13A13557   2.896   0.894   5.633  1.9390  1.6222 -2.3857
  127OSM   H13B13558   2.800   0.853   5.488 -2.3774 -2.1370 -0.0643
  127OSM   H13C13559   2.967   0.801   5.519 -0.5780 -0.5738 -0.3718
  127OSM    C1213560   2.696   0.728   5.704  0.5191 -0.2439 -0.4726
  127OSM   H12A13561   2.676   0.651   5.777  1.9444  0.5159  0.7717
  127OSM   H12B13562   2.614   0.736   5.634 -0.5882  1.7102  0.9161
  127OSM    C1113563   2.701   0.856   5.792  0.6294 -0.2276  0.1633
  127OSM   H11A13564   2.602   0.879   5.837  0.0883  0.0437 -1.1083
  127OSM   H11B13565   2.720   0.946   5.729  0.0733 -0.5469 -0.4821
  127OSM      P13566   2.776   0.821   6.043  0.4263  0.0243  0.0599
  127OSM    O1313567   2.657   0.894   6.099  0.1727 -0.2778 -0.1124
  127OSM    O1413568   2.765   0.674   6.047  0.0939 -0.3862 -0.3726
  127OSM    O1113569   2.902   0.859   6.118 -0.3706 -0.1127 -0.1815
  127OSM    O1213570   2.801   0.861   5.895  0.0634 -0.2257  0.4092
  127OSM    C1S13571   2.916   0.983   6.182  0.0784  0.2719  0.3421
  127OSM    H1S13572   2.835   1.057   6.165  0.9756  1.3726  0.7406
  127OSM    H1T13573   3.007   1.035   6.144 -0.0255  0.1372 -0.0946
  127OSM     NF13574   3.009   1.079   6.393 -0.2398 -0.3471  0.6905
  127OSM    HNF13575   3.093   1.038   6.427  1.1591  0.2687 -1.7865
  127OSM    C2S13576   2.926   0.976   6.341 -0.9968  0.1538 -0.0048
  127OSM    H2S13577   2.825   0.997   6.382 -0.7767 -2.8631  2.4639
  127OSM    C3S13578   2.969   0.839   6.402  0.6673  0.3548  0.6726
  127OSM    H3S13579   3.076   0.817   6.385  0.4440 -0.7827  0.6453
  127OSM     O313580   2.894   0.730   6.358 -0.4155  0.4506 -0.2647
  127OSM    HO313581   2.851   0.771   6.282  1.2435 -0.1654 -1.5883
  127OSM    C4S13582   2.957   0.841   6.549  0.1576  0.0883  0.1923
  127OSM    H4S13583   2.856   0.863   6.587 -0.2032  0.6025 -1.0136
  127OSM    C5S13584   3.058   0.826   6.631 -0.7161  0.3879  0.5211
  127OSM    H5S13585   3.159   0.814   6.589 -0.0862  3.1194  1.0759
  127OSM    C6S13586   3.053   0.841   6.779 -0.3969 -0.8181 -0.4614
  127OSM    H6S13587   2.969   0.910   6.802  0.8970  0.3032  1.1576
  127OSM    H6T13588   3.141   0.898   6.814 -1.2212  0.1987  0.0223
  127OSM    C7S13589   3.014   0.714   6.858  0.2545  0.3444 -0.0050
  127OSM    H7S13590   3.095   0.640   6.842  0.3358  0.5210 -0.4254
  127OSM    H7T13591   2.917   0.671   6.826  0.8883 -0.0778 -1.4443
  127OSM    C8S13592   3.001   0.743   7.014  0.4912 -0.8742  0.3780
  127OSM    H8S13593   2.996   0.647   7.069 -0.1935 -0.6086  0.7891
  127OSM    H8T13594   2.902   0.792   7.027 -0.4152 -2.5282 -0.0947
  127OSM    C9S13595   3.105   0.839   7.074 -0.0972  0.4565  0.1130
  127OSM    H9S13596   3.076   0.946   7.062  2.0114  1.2774  1.6500
  127OSM    H9T13597   3.187   0.835   7.000 -1.4736 -2.2297 -1.4192
  127OSM   C10S13598   3.148   0.801   7.214 -0.3960 -0.5529 -0.5042
  127OSM   H10S13599   3.230   0.726   7.211  0.1111 -0.0656  0.7220
  127OSM   H10T13600   3.062   0.751   7.262 -1.2427  0.4909 -0.9030
  127OSM   C11S13601   3.193   0.920   7.302 -0.0510  0.1724  0.2712
  127OSM   H11S13602   3.157   1.011   7.250  1.0763  2.0309  2.5651
  127OSM   H11T13603   3.304   0.922   7.304 -0.0496  2.8004  0.9987
  127OSM   C12S13604   3.141   0.916   7.450 -0.3567  0.0225 -0.4001
  127OSM   H12S13605   3.031   0.926   7.447 -0.4854 -0.6443  1.0868
  127OSM   H12T13606   3.184   1.000   7.510 -0.2481 -0.7584  0.6405
  127OSM   C13S13607   3.173   0.785   7.525 -0.2252 -0.0717  0.6495
  127OSM   H13S13608   3.268   0.737   7.495 -1.6285 -1.3680 -2.0737
  127OSM   H13T13609   3.099   0.709   7.490 -0.4636  0.1394  0.6882
  127OSM   C14S13610   3.152   0.788   7.681  0.5884 -0.0090  0.9159
  127OSM   H14S13611   3.058   0.846   7.694  1.7946  1.8747  1.6278
  127OSM   H14T13612   3.231   0.852   7.725  0.9903  0.0464  0.1380
  127OSM   C15S13613   3.135   0.652   7.755 -0.2026 -0.6025 -0.8236
  127OSM   H15S13614   3.066   0.589   7.695 -0.3083 -2.1378  0.8439
  127OSM   H15T13615   3.084   0.677   7.850  0.1994  1.6770 -1.1530
  127OSM   C16S13616   3.270   0.578   7.789  0.3456 -0.0643 -0.6145
  127OSM   H16S13617   3.327   0.575   7.693 -0.4565 -1.5644 -1.0569
  127OSM   H16T13618   3.244   0.473   7.813 -1.1898 -0.3451 -3.1610
  127OSM   C17S13619   3.359   0.655   7.882 -0.1949 -1.1351 -0.1662
  127OSM   H17S13620   3.381   0.752   7.834  0.4509 -1.8986 -1.4701
  127OSM   H17T13621   3.457   0.605   7.897 -0.1327 -0.9479  0.0612
  127OSM   C18S13622   3.294   0.698   8.018  0.5709  0.4040  0.4182
  127OSM   H18S13623   3.198   0.750   8.002 -1.6664 -2.8283  2.1229
  127OSM   H18T13624   3.369   0.753   8.080  1.6519  0.9992 -1.3432
  127OSM   H18U13625   3.263   0.608   8.076  1.3504 -0.0187  0.1963
  127OSM    C1F13626   2.987   1.208   6.371 -0.0317 -0.4235  0.4048
  127OSM     OF13627   2.882   1.242   6.314  0.4320 -0.3290  0.1276
  127OSM    C2F13628   3.099   1.307   6.382  0.0770 -0.6086 -0.4826
  127OSM    H2F13629   3.137   1.325   6.279  3.1679 -0.1867  0.6272
  127OSM    H2G13630   3.187   1.276   6.443  0.4154 -1.2885 -1.2763
  127OSM    C3F13631   3.053   1.437   6.460  0.4865 -1.1635 -0.2013
  127OSM    H3F13632   2.973   1.478   6.395  1.7802  0.5770 -0.7580
  127OSM    H3G13633   3.124   1.520   6.478 -0.5454 -0.3916  0.4312
  127OSM    C4F13634   2.976   1.409   6.596  0.0601  0.2672  0.1152
  127OSM    H4F13635   2.890   1.341   6.576 -0.4979  0.2630  2.1973
  127OSM    H4G13636   2.921   1.501   6.623 -1.4058 -0.0888 -1.5483
  127OSM    C5F13637   3.065   1.367   6.719  0.6828 -0.2070 -0.1027
  127OSM    H5F13638   3.111   1.462   6.753 -1.6780  1.2732 -0.7528
  127OSM    H5G13639   3.147   1.300   6.685  1.1807  0.0777  0.5180
  127OSM    C6F13640   2.989   1.298   6.831 -0.3744  0.1932  0.0367
  127OSM    H6F13641   2.920   1.223   6.787  1.5261 -1.8520  0.3739
  127OSM    H6G13642   2.933   1.378   6.884 -2.1793 -0.1879 -1.2296
  127OSM    C7F13643   3.082   1.228   6.942 -0.4075  0.1191 -0.6519
  127OSM    H7F13644   3.154   1.161   6.891  0.2700  0.9539 -0.8187
  127OSM    H7G13645   3.018   1.176   7.017 -0.5312  0.2155 -0.6903
  127OSM    C8F13646   3.166   1.332   7.019  0.1437 -0.5958 -0.4888
  127OSM    H8F13647   3.217   1.397   6.945 -1.4599  0.5132 -0.6719
  127OSM    H8G13648   3.241   1.272   7.075  0.7353  0.3099 -0.2802
  127OSM    C9F13649   3.084   1.420   7.102  0.3260  0.2932  0.1648
  127OSM    H9F13650   3.008   1.475   7.044  0.3593 -0.1823 -0.3404
  127OSM   C10F13651   3.094   1.444   7.234  0.7300  0.4281  0.1008
  127OSM   H10F13652   3.030   1.526   7.270 -1.7752 -0.6061 -1.7105
  127OSM   C11F13653   3.195   1.383   7.332 -0.1031  0.5394  0.1627
  127OSM   H11F13654   3.276   1.456   7.355 -0.0958  0.3164  0.8590
  127OSM   H11G13655   3.235   1.290   7.288 -1.6023 -0.0185 -0.0651
  127OSM   C12F13656   3.133   1.361   7.472  0.8263 -0.4220  0.1950
  127OSM   H12F13657   3.044   1.295   7.471  0.7112 -0.3166  1.6887
  127OSM   H12G13658   3.103   1.459   7.513 -0.6838 -0.2947 -1.1205
  127OSM   C13F13659   3.232   1.301   7.571 -0.2141 -0.0840 -0.4158
  127OSM   H13F13660   3.313   1.375   7.591 -1.5527  0.9678  1.4114
  127OSM   H13G13661   3.267   1.203   7.532  0.7285  0.4620 -0.9856
  127OSM   C14F13662   3.161   1.265   7.701  0.4761  0.4011 -0.2720
  127OSM   H14F13663   3.086   1.188   7.673 -1.9373  2.7276 -0.6360
  127OSM   H14G13664   3.111   1.357   7.740  1.3392  0.4766  0.6923
  127OSM   C15F13665   3.265   1.216   7.797  0.3109  0.0666 -0.0177
  127OSM   H15F13666   3.331   1.302   7.824 -1.5444  1.2737  0.8547
  127OSM   H15G13667   3.335   1.155   7.737 -0.1072 -0.0519 -0.3875
  127OSM   C16F13668   3.217   1.130   7.907 -0.5121 -0.3633 -0.6714
  127OSM   H16F13669   3.168   1.037   7.869 -0.6387 -0.4685 -0.2610
  127OSM   H16G13670   3.153   1.199   7.966 -0.4824  0.3324 -1.4431
  127OSM   C17F13671   3.325   1.086   7.999 -0.5691  0.4202 -0.6191
  127OSM   H17F13672   3.405   1.162   8.014 -0.9073  1.0615 -1.9411
  127OSM   H17G13673   3.382   1.008   7.945  0.9606  0.7397  0.4356
  127OSM   C18F13674   3.271   1.036   8.135 -0.5058  0.3003  0.0115
  127OSM   H18F13675   3.354   0.984   8.187 -0.1849  1.4368  0.6736
  127OSM   H18G13676   3.185   0.966   8.132 -1.3787  1.2894  0.8796
  127OSM   H18H13677   3.235   1.130   8.183 -1.4657  0.9272 -1.8408
  128OSM      N13678   5.685   0.680   5.885  1.1277 -0.2696  0.3173
  128OSM    C1513679   5.612   0.763   5.787  0.0209  0.5651 -0.1730
  128OSM   H15A13680   5.524   0.714   5.746 -0.9485  3.3987 -1.7294
  128OSM   H15B13681   5.669   0.793   5.700 -0.9446  1.5703 -0.4876
  128OSM   H15C13682   5.589   0.857   5.834  0.0893 -0.4188  1.9506
  128OSM    C1413683   5.721   0.552   5.816 -0.0426  0.0698 -0.7758
  128OSM   H14A13684   5.755   0.482   5.890  3.4211  2.4676  0.1857
  128OSM   H14B13685   5.793   0.573   5.737 -0.4871  2.0690 -0.7153
  128OSM   H14C13686   5.638   0.505   5.766 -0.1238  1.0461 -1.6067
  128OSM    C1313687   5.804   0.754   5.925  0.2412 -0.3947 -0.4412
  128OSM   H13A13688   5.864   0.784   5.840  0.8180 -0.5353 -0.0900
  128OSM   H13B13689   5.865   0.680   5.975 -0.5299 -1.5703 -1.2009
  128OSM   H13C13690   5.786   0.843   5.982  2.5448  0.0259 -0.2712
  128OSM    C1213691   5.597   0.658   6.014 -0.7803  0.4126  0.4197
  128OSM   H12A13692   5.509   0.600   5.990  0.2582 -1.4751  0.9358
  128OSM   H12B13693   5.571   0.754   6.055  0.0989  0.8454 -0.0090
  128OSM    C1113694   5.663   0.582   6.131 -0.2111 -1.0381 -0.6875
  128OSM   H11A13695   5.599   0.602   6.219  0.1829 -1.1184 -0.3802
  128OSM   H11B13696   5.767   0.618   6.151 -0.9792 -0.0906  2.0063
  128OSM      P13697   5.540   0.360   6.121 -0.1595  0.1416  0.2072
  128OSM    O1313698   5.435   0.435   6.043 -0.1341  0.2707 -0.1110
  128OSM    O1413699   5.569   0.222   6.077 -0.0363  0.0637  0.3652
  128OSM    O1113700   5.513   0.358   6.276 -0.2851 -0.2124 -0.2676
  128OSM    O1213701   5.672   0.445   6.109 -0.6134 -0.5710 -0.5900
  128OSM    C1S13702   5.614   0.334   6.380  1.0279  0.1400  0.1781
  128OSM    H1S13703   5.696   0.406   6.360  1.1745 -0.2881 -0.8079
  128OSM    H1T13704   5.647   0.230   6.361  0.4797  0.5491 -3.7859
  128OSM     NF13705   5.653   0.340   6.618 -0.0522  0.1777 -0.1624
  128OSM    HNF13706   5.643   0.252   6.664 -1.2443 -0.1327 -0.9631
  128OSM    C2S13707   5.546   0.344   6.523 -0.1510  0.6823  0.4609
  128OSM    H2S13708   5.502   0.446   6.525  0.0570  0.7859  2.4948
  128OSM    C3S13709   5.429   0.242   6.542  0.0252 -0.1415 -0.3267
  128OSM    H3S13710   5.467   0.141   6.569 -0.0089  0.2733  1.3815
  128OSM     O313711   5.339   0.220   6.432 -0.3361 -0.8977  0.4447
  128OSM    HO313712   5.372   0.277   6.363 -1.2674  0.2152  0.8946
  128OSM    C4S13713   5.350   0.279   6.676 -0.7729  0.0796  0.0417
  128OSM    H4S13714   5.398   0.225   6.760 -0.3299 -0.2900 -0.4428
  128OSM    C5S13715   5.233   0.342   6.691  0.0213 -0.5161  0.6240
  128OSM    H5S13716   5.174   0.374   6.604 -1.0230  0.9457  1.8142
  128OSM    C6S13717   5.164   0.352   6.821  0.3290 -0.0567  0.7422
  128OSM    H6S13718   5.094   0.267   6.824 -1.3856  1.1859 -1.4559
  128OSM    H6T13719   5.101   0.444   6.817 -2.9710 -2.2166 -2.4485
  128OSM    C7S13720   5.245   0.337   6.952  0.5114  0.9076 -0.8521
  128OSM    H7S13721   5.327   0.411   6.962 -1.1633  2.5754  2.2900
  128OSM    H7T13722   5.276   0.233   6.973 -0.1356  0.6828 -0.9736
  128OSM    C8S13723   5.148   0.370   7.071 -0.7544  0.7721 -0.3992
  128OSM    H8S13724   5.057   0.308   7.055  0.2525 -0.5623 -1.2068
  128OSM    H8T13725   5.114   0.475   7.082  0.2848  0.9047  2.1815
  128OSM    C9S13726   5.212   0.336   7.207 -0.2700 -0.3286 -0.5664
  128OSM    H9S13727   5.310   0.388   7.214 -0.0413 -0.7943 -0.3263
  128OSM    H9T13728   5.231   0.227   7.207  1.6297 -0.0379  0.8276
  128OSM   C10S13729   5.112   0.375   7.321 -0.2217  0.3018 -0.5043
  128OSM   H10S13730   5.021   0.312   7.315 -1.3884  1.6455  1.7113
  128OSM   H10T13731   5.076   0.479   7.302  1.2699  1.0226  0.3979
  128OSM   C11S13732   5.182   0.375   7.455 -0.0382  0.8231  0.0648
  128OSM   H11S13733   5.289   0.362   7.429 -0.5936  0.0992 -2.1127
  128OSM   H11T13734   5.161   0.284   7.515  0.0950 -1.3447 -2.9254
  128OSM   C12S13735   5.158   0.489   7.556  0.1189  0.0871 -0.1511
  128OSM   H12S13736   5.050   0.516   7.554  0.1739  0.3334  0.1295
  128OSM   H12T13737   5.218   0.580   7.538 -1.2134  0.5323 -2.8890
  128OSM   C13S13738   5.184   0.442   7.696 -0.5020 -0.3574  0.6504
  128OSM   H13S13739   5.292   0.420   7.703 -0.4512  0.3371  2.6560
  128OSM   H13T13740   5.124   0.351   7.718 -1.2535  0.1455  0.7026
  128OSM   C14S13741   5.158   0.562   7.789 -0.0191 -0.2174  0.3978
  128OSM   H14S13742   5.057   0.602   7.765  0.3162  1.3662  1.4721
  128OSM   H14T13743   5.232   0.642   7.769 -0.4839  0.8000  2.3984
  128OSM   C15S13744   5.168   0.521   7.936  0.3580  0.6635  0.4538
  128OSM   H15S13745   5.273   0.491   7.959  0.8512 -0.3314 -2.6948
  128OSM   H15T13746   5.097   0.440   7.961  1.3063 -1.0186 -1.9360
  128OSM   C16S13747   5.146   0.645   8.027  0.1642  0.4060  0.1047
  128OSM   H16S13748   5.037   0.666   8.026 -0.2343 -1.3732  1.0395
  128OSM   H16T13749   5.197   0.726   7.970 -0.3688  0.0234 -0.9526
  128OSM   C17S13750   5.188   0.613   8.167 -0.0040 -0.2604  0.0320
  128OSM   H17S13751   5.297   0.597   8.162  0.0539  0.4507 -2.0280
  128OSM   H17T13752   5.144   0.513   8.187 -0.9397 -0.1560 -1.3469
  128OSM   C18S13753   5.144   0.710   8.279  0.1772 -0.0375  0.6379
  128OSM   H18S13754   5.197   0.807   8.268  1.1869 -0.6956 -0.5803
  128OSM   H18T13755   5.164   0.667   8.379 -0.0154 -1.9297 -0.0950
  128OSM   H18U13756   5.035   0.734   8.270  0.4477  0.7565 -0.7328
  128OSM    C1F13757   5.754   0.423   6.637 -0.7821  0.1810  0.4463
  128OSM     OF13758   5.746   0.538   6.598  0.5370  0.0421  0.6932
  128OSM    C2F13759   5.870   0.366   6.705 -0.4380  0.7052 -0.5152
  128OSM    H2F13760   5.908   0.273   6.660  2.2088  1.0973  0.7253
  128OSM    H2G13761   5.837   0.344   6.809  0.8238  1.2901  0.0274
  128OSM    C3F13762   6.004   0.452   6.715  0.2466  0.1060  0.7852
  128OSM    H3F13763   5.987   0.552   6.761 -1.3987  0.3108 -0.1653
  128OSM    H3G13764   6.042   0.465   6.611 -0.5283  1.1824  0.6140
  128OSM    C4F13765   6.121   0.378   6.787 -0.0191 -0.5509 -0.6230
  128OSM    H4F13766   6.223   0.390   6.743  0.2124  1.4928  0.3299
  128OSM    H4G13767   6.097   0.271   6.798  0.1102 -0.5173 -0.0170
  128OSM    C5F13768   6.140   0.447   6.927  0.0050 -0.0615  0.5837
  128OSM    H5F13769   6.046   0.443   6.987  0.1289 -0.3534  0.7637
  128OSM    H5G13770   6.159   0.555   6.912  0.2144 -0.5056 -3.1520
  128OSM    C6F13771   6.248   0.372   7.005 -0.0645  0.7578  0.1248
  128OSM    H6F13772   6.345   0.375   6.952 -0.2211  2.7161 -0.1177
  128OSM    H6G13773   6.214   0.266   7.008 -1.3194  1.1141 -0.6445
  128OSM    C7F13774   6.269   0.405   7.155  0.5571 -0.1585 -0.2787
  128OSM    H7F13775   6.184   0.462   7.197  0.6873 -1.1425  1.4219
  128OSM    H7G13776   6.349   0.481   7.163  0.4828 -0.1681  0.7467
  128OSM    C8F13777   6.310   0.282   7.246  0.0070 -0.0427 -0.0554
  128OSM    H8F13778   6.397   0.237   7.195 -0.2354 -0.1915 -0.3400
  128OSM    H8G13779   6.228   0.207   7.258  1.4131 -1.3958  1.7163
  128OSM    C9F13780   6.361   0.323   7.379 -0.0338 -0.2149  0.7137
  128OSM    H9F13781   6.421   0.415   7.374  2.9718 -2.0077  1.3437
  128OSM   C10F13782   6.342   0.262   7.498 -0.6215 -0.2561  0.1917
  128OSM   H10F13783   6.384   0.304   7.591 -2.5228 -3.5345  2.7400
  128OSM   C11F13784   6.284   0.132   7.521 -0.1555 -0.9544 -0.0993
  128OSM   H11F13785   6.362   0.056   7.546 -0.2274 -0.0740  3.3459
  128OSM   H11G13786   6.245   0.086   7.427 -2.0274 -2.1842  1.2097
  128OSM   C12F13787   6.178   0.132   7.632  0.5356  0.0711  0.1840
  128OSM   H12F13788   6.133   0.030   7.629  0.8075 -0.1199  1.7970
  128OSM   H12G13789   6.112   0.218   7.610  1.1763  0.3058 -0.8843
  128OSM   C13F13790   6.236   0.155   7.766  0.4781  0.4757 -0.4881
  128OSM   H13F13791   6.154   0.150   7.841  1.0429 -1.0569  0.0524
  128OSM   H13G13792   6.284   0.255   7.759  1.7170 -0.2003 -2.5324
  128OSM   C14F13793   6.351   0.062   7.819 -0.3941  0.1373  0.3888
  128OSM   H14F13794   6.452   0.072   7.774 -0.8267  0.9493 -0.4298
  128OSM   H14G13795   6.313  -0.039   7.791 -2.8729  0.7842  1.1412
  128OSM   C15F13796   6.375   0.073   7.966 -0.5509  0.2990 -0.0495
  128OSM   H15F13797   6.279   0.091   8.019 -0.6066 -1.9630  0.7551
  128OSM   H15G13798   6.426   0.169   7.989 -0.6546  0.2032  0.5836
  128OSM   C16F13799   6.437  -0.046   8.036  0.2941 -0.1989  0.0474
  128OSM   H16F13800   6.532  -0.058   7.979  0.0670 -0.0192 -0.3762
  128OSM   H16G13801   6.367  -0.132   8.027 -0.5356  0.5133 -0.4521
  128OSM   C17F13802   6.489  -0.034   8.172  0.4406 -0.5949 -0.1316
  128OSM   H17F13803   6.402   0.011   8.225  1.6354  0.8128  0.7154
  128OSM   H17G13804   6.576   0.035   8.179  0.2503 -0.2984 -0.5725
  128OSM   C18F13805   6.522  -0.173   8.229  0.4838  0.2442 -0.0213
  128OSM   H18F13806   6.433  -0.236   8.209  0.3117  0.9629 -1.6855
  128OSM   H18G13807   6.552  -0.166   8.336 -0.1265  2.3038  0.0698
  128OSM   H18H13808   6.614  -0.209   8.179  0.9706  2.0912 -0.5241
  129OSM      N13809   2.546   2.004   6.101  0.2877 -0.2250 -0.3595
  129OSM    C1513810   2.401   2.039   6.073 -0.5013 -0.1040  0.8614
  129OSM   H15A13811   2.388   2.145   6.094 -1.0791  0.1869 -0.8240
  129OSM   H15B13812   2.342   1.979   6.141 -1.3636 -0.7148 -0.3925
  129OSM   H15C13813   2.378   2.035   5.968  0.7166 -0.3486  0.5961
  129OSM    C1413814   2.564   1.865   6.054  0.3436 -0.5062  0.5294
  129OSM   H14A13815   2.508   1.845   5.964 -2.3919  0.9998  1.7645
  129OSM   H14B13816   2.519   1.798   6.126 -0.2066 -0.4133  0.2739
  129OSM   H14C13817   2.669   1.846   6.035  0.2266  0.1066 -0.8195
  129OSM    C1313818   2.632   2.094   6.027  0.5180 -0.4585 -0.4519
  129OSM   H13A13819   2.732   2.052   6.029  1.6046  2.0175  0.3331
  129OSM   H13B13820   2.640   2.188   6.078 -0.4088 -1.0994  0.9416
  129OSM   H13C13821   2.604   2.104   5.923 -0.0288  0.3102 -0.2324
  129OSM    C1213822   2.579   2.028   6.251  0.6234 -0.2892  0.2050
  129OSM   H12A13823   2.685   2.031   6.274  0.6974  0.9184 -0.2168
  129OSM   H12B13824   2.520   1.959   6.309 -1.3488 -0.7903 -2.2485
  129OSM    C1113825   2.524   2.165   6.306 -0.4709 -0.2732 -0.1072
  129OSM   H11A13826   2.544   2.176   6.415  0.7883 -0.3496 -0.3086
  129OSM   H11B13827   2.415   2.156   6.291 -0.8280  0.7833  1.5446
  129OSM      P13828   2.703   2.368   6.294 -0.0854 -0.0004  0.4190
  129OSM    O1313829   2.748   2.471   6.197 -0.4266  0.0404 -0.0202
  129OSM    O1413830   2.662   2.417   6.425  0.4010 -0.6224  0.1003
  129OSM    O1113831   2.806   2.250   6.312 -0.4253 -0.3386  0.8837
  129OSM    O1213832   2.581   2.280   6.245 -0.4254 -0.4685  0.5432
  129OSM    C1S13833   2.943   2.265   6.344  0.2162 -0.2107 -0.3968
  129OSM    H1S13834   2.979   2.358   6.293  0.1285 -0.3286 -0.6789
  129OSM    H1T13835   2.993   2.172   6.310  0.0766 -0.5087  0.2016
  129OSM     NF13836   3.112   2.340   6.513 -0.1346  0.5023  0.2452
  129OSM    HNF13837   3.183   2.271   6.528 -0.7575 -0.6537 -1.7369
  129OSM    C2S13838   2.974   2.281   6.496 -0.2250 -0.8876 -0.1173
  129OSM    H2S13839   2.901   2.356   6.532  0.4587  1.1893 -2.7688
  129OSM    C3S13840   2.946   2.153   6.571 -0.1476 -0.2827 -0.5725
  129OSM    H3S13841   3.011   2.077   6.522 -1.1680 -0.9045 -0.9858
  129OSM     O313842   2.812   2.106   6.549 -0.5695  0.2423  0.6192
  129OSM    HO313843   2.767   2.159   6.482  0.7285 -1.7694 -2.0095
  129OSM    C4S13844   2.974   2.164   6.720 -0.1906 -0.2208  0.6387
  129OSM    H4S13845   2.910   2.240   6.768  0.8850 -0.7953  3.1514
  129OSM    C5S13846   3.068   2.109   6.799  0.4549 -0.4562  0.5676
  129OSM    H5S13847   3.132   2.027   6.762 -0.3325  0.1463 -2.3723
  129OSM    C6S13848   3.076   2.130   6.944 -0.0987  0.8034 -0.1308
  129OSM    H6S13849   3.030   2.221   6.989 -3.1212 -0.8487  0.3635
  129OSM    H6T13850   3.184   2.129   6.970 -0.1492 -1.4617  0.2298
  129OSM    C7S13851   3.021   2.006   7.013  0.3596  0.1508  0.0095
  129OSM    H7S13852   3.066   1.912   6.974  0.0204  0.7320 -1.9004
  129OSM    H7T13853   2.913   2.003   6.988 -0.3813 -1.1696  3.0283
  129OSM    C8S13854   3.045   2.022   7.166 -0.2443  0.2347 -0.3367
  129OSM    H8S13855   3.024   2.123   7.207 -0.4330 -0.4702  1.4201
  129OSM    H8T13856   3.155   2.013   7.178 -0.1153  0.6798 -1.1369
  129OSM    C9S13857   2.991   1.898   7.238  0.0015  0.2890  0.6297
  129OSM    H9S13858   3.021   1.802   7.191 -1.7823 -0.8798  1.7317
  129OSM    H9T13859   2.881   1.914   7.240  0.0971  0.9312  1.0605
  129OSM   C10S13860   3.020   1.892   7.389 -0.0117  0.2425 -0.0428
  129OSM   H10S13861   2.983   1.983   7.440 -0.5449  0.1885 -0.3269
  129OSM   H10T13862   3.130   1.888   7.402  0.1717 -3.9710 -1.3999
  129OSM   C11S13863   2.958   1.777   7.471  0.0153 -0.8095 -0.4290
  129OSM   H11S13864   2.957   1.679   7.420 -0.6176 -0.3880 -1.2495
  129OSM   H11T13865   2.853   1.812   7.466 -0.1860 -1.3910 -0.2898
  129OSM   C12S13866   2.989   1.775   7.621  0.0132  0.5802 -0.7753
  129OSM   H12S13867   2.981   1.876   7.666  3.0488  0.6235 -0.0952
  129OSM   H12T13868   3.096   1.746   7.635 -0.1534 -0.4881 -1.5690
  129OSM   C13S13869   2.908   1.666   7.688  0.7233  0.4996 -0.2051
  129OSM   H13S13870   2.951   1.570   7.654 -0.5941 -0.2856  0.3041
  129OSM   H13T13871   2.803   1.672   7.654  1.2142  1.7805 -1.6300
  129OSM   C14S13872   2.924   1.675   7.841 -0.0574  0.0116  0.2433
  129OSM   H14S13873   2.886   1.772   7.880  0.7730  0.2230  0.5325
  129OSM   H14T13874   3.034   1.681   7.855  0.1380 -0.0797 -1.1246
  129OSM   C15S13875   2.879   1.556   7.930  0.1076 -0.5355  0.0967
  129OSM   H15S13876   2.935   1.467   7.896  1.3400  0.7808 -1.5124
  129OSM   H15T13877   2.770   1.538   7.917 -0.1548  0.7920  0.2911
  129OSM   C16S13878   2.897   1.591   8.077 -0.2021  0.2166  0.0891
  129OSM   H16S13879   2.831   1.522   8.134 -0.9728  1.2579  0.4897
  129OSM   H16T13880   2.854   1.691   8.101 -1.3455 -0.2413  0.0088
  129OSM   C17S13881   3.042   1.577   8.138  0.0911 -0.2715  0.0399
  129OSM   H17S13882   3.036   1.610   8.244  2.7269  0.0414  0.1503
  129OSM   H17T13883   3.113   1.645   8.086 -0.7461  2.0541  1.7941
  129OSM   C18S13884   3.092   1.436   8.154  0.7485 -0.0662  0.7399
  129OSM   H18S13885   3.185   1.438   8.215  1.7186 -0.2095 -0.6927
  129OSM   H18T13886   3.130   1.407   8.054 -0.1476  0.1069  0.3408
  129OSM   H18U13887   3.039   1.357   8.210  1.5728 -1.1169  0.0684
  129OSM    C1F13888   3.160   2.459   6.479  0.0371  0.4221 -0.2924
  129OSM     OF13889   3.083   2.553   6.458  0.2329 -0.2114 -0.2795
  129OSM    C2F13890   3.311   2.475   6.474 -0.2582  0.3667 -0.0325
  129OSM    H2F13891   3.332   2.519   6.374 -0.9726  1.2303  0.1795
  129OSM    H2G13892   3.368   2.382   6.494  1.6114  1.2456 -0.9988
  129OSM    C3F13893   3.355   2.586   6.583  0.8769  0.0635  0.5581
  129OSM    H3F13894   3.308   2.683   6.555 -2.2518 -1.7877 -1.1416
  129OSM    H3G13895   3.464   2.600   6.568  0.7087  0.3352 -0.5020
  129OSM    C4F13896   3.304   2.552   6.723 -0.1707 -0.3051 -0.0799
  129OSM    H4F13897   3.194   2.541   6.720 -0.3021 -0.2666  2.6373
  129OSM    H4G13898   3.332   2.641   6.783  1.5410 -0.8999  0.0687
  129OSM    C5F13899   3.386   2.429   6.771  0.3273  0.3147  0.0408
  129OSM    H5F13900   3.491   2.443   6.739 -0.0001  1.2514 -0.6498
  129OSM    H5G13901   3.352   2.330   6.733  1.4002  1.0874 -3.2231
  129OSM    C6F13902   3.387   2.422   6.926  0.5959 -0.1004  0.0340
  129OSM    H6F13903   3.284   2.401   6.962  0.5373  0.3362  0.1273
  129OSM    H6G13904   3.417   2.517   6.974  0.5337 -0.7752  1.4805
  129OSM    C7F13905   3.472   2.296   6.952  0.7577 -0.4687 -0.4897
  129OSM    H7F13906   3.579   2.323   6.944  1.0061 -1.6766 -1.4979
  129OSM    H7G13907   3.436   2.224   6.875 -0.6037  0.6553 -0.9426
  129OSM    C8F13908   3.444   2.236   7.097  0.5895 -0.6980 -0.4081
  129OSM    H8F13909   3.336   2.240   7.121  1.1825  0.5792  2.6706
  129OSM    H8G13910   3.489   2.314   7.163 -0.8099 -0.0340 -0.2108
  129OSM    C9F13911   3.501   2.100   7.115  0.0527  0.5522 -0.7305
  129OSM    H9F13912   3.458   2.032   7.039  0.1390  0.0003 -0.2898
  129OSM   C10F13913   3.584   2.047   7.209 -0.0678 -0.8240  0.0506
  129OSM   H10F13914   3.620   1.943   7.210  0.5505 -0.6097  0.7553
  129OSM   C11F13915   3.640   2.120   7.322  0.0746  0.0361 -0.0078
  129OSM   H11F13916   3.623   2.230   7.322  2.3233  0.4490 -0.7078
  129OSM   H11G13917   3.749   2.099   7.320 -0.0824 -0.8158 -0.0313
  129OSM   C12F13918   3.579   2.070   7.454  0.1866 -0.9037 -0.0390
  129OSM   H12F13919   3.615   2.129   7.541 -1.7472 -1.7492  1.4383
  129OSM   H12G13920   3.599   1.964   7.482  2.7504 -0.2292  0.9794
  129OSM   C13F13921   3.430   2.098   7.448 -0.2717 -0.0845 -0.2966
  129OSM   H13F13922   3.384   2.023   7.381  0.2090 -0.1848 -0.5218
  129OSM   H13G13923   3.409   2.197   7.403  0.3640  1.1397  1.9249
  129OSM   C14F13924   3.357   2.081   7.587 -0.2319  0.1375 -0.2224
  129OSM   H14F13925   3.358   1.975   7.619  1.9416  0.3232  0.4850
  129OSM   H14G13926   3.249   2.105   7.579  0.0124  2.0998  1.5878
  129OSM   C15F13927   3.411   2.173   7.704 -0.3951 -0.0767 -0.3471
  129OSM   H15F13928   3.416   2.283   7.691  2.6683 -0.2049 -0.9477
  129OSM   H15G13929   3.515   2.144   7.730 -0.1375  0.2216 -1.0198
  129OSM   C16F13930   3.323   2.162   7.833  0.5020 -0.3381 -0.3375
  129OSM   H16F13931   3.301   2.057   7.862  1.1544 -0.1133  1.1262
  129OSM   H16G13932   3.224   2.204   7.806 -1.2076 -2.1448  2.6149
  129OSM   C17F13933   3.398   2.215   7.945 -0.2126  0.1572 -0.6372
  129OSM   H17F13934   3.444   2.308   7.907 -1.2520  1.1859  0.5311
  129OSM   H17G13935   3.481   2.149   7.979  0.4000  0.9813 -0.5211
  129OSM   C18F13936   3.317   2.247   8.070  0.3419  0.3528 -0.3578
  129OSM   H18F13937   3.245   2.165   8.094  2.9483 -1.8985  0.3541
  129OSM   H18G13938   3.263   2.343   8.064  0.1638  0.2649 -0.1579
  129OSM   H18H13939   3.385   2.250   8.158 -0.9640 -1.6373  0.7950
  130OSM      N13940   5.215   0.033   6.068 -0.1557 -0.3281 -0.1879
  130OSM    C1513941   5.159   0.174   6.069 -0.0318 -0.6475  0.7159
  130OSM   H15A13942   5.082   0.179   6.145  0.5229 -2.3543  1.4581
  130OSM   H15B13943   5.123   0.186   5.968  3.3153  2.2850 -0.3071
  130OSM   H15C13944   5.241   0.244   6.066  0.2577 -1.0087 -0.1390
  130OSM    C1413945   5.105  -0.062   6.029  0.3927  0.2587 -0.7661
  130OSM   H14A13946   5.149  -0.160   6.016 -1.3320 -0.8003  0.8720
  130OSM   H14B13947   5.047  -0.035   5.942 -1.8545 -0.8382  0.3122
  130OSM   H14C13948   5.033  -0.078   6.108 -2.6831  0.7288 -3.2830
  130OSM    C1313949   5.328   0.021   5.968 -0.3516  0.2482 -0.0075
  130OSM   H13A13950   5.368  -0.079   5.964 -2.2006 -0.6395  2.0150
  130OSM   H13B13951   5.412   0.082   5.996 -1.9316  2.4108  0.2914
  130OSM   H13C13952   5.290   0.052   5.871 -0.3212  2.9426  0.7628
  130OSM    C1213953   5.254  -0.006   6.210  0.5490  0.4377 -0.0907
  130OSM   H12A13954   5.169   0.003   6.276  2.3183  0.6060  2.3017
  130OSM   H12B13955   5.319   0.063   6.262 -0.6730 -1.0092  3.6840
  130OSM    C1113956   5.325  -0.138   6.257 -0.5451 -0.4771 -0.4165
  130OSM   H11A13957   5.330  -0.128   6.367 -0.2068  0.7262 -0.5228
  130OSM   H11B13958   5.431  -0.163   6.235 -0.9472 -1.3672 -1.4573
  130OSM      P13959   5.117  -0.303   6.294  0.0995  0.0945 -0.0429
  130OSM    O1313960   5.016  -0.198   6.293 -0.1822 -0.4079 -0.1837
  130OSM    O1413961   5.089  -0.435   6.232  0.0754  0.1489  0.4116
  130OSM    O1113962   5.162  -0.324   6.443 -0.5453 -0.0599  0.1196
  130OSM    O1213963   5.243  -0.252   6.222 -0.1837 -0.4476 -0.7963
  130OSM    C1S13964   5.260  -0.428   6.484 -0.5050  0.0108  0.4094
  130OSM    H1S13965   5.360  -0.415   6.437 -0.7952  2.2378  0.2887
  130OSM    H1T13966   5.219  -0.522   6.440  0.4934 -2.4164  4.1965
  130OSM     NF13967   5.375  -0.532   6.670  0.1012  0.2985 -0.1825
  130OSM    HNF13968   5.352  -0.614   6.721  1.1600 -1.3888 -2.2883
  130OSM    C2S13969   5.263  -0.455   6.635  0.4363  0.1344 -0.0741
  130OSM    H2S13970   5.283  -0.358   6.686 -0.7441  0.3882 -0.0770
  130OSM    C3S13971   5.127  -0.513   6.688 -0.4364  0.3078  0.7739
  130OSM    H3S13972   5.116  -0.616   6.646  1.5292  0.4318 -0.1306
  130OSM     O313973   5.007  -0.450   6.636 -0.0779  0.4780 -0.2633
  130OSM    HO313974   5.041  -0.385   6.573 -1.7360 -1.1935 -3.0912
  130OSM    C4S13975   5.120  -0.511   6.840  0.7960 -0.4592  0.1957
  130OSM    H4S13976   5.108  -0.411   6.883  1.0348 -0.0568 -0.6381
  130OSM    C5S13977   5.106  -0.621   6.916  0.0474  1.0250 -0.4834
  130OSM    H5S13978   5.090  -0.722   6.876 -1.6923 -1.3460  5.2567
  130OSM    C6S13979   5.121  -0.616   7.064 -0.0941 -0.6214  0.1392
  130OSM    H6S13980   5.183  -0.527   7.087  1.6278 -1.3715 -1.2985
  130OSM    H6T13981   5.195  -0.693   7.093  2.9115  1.1478 -2.2155
  130OSM    C7S13982   4.991  -0.624   7.135 -0.0840 -0.2189 -0.4745
  130OSM    H7S13983   4.940  -0.716   7.098  0.1635 -0.1357 -1.0356
  130OSM    H7T13984   4.918  -0.544   7.112  0.2482  1.1170  2.6284
  130OSM    C8S13985   5.013  -0.624   7.286  0.0834 -0.2088 -0.0944
  130OSM    H8S13986   5.080  -0.539   7.310  1.3249 -0.5934 -1.9562
  130OSM    H8T13987   5.071  -0.717   7.302  0.7753 -0.0777 -1.6096
  130OSM    C9S13988   4.893  -0.618   7.383  0.2459 -0.8807 -0.0659
  130OSM    H9S13989   4.813  -0.694   7.370  0.0319 -0.3475 -2.4034
  130OSM    H9T13990   4.854  -0.516   7.360  1.1461 -1.1924 -3.6337
  130OSM   C10S13991   4.943  -0.617   7.528  0.2147  0.5174 -0.3185
  130OSM   H10S13992   5.029  -0.549   7.543 -0.0934  0.2349  4.3084
  130OSM   H10T13993   4.996  -0.710   7.558 -0.5369  0.0275 -0.4618
  130OSM   C11S13994   4.839  -0.571   7.628  0.1064  0.0794  0.6152
  130OSM   H11S13995   4.762  -0.651   7.632  0.9392 -0.8333 -0.8780
  130OSM   H11T13996   4.790  -0.477   7.596 -0.3342  0.0806  1.2609
  130OSM   C12S13997   4.882  -0.556   7.775  0.1653  0.0256  0.1426
  130OSM   H12S13998   4.933  -0.653   7.790  0.3362 -0.5979 -3.5432
  130OSM   H12T13999   4.789  -0.546   7.834  0.3212  0.7903  0.2722
  130OSM   C13S14000   4.979  -0.443   7.798 -0.0890 -0.3257  0.7190
  130OSM   H13S14001   4.947  -0.356   7.737 -3.8375 -0.8659  1.6556
  130OSM   H13T14002   5.079  -0.477   7.764 -0.5741  0.7205 -2.0698
  130OSM   C14S14003   4.980  -0.395   7.946 -0.2064 -0.0582 -0.0838
  130OSM   H14S14004   4.885  -0.345   7.974  1.3473  2.1924  1.4732
  130OSM   H14T14005   5.063  -0.322   7.961 -0.4128  0.8824 -2.9065
  130OSM   C15S14006   5.005  -0.507   8.051  0.0983  0.3349  1.1852
  130OSM   H15S14007   5.107  -0.549   8.039  0.0712  0.7765 -0.9085
  130OSM   H15T14008   4.933  -0.592   8.042  0.5942  0.0037  0.1557
  130OSM   C16S14009   4.989  -0.456   8.194  0.9658  0.0586  0.7162
  130OSM   H16S14010   4.888  -0.411   8.203  0.2960 -0.9447 -1.2291
  130OSM   H16T14011   5.055  -0.367   8.208  0.1181  0.8332 -0.0823
  130OSM   C17S14012   5.018  -0.553   8.300 -0.2484  0.5927 -0.7025
  130OSM   H17S14013   5.122  -0.591   8.287 -0.5207 -1.1376  1.5824
  130OSM   H17T14014   4.960  -0.648   8.296  0.6920 -0.0214 -0.1045
  130OSM   C18S14015   4.990  -0.495   8.434 -0.4070  0.2584  0.4436
  130OSM   H18S14016   5.000  -0.572   8.514 -0.6711 -1.9919 -1.5674
  130OSM   H18T14017   4.891  -0.445   8.438  0.2319  1.8502 -1.6079
  130OSM   H18U14018   5.062  -0.412   8.451 -1.7364  1.3076  1.1097
  130OSM    C1F14019   5.506  -0.504   6.648  0.3982 -0.7872 -0.0266
  130OSM     OF14020   5.537  -0.395   6.589 -0.1346  0.4520 -0.3362
  130OSM    C2F14021   5.597  -0.610   6.689  0.1310 -0.5358 -0.5369
  130OSM    H2F14022   5.690  -0.600   6.630  1.4967 -2.6504  1.1310
  130OSM    H2G14023   5.541  -0.703   6.666 -2.2148  0.9827 -1.3736
  130OSM    C3F14024   5.658  -0.599   6.833 -0.0880 -0.1967 -0.3721
  130OSM    H3F14025   5.739  -0.529   6.859 -1.3764  2.0079 -1.9497
  130OSM    H3G14026   5.699  -0.702   6.847 -0.0424 -0.0005  1.0241
  130OSM    C4F14027   5.545  -0.576   6.937  0.2286 -0.2292  0.0367
  130OSM    H4F14028   5.464  -0.651   6.926  1.9383 -2.1827  0.2783
  130OSM    H4G14029   5.502  -0.474   6.923 -0.5634 -0.6756 -0.8930
  130OSM    C5F14030   5.593  -0.583   7.085  0.0429 -0.5863 -0.3004
  130OSM    H5F14031   5.693  -0.535   7.092 -0.6493  0.6294  3.6452
  130OSM    H5G14032   5.618  -0.684   7.123  1.2740  0.0591  0.6830
  130OSM    C6F14033   5.508  -0.500   7.182 -0.2458  0.1061 -0.6344
  130OSM    H6F14034   5.417  -0.562   7.201 -1.0130  1.4657  0.3072
  130OSM    H6G14035   5.487  -0.402   7.134  2.3821  0.6795 -0.7645
  130OSM    C7F14036   5.564  -0.479   7.319 -0.9200  0.3375  0.0207
  130OSM    H7F14037   5.672  -0.455   7.304  0.4519 -2.3665  3.9002
  130OSM    H7G14038   5.572  -0.577   7.370  3.7353  0.4668 -0.0631
  130OSM    C8F14039   5.501  -0.374   7.403  0.1618  0.5454 -0.7336
  130OSM    H8F14040   5.456  -0.296   7.337 -2.4857 -0.3915 -0.1526
  130OSM    H8G14041   5.587  -0.340   7.465 -0.0370  0.5805 -0.4758
  130OSM    C9F14042   5.397  -0.428   7.501  0.8425 -0.2203  0.1474
  130OSM    H9F14043   5.359  -0.526   7.468  0.2174  0.2649 -0.6209
  130OSM   C10F14044   5.356  -0.369   7.615  0.4871 -0.2517  0.1518
  130OSM   H10F14045   5.281  -0.408   7.686 -0.9821  4.0497  1.2896
  130OSM   C11F14046   5.414  -0.243   7.677 -0.0026  0.0578 -0.4310
  130OSM   H11F14047   5.331  -0.170   7.686  0.9732  1.3763 -1.6624
  130OSM   H11G14048   5.486  -0.186   7.614  0.1378  1.2372  0.7468
  130OSM   C12F14049   5.478  -0.279   7.815  0.0393 -0.4977 -0.4181
  130OSM   H12F14050   5.510  -0.183   7.860  2.3829 -1.9284  1.1747
  130OSM   H12G14051   5.572  -0.336   7.797  0.4341 -0.1661  0.5349
  130OSM   C13F14052   5.395  -0.348   7.928  0.1472  0.1545  0.5109
  130OSM   H13F14053   5.346  -0.443   7.899  1.4474  0.2172 -2.1374
  130OSM   H13G14054   5.318  -0.270   7.949 -0.0008 -0.0349  0.6789
  130OSM   C14F14055   5.473  -0.377   8.057 -0.1382  0.8508 -0.1717
  130OSM   H14F14056   5.519  -0.478   8.051  1.5313  1.5757 -0.1966
  130OSM   H14G14057   5.389  -0.391   8.129 -0.8508  2.2428 -0.7001
  130OSM   C15F14058   5.567  -0.267   8.109  0.0587 -0.3394  0.0064
  130OSM   H15F14059   5.524  -0.164   8.109  1.8677  0.4604 -0.3992
  130OSM   H15G14060   5.665  -0.273   8.057  0.9018  2.1580  1.1454
  130OSM   C16F14061   5.600  -0.279   8.259 -0.4280 -0.2532 -0.0840
  130OSM   H16F14062   5.681  -0.217   8.303 -1.9515 -0.8263  3.8876
  130OSM   H16G14063   5.626  -0.386   8.267  1.9620  0.2550 -0.2898
  130OSM   C17F14064   5.479  -0.255   8.355 -0.0240  0.6249  0.3753
  130OSM   H17F14065   5.481  -0.315   8.449 -0.6263  0.9798  0.6148
  130OSM   H17G14066   5.385  -0.280   8.301 -0.7128  0.8223  1.4541
  130OSM   C18F14067   5.479  -0.110   8.400 -0.0463 -0.4496 -0.6355
  130OSM   H18F14068   5.398  -0.083   8.471  1.8223  0.0489  1.3905
  130OSM   H18G14069   5.456  -0.055   8.306 -1.2497 -1.0556 -0.7209
  130OSM   H18H14070   5.575  -0.073   8.442  0.2896  0.6431 -2.2426
  131OSM      N14071   0.585   1.914   6.280  0.1160  0.3656  0.0380
  131OSM    C1514072   0.515   1.808   6.369  0.0486  0.0901  0.2968
  131OSM   H15A14073   0.473   1.729   6.309 -0.9605  0.2667  0.7546
  131OSM   H15B14074   0.427   1.853   6.412  0.0987  0.7066 -0.2462
  131OSM   H15C14075   0.583   1.772   6.446 -0.0170 -1.6301 -0.3913
  131OSM    C1414076   0.516   1.937   6.154 -0.4295  0.7452 -0.5608
  131OSM   H14A14077   0.586   1.960   6.075 -0.2746  0.8251 -0.4006
  131OSM   H14B14078   0.441   2.015   6.159 -1.4011 -0.0699 -1.6254
  131OSM   H14C14079   0.469   1.848   6.114  0.5438 -0.5935  1.1416
  131OSM    C1314080   0.592   2.037   6.362  0.3493  0.3194  0.5632
  131OSM   H13A14081   0.637   2.120   6.308  0.6924  0.3410  0.8795
  131OSM   H13B14082   0.655   2.019   6.447 -1.5543 -0.3670  1.8777
  131OSM   H13C14083   0.493   2.062   6.396 -0.2342 -0.0384 -0.7948
  131OSM    C1214084   0.729   1.862   6.249  0.3481 -0.6848 -0.2699
  131OSM   H12A14085   0.714   1.793   6.167 -4.2004  1.4564 -1.5643
  131OSM   H12B14086   0.758   1.803   6.335  0.0321 -0.6611 -0.1447
  131OSM    C1114087   0.839   1.963   6.206  0.3769 -0.1177 -0.5214
  131OSM   H11A14088   0.935   1.906   6.201  0.4572 -0.0638  0.3006
  131OSM   H11B14089   0.858   2.043   6.281  1.4965  1.3142 -2.2537
  131OSM      P14090   0.891   2.041   5.961  0.4231  0.1085 -0.1673
  131OSM    O1314091   0.861   1.923   5.871 -0.1583 -0.4516 -0.1479
  131OSM    O1414092   0.879   2.175   5.901 -0.0917 -0.1370 -0.4054
  131OSM    O1114093   1.041   2.017   6.014  0.2576  0.0451  0.5127
  131OSM    O1214094   0.810   2.037   6.090 -0.1261  0.0585 -0.0312
  131OSM    C1S14095   1.110   2.125   6.088 -0.1792 -1.1379  0.1925
  131OSM    H1S14096   1.031   2.183   6.141  0.5858  2.8382 -2.5104
  131OSM    H1T14097   1.160   2.196   6.019 -3.0868  0.1555 -0.7644
  131OSM     NF14098   1.289   2.135   6.259  0.2541  0.4484 -0.1758
  131OSM    HNF14099   1.385   2.158   6.242  0.0261  1.7050  0.1174
  131OSM    C2S14100   1.219   2.048   6.165  0.2100 -0.3459  0.0483
  131OSM    H2S14101   1.167   1.973   6.228 -2.6074  2.1660  0.9598
  131OSM    C3S14102   1.327   1.979   6.069  0.1902  0.6053 -0.3009
  131OSM    H3S14103   1.372   2.052   5.999  1.0114  0.2727 -0.1291
  131OSM     O314104   1.269   1.878   5.987 -0.3708 -0.1510 -0.9444
  131OSM    HO314105   1.176   1.902   5.992  0.0735  1.4688  1.0482
  131OSM    C4S14106   1.433   1.901   6.148  0.7511 -1.0964  0.5562
  131OSM    H4S14107   1.388   1.809   6.187 -2.0052  0.2884  0.9072
  131OSM    C5S14108   1.560   1.933   6.181  0.0959 -0.3019 -0.4960
  131OSM    H5S14109   1.602   2.026   6.138  0.1037 -0.2960 -0.4750
  131OSM    C6S14110   1.666   1.852   6.257 -0.4006  0.0327 -0.1745
  131OSM    H6S14111   1.761   1.853   6.199 -0.9390 -0.9707 -1.1391
  131OSM    H6T14112   1.631   1.749   6.282 -2.5930  0.7648  0.0296
  131OSM    C7S14113   1.710   1.914   6.389  0.5754 -0.3128 -0.5627
  131OSM    H7S14114   1.733   2.022   6.375 -2.5142  0.4128 -0.6685
  131OSM    H7T14115   1.795   1.861   6.438  0.9955  2.2973  1.8365
  131OSM    C8S14116   1.610   1.893   6.504  0.1593  0.0420 -0.3930
  131OSM    H8S14117   1.602   1.782   6.515  2.1120 -0.2554 -1.6157
  131OSM    H8T14118   1.510   1.938   6.483 -0.1734 -1.1122 -1.4180
  131OSM    C9S14119   1.661   1.958   6.636 -0.0829  0.4724  0.4043
  131OSM    H9S14120   1.630   2.065   6.628  1.3367  1.0130  1.7308
  131OSM    H9T14121   1.770   1.936   6.634 -0.3798 -1.7011  2.6447
  131OSM   C10S14122   1.599   1.902   6.762  0.1827 -0.2574 -0.4841
  131OSM   H10S14123   1.640   1.800   6.779 -0.5619 -0.0659  3.2620
  131OSM   H10T14124   1.489   1.892   6.748  0.1135  1.3406 -1.2427
  131OSM   C11S14125   1.624   1.986   6.884  0.6924 -0.4524 -0.4934
  131OSM   H11S14126   1.572   2.083   6.874  1.1789 -0.1224  0.1032
  131OSM   H11T14127   1.731   2.011   6.899  0.3143  0.3971  0.9102
  131OSM   C12S14128   1.574   1.906   7.010 -0.4689 -0.5753  0.2932
  131OSM   H12S14129   1.631   1.812   7.024  0.1083  0.0268  2.4105
  131OSM   H12T14130   1.469   1.879   6.989 -0.5310 -0.8052  0.8996
  131OSM   C13S14131   1.579   1.985   7.143 -0.1666  0.5398 -0.7059
  131OSM   H13S14132   1.578   1.915   7.229  1.5734  0.0384 -1.0400
  131OSM   H13T14133   1.484   2.042   7.152  0.6781  1.7492  1.2109
  131OSM   C14S14134   1.689   2.089   7.146 -0.5951  0.8570 -0.4962
  131OSM   H14S14135   1.670   2.161   7.064  1.0504  1.6131 -0.2376
  131OSM   H14T14136   1.786   2.042   7.120 -0.5787  0.0707  0.9112
  131OSM   C15S14137   1.714   2.171   7.274 -0.2585  0.2191 -0.2817
  131OSM   H15S14138   1.620   2.227   7.297  1.3653  2.2702  1.9007
  131OSM   H15T14139   1.792   2.249   7.265  1.3147 -0.9726  1.8673
  131OSM   C16S14140   1.746   2.090   7.394 -0.6549  0.4368 -0.0960
  131OSM   H16S14141   1.657   2.030   7.423  1.3563 -1.6149  2.3013
  131OSM   H16T14142   1.780   2.159   7.474  0.8147 -0.1571 -0.1794
  131OSM   C17S14143   1.864   1.985   7.366  0.2711 -0.0725 -0.4941
  131OSM   H17S14144   1.956   2.036   7.331  2.1962 -3.7699 -1.3114
  131OSM   H17T14145   1.841   1.926   7.275  1.8321  1.9249 -2.2654
  131OSM   C18S14146   1.884   1.903   7.496 -0.3089  0.6572 -0.1047
  131OSM   H18S14147   1.791   1.851   7.527 -0.3630  0.7766 -0.0676
  131OSM   H18T14148   1.925   1.964   7.579  0.6694  0.5241 -0.4814
  131OSM   H18U14149   1.952   1.819   7.470  1.5174  1.6129  1.3539
  131OSM    C1F14150   1.228   2.196   6.359  0.0619 -0.8094  0.1520
  131OSM     OF14151   1.108   2.189   6.377 -0.5427  0.0914  0.1586
  131OSM    C2F14152   1.317   2.269   6.452  0.1331  0.0529  0.6268
  131OSM    H2F14153   1.347   2.368   6.411  1.2943 -0.4916  0.0958
  131OSM    H2G14154   1.406   2.202   6.459 -0.1316 -0.4077 -0.2373
  131OSM    C3F14155   1.253   2.289   6.596 -0.0085 -0.5259  0.9977
  131OSM    H3F14156   1.185   2.204   6.617  1.1649 -2.1043 -1.2316
  131OSM    H3G14157   1.187   2.378   6.588 -0.0710 -0.7422 -1.9984
  131OSM    C4F14158   1.351   2.305   6.700 -0.8220 -0.1573 -0.3790
  131OSM    H4F14159   1.412   2.393   6.672  3.8188 -2.6521  0.8430
  131OSM    H4G14160   1.428   2.227   6.711 -0.0950  0.7359  1.1892
  131OSM    C5F14161   1.286   2.345   6.837  0.3991  0.2300 -0.5232
  131OSM    H5F14162   1.220   2.260   6.865 -1.7900  0.4760 -4.2862
  131OSM    H5G14163   1.212   2.424   6.812 -0.9731 -1.0388 -0.6571
  131OSM    C6F14164   1.381   2.375   6.951 -0.5031 -0.0714 -0.2777
  131OSM    H6F14165   1.449   2.460   6.927  1.4515 -0.8917  1.9695
  131OSM    H6G14166   1.447   2.285   6.955 -0.3424 -0.0061 -1.1985
  131OSM    C7F14167   1.309   2.398   7.078  0.0042 -1.0301 -0.0319
  131OSM    H7F14168   1.244   2.315   7.112 -1.0552  0.1825  1.0314
  131OSM    H7G14169   1.245   2.486   7.055  1.5509  0.1148 -0.1496
  131OSM    C8F14170   1.409   2.437   7.186 -0.4821 -0.4640 -0.3975
  131OSM    H8F14171   1.496   2.484   7.135 -0.1070 -1.7786 -1.0282
  131OSM    H8G14172   1.455   2.342   7.222 -1.4427 -0.6400  0.4115
  131OSM    C9F14173   1.351   2.507   7.306 -0.2068  0.6283  0.2737
  131OSM    H9F14174   1.335   2.613   7.285 -1.8937 -0.0954 -2.5729
  131OSM   C10F14175   1.337   2.454   7.434  0.6881  0.0595  0.1931
  131OSM   H10F14176   1.308   2.515   7.520  1.0573 -0.5190  0.7355
  131OSM   C11F14177   1.362   2.313   7.480 -0.3428  0.0483 -0.7990
  131OSM   H11F14178   1.408   2.244   7.407 -0.6443  1.0175 -1.9204
  131OSM   H11G14179   1.259   2.272   7.490 -0.3515  0.3910  0.7525
  131OSM   C12F14180   1.436   2.305   7.618 -0.8226 -0.3529 -0.0728
  131OSM   H12F14181   1.378   2.355   7.699  0.4450  4.0377 -1.5617
  131OSM   H12G14182   1.526   2.370   7.617 -1.7534  1.0312  1.2721
  131OSM   C13F14183   1.486   2.161   7.649  0.3542 -0.0267  0.5695
  131OSM   H13F14184   1.587   2.156   7.603  0.6793  2.3967  0.8616
  131OSM   H13G14185   1.417   2.083   7.609 -1.6942  3.3218 -3.1925
  131OSM   C14F14186   1.498   2.125   7.800 -0.1901 -0.0650 -0.3048
  131OSM   H14F14187   1.409   2.166   7.852 -0.5307  0.5594 -1.3557
  131OSM   H14G14188   1.584   2.179   7.844 -2.1081  0.1479  3.6319
  131OSM   C15F14189   1.522   1.970   7.799 -0.0616 -0.1790 -0.4182
  131OSM   H15F14190   1.611   1.946   7.736  1.4246  2.3239  0.5868
  131OSM   H15G14191   1.427   1.923   7.765 -0.5367 -0.7452  1.5744
  131OSM   C16F14192   1.530   1.924   7.944  1.2812 -0.4534  1.0923
  131OSM   H16F14193   1.433   1.940   7.996  1.1982 -1.4244  1.2591
  131OSM   H16G14194   1.605   1.991   7.990  1.0678  0.1999  0.5073
  131OSM   C17F14195   1.569   1.779   7.950 -0.3993  0.0723 -0.1003
  131OSM   H17F14196   1.679   1.779   7.964 -0.5954  0.7050  1.6756
  131OSM   H17G14197   1.553   1.729   7.852  0.1137  1.2767 -0.8133
  131OSM   C18F14198   1.512   1.726   8.082  0.1429 -0.4949  0.4804
  131OSM   H18F14199   1.532   1.617   8.095 -0.4167 -0.7199 -0.4199
  131OSM   H18G14200   1.401   1.733   8.078  0.2393  2.0350  0.7688
  131OSM   H18H14201   1.541   1.791   8.167 -1.1037 -0.8991  1.2521
  132OSM      N14202   4.574   3.855   6.457 -0.4006 -0.2372 -0.3909
  132OSM    C1514203   4.478   3.929   6.362 -0.6310  0.4053  0.0220
  132OSM   H15A14204   4.384   3.876   6.366 -0.4461  0.0723  0.0804
  132OSM   H15B14205   4.525   3.923   6.266 -0.3271  2.1434  0.0428
  132OSM   H15C14206   4.470   4.031   6.395 -1.1108  0.7779 -1.2038
  132OSM    C1414207   4.711   3.917   6.470  0.0861  1.0049  0.1600
  132OSM   H14A14208   4.763   3.909   6.376 -0.4405  0.4096 -0.0876
  132OSM   H14B14209   4.759   3.867   6.553 -2.1019 -1.4990  0.0551
  132OSM   H14C14210   4.711   4.022   6.494 -1.2100  1.0214  0.1650
  132OSM    C1314211   4.522   3.868   6.597  0.1605 -0.0109  0.3489
  132OSM   H13A14212   4.500   3.970   6.624  4.4650  1.4009 -0.7007
  132OSM   H13B14213   4.598   3.826   6.660  2.0999  3.0107  0.2108
  132OSM   H13C14214   4.435   3.803   6.600  0.2798 -0.3028 -1.4055
  132OSM    C1214215   4.575   3.713   6.415 -0.5180  0.4858  0.9505
  132OSM   H12A14216   4.472   3.683   6.426  0.0929 -1.7813  1.0096
  132OSM   H12B14217   4.630   3.651   6.484 -1.0447 -0.4394  0.5524
  132OSM    C1114218   4.623   3.674   6.276 -0.9705  0.2917  0.1535
  132OSM   H11A14219   4.556   3.724   6.203 -1.3218 -0.0511  0.2383
  132OSM   H11B14220   4.607   3.567   6.250 -1.2109  0.4941 -0.5325
  132OSM      P14221   4.884   3.617   6.278 -0.2820 -0.3885 -0.3379
  132OSM    O1314222   4.867   3.496   6.200 -0.2667 -0.5344  0.5038
  132OSM    O1414223   5.013   3.685   6.261 -0.4583 -0.9359 -0.7809
  132OSM    O1114224   4.859   3.591   6.434  0.1186  0.5200 -0.7048
  132OSM    O1214225   4.758   3.716   6.260  0.2382 -0.0739 -0.0546
  132OSM    C1S14226   4.812   3.468   6.485  0.7295 -0.2949  1.1632
  132OSM    H1S14227   4.876   3.391   6.438  2.2639  1.1984  0.6894
  132OSM    H1T14228   4.708   3.447   6.453  0.4302  1.7876  0.6246
  132OSM     NF14229   4.786   3.317   6.675  0.6096 -0.4070 -0.0895
  132OSM    HNF14230   4.695   3.309   6.714  0.9921  1.5558  1.3953
  132OSM    C2S14231   4.824   3.452   6.639  0.8721 -0.6158  0.1222
  132OSM    H2S14232   4.931   3.459   6.668  1.0815 -0.4781 -0.6607
  132OSM    C3S14233   4.747   3.567   6.716  0.1389 -0.4031  0.4660
  132OSM    H3S14234   4.643   3.568   6.676  0.1305 -3.8781  0.1269
  132OSM     O314235   4.816   3.692   6.692  0.3925  0.8122 -0.4000
  132OSM    HO314236   4.851   3.693   6.603 -1.6674  2.0332 -1.2635
  132OSM    C4S14237   4.740   3.544   6.858 -0.4873 -0.9193 -0.1321
  132OSM    H4S14238   4.652   3.480   6.877  0.8560 -2.6863  0.3958
  132OSM    C5S14239   4.828   3.577   6.958  0.7014  0.0238 -0.0385
  132OSM    H5S14240   4.923   3.625   6.933  2.4133 -2.5476  1.1229
  132OSM    C6S14241   4.805   3.554   7.098 -1.0601  0.4982 -0.3375
  132OSM    H6S14242   4.701   3.571   7.131 -1.3681 -1.6015 -0.0523
  132OSM    H6T14243   4.870   3.620   7.158 -0.4594 -0.7376  0.4183
  132OSM    C7S14244   4.848   3.415   7.140 -0.4465  0.4508 -0.2307
  132OSM    H7S14245   4.952   3.392   7.110  0.3663  2.3221  0.9295
  132OSM    H7T14246   4.794   3.327   7.101  0.0541  0.4450 -0.9236
  132OSM    C8S14247   4.862   3.399   7.298  0.0825 -0.7222  0.2349
  132OSM    H8S14248   4.915   3.485   7.346  0.6256 -1.8410  1.7091
  132OSM    H8T14249   4.917   3.304   7.311  0.4728 -0.7939 -1.6171
  132OSM    C9S14250   4.723   3.380   7.367 -0.4192  0.3372  0.4526
  132OSM    H9S14251   4.687   3.277   7.346 -1.7780  0.1986  3.0664
  132OSM    H9T14252   4.653   3.456   7.327 -1.3698 -0.0140  1.4174
  132OSM   C10S14253   4.726   3.403   7.514 -0.6305  0.1527  0.5193
  132OSM   H10S14254   4.785   3.495   7.532 -0.7689  0.1815  0.8415
  132OSM   H10T14255   4.786   3.323   7.563 -0.3299 -1.2983 -2.0302
  132OSM   C11S14256   4.598   3.423   7.583  0.6138  0.1965 -0.6558
  132OSM   H11S14257   4.529   3.337   7.576 -0.8455  1.1922  0.8754
  132OSM   H11T14258   4.535   3.508   7.549 -1.2399 -1.4315 -1.4768
  132OSM   C12S14259   4.621   3.453   7.732  0.2571  0.1830  0.2183
  132OSM   H12S14260   4.638   3.563   7.737 -4.0856  1.0258 -0.3699
  132OSM   H12T14261   4.719   3.419   7.772  0.4133  0.2347 -0.1181
  132OSM   C13S14262   4.506   3.408   7.820  0.1325  0.3833  0.3716
  132OSM   H13S14263   4.494   3.298   7.813 -1.4344  0.4910  0.9019
  132OSM   H13T14264   4.405   3.450   7.800 -0.2415 -0.1121  1.1576
  132OSM   C14S14265   4.531   3.449   7.968 -0.4752 -0.7678 -0.5285
  132OSM   H14S14266   4.571   3.553   7.968 -0.9187 -0.5786  0.9099
  132OSM   H14T14267   4.601   3.385   8.026  0.2262  0.5949  0.1933
  132OSM   C15S14268   4.403   3.453   8.050  0.4606 -0.6103  0.3496
  132OSM   H15S14269   4.357   3.352   8.049 -0.5372 -0.2201  2.1830
  132OSM   H15T14270   4.320   3.515   8.009  0.9177 -0.5312 -0.4668
  132OSM   C16S14271   4.423   3.486   8.195 -0.2038 -0.1250 -0.8944
  132OSM   H16S14272   4.457   3.589   8.218 -0.8943 -0.6479  3.1751
  132OSM   H16T14273   4.510   3.430   8.237  1.4618  3.0870  0.2516
  132OSM   C17S14274   4.302   3.447   8.284  0.0240 -0.5505 -0.4568
  132OSM   H17S14275   4.327   3.442   8.392  1.1120  0.5402 -0.6417
  132OSM   H17T14276   4.254   3.349   8.260 -1.4082  0.5421 -2.3164
  132OSM   C18S14277   4.196   3.560   8.281 -0.5815  0.4473  0.4407
  132OSM   H18S14278   4.114   3.542   8.354  0.8370 -0.3089  1.8972
  132OSM   H18T14279   4.146   3.544   8.183  1.5821  0.8695 -0.7744
  132OSM   H18U14280   4.242   3.660   8.293  0.6666 -0.0910  0.2005
  132OSM    C1F14281   4.870   3.210   6.658 -0.3030  0.3508 -0.0245
  132OSM     OF14282   4.980   3.224   6.610 -0.3167 -0.4615 -0.4317
  132OSM    C2F14283   4.812   3.076   6.687  0.0164  0.6116  0.1397
  132OSM    H2F14284   4.894   3.003   6.707 -1.3372 -1.3620 -1.1247
  132OSM    H2G14285   4.757   3.054   6.593 -0.4110 -1.0007  0.7298
  132OSM    C3F14286   4.707   3.046   6.801  0.0684 -0.1568  0.0335
  132OSM    H3F14287   4.649   2.954   6.783  1.0700 -0.5715 -1.2781
  132OSM    H3G14288   4.635   3.130   6.797 -1.2523 -1.3066 -1.2414
  132OSM    C4F14289   4.772   3.053   6.944  0.6372 -0.1088 -0.8000
  132OSM    H4F14290   4.810   3.151   6.980 -0.6974 -0.7302  2.6221
  132OSM    H4G14291   4.865   2.993   6.955  0.6623  0.1111  0.2938
  132OSM    C5F14292   4.674   3.002   7.051 -0.3492  0.2674 -1.0184
  132OSM    H5F14293   4.634   2.906   7.013 -1.5690  1.1926 -2.1289
  132OSM    H5G14294   4.592   3.075   7.067  1.8831  2.9051 -0.7750
  132OSM    C6F14295   4.742   2.971   7.188  0.6755 -0.0766  0.2110
  132OSM    H6F14296   4.801   3.052   7.236  1.1218  1.4154 -2.6262
  132OSM    H6G14297   4.824   2.896   7.182  0.5214 -0.2412  0.1898
  132OSM    C7F14298   4.627   2.933   7.285 -0.1246 -0.1664  0.5064
  132OSM    H7F14299   4.577   2.842   7.245  0.1245  0.0203 -0.2435
  132OSM    H7G14300   4.543   3.006   7.286  0.3370  0.3965  2.1200
  132OSM    C8F14301   4.663   2.911   7.434 -0.4505  0.3279 -0.2979
  132OSM    H8F14302   4.749   2.840   7.438 -1.7693 -1.3167 -0.1509
  132OSM    H8G14303   4.575   2.860   7.478  1.7855 -2.3633  1.4028
  132OSM    C9F14304   4.696   3.033   7.506 -0.2617 -0.6212  0.0112
  132OSM    H9F14305   4.763   3.097   7.448  0.2986 -1.4250 -0.2345
  132OSM   C10F14306   4.644   3.080   7.618  0.0272  0.2956 -0.2743
  132OSM   H10F14307   4.675   3.178   7.659 -1.7449  0.8333 -0.1299
  132OSM   C11F14308   4.528   3.014   7.693 -0.8837 -0.8093  0.4129
  132OSM   H11F14309   4.514   2.908   7.663  1.3017 -0.7720 -0.9812
  132OSM   H11G14310   4.434   3.072   7.678 -0.8773 -0.8940  0.0260
  132OSM   C12F14311   4.548   3.006   7.848 -0.7422  0.2153 -0.2971
  132OSM   H12F14312   4.455   2.988   7.905 -0.9810 -0.3654 -0.8626
  132OSM   H12G14313   4.569   3.110   7.882  1.0116 -0.1834 -0.0250
  132OSM   C13F14314   4.654   2.901   7.881 -0.3578 -0.1425 -0.4429
  132OSM   H13F14315   4.748   2.927   7.829 -0.9247 -0.0290 -1.4253
  132OSM   H13G14316   4.609   2.807   7.843 -0.7919  0.6657 -1.9937
  132OSM   C14F14317   4.680   2.886   8.034 -0.4400 -0.2377 -0.0455
  132OSM   H14F14318   4.741   2.797   8.061 -1.5676 -0.4611  1.8797
  132OSM   H14G14319   4.584   2.860   8.083 -0.5282 -2.0745 -1.0677
  132OSM   C15F14320   4.737   3.012   8.090  0.2282  1.1268 -0.0686
  132OSM   H15F14321   4.657   3.089   8.087 -2.6726 -1.6239  1.0277
  132OSM   H15G14322   4.821   3.057   8.032  0.2396 -0.3342 -1.2478
  132OSM   C16F14323   4.783   3.004   8.238 -0.3422 -0.4480  0.3893
  132OSM   H16F14324   4.834   3.099   8.267 -0.1337 -0.2580 -0.5603
  132OSM   H16G14325   4.864   2.929   8.246  1.5565  1.7116  3.5282
  132OSM   C17F14326   4.664   2.973   8.336  0.0975  0.3136  0.1517
  132OSM   H17F14327   4.602   2.889   8.298  1.4042 -0.1859 -0.9709
  132OSM   H17G14328   4.612   3.071   8.341 -1.0717 -0.3398  1.5600
  132OSM   C18F14329   4.699   2.938   8.475 -0.3142  0.5437 -0.0420
  132OSM   H18F14330   4.614   2.928   8.546 -0.2703  0.1395 -0.0420
  132OSM   H18G14331   4.780   3.004   8.512  1.1653 -0.4011 -1.4210
  132OSM   H18H14332   4.749   2.839   8.466  0.7484  0.9423  1.2255
  133OSM      N14333   5.429   2.171   6.130  0.7546  0.3002  0.4611
  133OSM    C1514334   5.477   2.281   6.216  0.2968  0.5540 -0.2182
  133OSM   H15A14335   5.506   2.246   6.314  0.8000  2.6195  0.4249
  133OSM   H15B14336   5.403   2.360   6.220  2.8681  3.1351 -0.3729
  133OSM   H15C14337   5.568   2.310   6.165 -0.7479  2.4163 -1.1507
  133OSM    C1414338   5.406   2.228   5.993 -0.7577 -0.0253 -0.2427
  133OSM   H14A14339   5.367   2.149   5.931 -2.0505 -0.4044  0.9847
  133OSM   H14B14340   5.497   2.264   5.947 -0.3267 -1.2972 -0.4174
  133OSM   H14C14341   5.334   2.308   6.004 -2.0810 -1.1353 -0.4895
  133OSM    C1314342   5.526   2.059   6.116 -0.4368  0.3024  0.1224
  133OSM   H13A14343   5.554   2.022   6.214  1.1948  0.4209 -0.2618
  133OSM   H13B14344   5.614   2.089   6.061 -0.1193  1.9868  1.4621
  133OSM   H13C14345   5.483   1.970   6.072  1.5408 -0.2161 -0.8789
  133OSM    C1214346   5.289   2.131   6.187 -0.4274 -0.0039 -0.0085
  133OSM   H12A14347   5.246   2.063   6.114 -1.0838 -0.8480  1.1268
  133OSM   H12B14348   5.232   2.222   6.187 -1.2295 -0.4878 -1.2166
  133OSM    C1114349   5.284   2.067   6.326 -0.6100  1.0303  0.1793
  133OSM   H11A14350   5.180   2.040   6.353 -0.4959  0.1040 -0.3009
  133OSM   H11B14351   5.315   2.133   6.410  2.0741  1.2204 -0.8852
  133OSM      P14352   5.321   1.820   6.274 -0.1599  0.1491  0.3359
  133OSM    O1314353   5.283   1.842   6.132 -0.1372  0.5722 -0.4206
  133OSM    O1414354   5.427   1.718   6.293  0.3891  0.3039 -0.8878
  133OSM    O1114355   5.198   1.792   6.365  0.4173  1.1376  0.1657
  133OSM    O1214356   5.370   1.953   6.333  0.1528  0.4765 -0.0457
  133OSM    C1S14357   5.218   1.759   6.507  0.0309 -0.1784 -0.4432
  133OSM    H1S14358   5.324   1.763   6.538 -0.4285  0.5557  1.1186
  133OSM    H1T14359   5.192   1.653   6.525  2.1639 -1.1588 -2.5316
  133OSM     NF14360   5.203   1.840   6.744  0.0984 -0.0524  0.0384
  133OSM    HNF14361   5.142   1.801   6.814 -0.1536 -0.1342 -0.2232
  133OSM    C2S14362   5.146   1.850   6.612  0.1044  0.9877 -0.0182
  133OSM    H2S14363   5.156   1.955   6.576 -2.8533  1.0508 -0.9195
  133OSM    C3S14364   4.993   1.824   6.603 -0.4010 -0.3154  0.2756
  133OSM    H3S14365   4.963   1.726   6.647 -0.1125 -0.3616  0.3707
  133OSM     O314366   4.942   1.814   6.467 -0.6395  0.0653  0.3627
  133OSM    HO314367   5.021   1.803   6.413 -1.9427  0.1843 -1.6966
  133OSM    C4S14368   4.914   1.939   6.665 -0.0762  0.0122 -0.2506
  133OSM    H4S14369   4.904   2.034   6.609  1.0411 -1.4945 -3.2013
  133OSM    C5S14370   4.843   1.932   6.781  0.1324  0.5058  0.4558
  133OSM    H5S14371   4.833   1.837   6.836 -0.1094  0.4825  0.3746
  133OSM    C6S14372   4.754   2.044   6.835 -0.2396  0.9247  0.5711
  133OSM    H6S14373   4.697   2.004   6.922  1.2099 -1.3268  0.5802
  133OSM    H6T14374   4.686   2.075   6.754  0.1883 -0.6210 -0.4284
  133OSM    C7S14375   4.838   2.163   6.883 -0.1210  0.0758 -0.3252
  133OSM    H7S14376   4.776   2.250   6.912 -0.3991 -0.7046  1.5444
  133OSM    H7T14377   4.892   2.203   6.794 -0.3023  0.2652 -0.3504
  133OSM    C8S14378   4.938   2.144   6.995 -0.2612 -0.0699 -0.5353
  133OSM    H8S14379   4.995   2.236   7.019  1.5387 -1.2447 -0.0913
  133OSM    H8T14380   5.014   2.066   6.976  2.4230  1.7039  2.1004
  133OSM    C9S14381   4.874   2.106   7.134 -0.0149 -1.2257  0.1706
  133OSM    H9S14382   4.841   2.001   7.118 -0.3918 -1.3393  1.5549
  133OSM    H9T14383   4.784   2.166   7.160  0.5376  1.7446 -3.8638
  133OSM   C10S14384   4.968   2.133   7.248  0.0603  0.1072  0.3541
  133OSM   H10S14385   5.007   2.237   7.247 -1.2319  0.6622  2.3500
  133OSM   H10T14386   5.058   2.068   7.237  0.7736  1.3465 -1.7641
  133OSM   C11S14387   4.910   2.095   7.387  0.2418  0.0262 -0.4011
  133OSM   H11S14388   4.913   1.984   7.393  0.2725 -0.1043 -2.2465
  133OSM   H11T14389   4.802   2.113   7.406 -0.1356 -1.7504 -0.6483
  133OSM   C12S14390   4.980   2.171   7.501 -0.4667  0.5132 -0.4451
  133OSM   H12S14391   4.966   2.280   7.488 -0.2239  0.4168 -1.6292
  133OSM   H12T14392   5.087   2.147   7.482 -0.5371  0.5519 -0.8816
  133OSM   C13S14393   4.938   2.121   7.642 -0.2191  0.1625  0.2938
  133OSM   H13S14394   4.966   2.015   7.662  1.6257 -0.0147 -2.5888
  133OSM   H13T14395   4.828   2.122   7.649 -0.2520 -1.1070  0.1428
  133OSM   C14S14396   5.000   2.208   7.763 -0.3829  0.2261  0.4703
  133OSM   H14S14397   4.967   2.314   7.765  0.5431  0.5557 -0.6227
  133OSM   H14T14398   5.108   2.210   7.737 -0.7633  0.9886 -1.1923
  133OSM   C15S14399   4.989   2.150   7.902  0.5159 -0.3750 -0.1840
  133OSM   H15S14400   5.018   2.043   7.889  1.3317  0.0606 -2.3199
  133OSM   H15T14401   4.883   2.157   7.935  0.7048 -0.7760  0.5597
  133OSM   C16S14402   5.096   2.208   7.998  0.8204  0.1902 -1.5301
  133OSM   H16S14403   5.067   2.315   8.008 -1.9848 -0.4237 -2.2851
  133OSM   H16T14404   5.192   2.188   7.945  1.7599  1.1531 -0.2735
  133OSM   C17S14405   5.103   2.139   8.137 -0.4093 -0.3715 -0.1345
  133OSM   H17S14406   5.141   2.037   8.113 -0.7817 -0.0266 -2.3251
  133OSM   H17T14407   4.997   2.126   8.170 -0.4447 -1.1177 -0.5306
  133OSM   C18S14408   5.180   2.219   8.239 -0.3956  0.5446 -0.1342
  133OSM   H18S14409   5.199   2.168   8.335 -1.3334  1.1165  0.3761
  133OSM   H18T14410   5.128   2.309   8.279 -0.7347 -0.0087  0.6878
  133OSM   H18U14411   5.277   2.249   8.193 -0.7249 -0.1919 -1.3579
  133OSM    C1F14412   5.329   1.888   6.777 -0.3336  0.8049  0.3621
  133OSM     OF14413   5.397   1.946   6.687  0.5730 -0.0904 -0.5387
  133OSM    C2F14414   5.366   1.896   6.927  0.7477  0.1206 -0.0411
  133OSM    H2F14415   5.385   1.791   6.958  0.3889 -0.2691 -1.0664
  133OSM    H2G14416   5.273   1.931   6.977  1.6827  0.8430  1.2442
  133OSM    C3F14417   5.494   1.986   6.965 -0.0010  0.3359  0.4932
  133OSM    H3F14418   5.481   2.087   6.922 -1.1990  1.1763  2.6446
  133OSM    H3G14419   5.573   1.932   6.909 -0.5333 -0.0852  0.1331
  133OSM    C4F14420   5.527   1.981   7.118  0.2252 -0.2132 -0.1103
  133OSM    H4F14421   5.623   2.033   7.138  0.4385 -0.3312 -0.7955
  133OSM    H4G14422   5.547   1.876   7.148 -0.2325 -0.1960  0.2595
  133OSM    C5F14423   5.403   2.032   7.197  0.2244  0.1328  0.2758
  133OSM    H5F14424   5.333   1.946   7.200  0.2966  0.0888  1.6417
  133OSM    H5G14425   5.370   2.108   7.124  1.6472  1.1456  0.6392
  133OSM    C6F14426   5.411   2.109   7.326  0.2586 -0.4882 -0.2312
  133OSM    H6F14427   5.309   2.115   7.371  0.3164  1.0647 -0.2717
  133OSM    H6G14428   5.441   2.211   7.296 -1.0659 -0.9604 -3.7033
  133OSM    C7F14429   5.508   2.048   7.426 -0.3420  0.2076 -0.2367
  133OSM    H7F14430   5.603   2.045   7.368 -0.6482 -0.2886 -0.7125
  133OSM    H7G14431   5.478   1.942   7.440  0.5723 -0.0697 -0.3140
  133OSM    C8F14432   5.527   2.124   7.558  0.2970 -0.1657 -0.3451
  133OSM    H8F14433   5.521   2.234   7.548  0.7528  0.1606  2.1832
  133OSM    H8G14434   5.623   2.101   7.610  2.0742  4.2278 -1.2113
  133OSM    C9F14435   5.403   2.094   7.641  0.2461 -0.0037 -0.7449
  133OSM    H9F14436   5.317   2.152   7.605 -1.2059  0.0453  2.4505
  133OSM   C10F14437   5.397   2.029   7.758 -0.0684 -0.0333  0.1952
  133OSM   H10F14438   5.299   2.027   7.809  0.1052  0.8576  0.5957
  133OSM   C11F14439   5.505   1.953   7.831  0.1814 -0.5135  0.2019
  133OSM   H11F14440   5.558   2.035   7.884 -3.1228  1.1627  1.1716
  133OSM   H11G14441   5.575   1.901   7.762  0.0620 -0.6195  0.1598
  133OSM   C12F14442   5.455   1.854   7.942 -0.1690 -0.0584 -0.3246
  133OSM   H12F14443   5.413   1.764   7.892  1.4237 -0.2437 -1.4163
  133OSM   H12G14444   5.382   1.907   8.006 -0.3320 -0.7102  0.0371
  133OSM   C13F14445   5.561   1.800   8.030  0.1989  0.0242  0.1592
  133OSM   H13F14446   5.616   1.878   8.087  0.7793 -1.1108  1.2001
  133OSM   H13G14447   5.640   1.742   7.977  0.3569 -1.0258  1.4828
  133OSM   C14F14448   5.501   1.696   8.130 -0.4875 -0.0662  0.2134
  133OSM   H14F14449   5.583   1.667   8.200 -1.4095 -2.3486  0.4260
  133OSM   H14G14450   5.475   1.599   8.081  0.0925 -0.9329  1.5593
  133OSM   C15F14451   5.386   1.729   8.216 -0.1353  0.0449 -0.3411
  133OSM   H15F14452   5.371   1.635   8.273 -0.4033 -0.4005 -1.1251
  133OSM   H15G14453   5.296   1.763   8.160  0.4186  0.1863 -1.1566
  133OSM   C16F14454   5.428   1.829   8.322 -0.4648 -0.3022  0.0197
  133OSM   H16F14455   5.475   1.917   8.273  1.4539 -0.3891  1.5933
  133OSM   H16G14456   5.498   1.790   8.398 -2.4441  0.6360  2.4638
  133OSM   C17F14457   5.316   1.886   8.402 -0.1986 -1.0783 -0.9181
  133OSM   H17F14458   5.229   1.932   8.350 -0.7078  0.3634  1.0972
  133OSM   H17G14459   5.360   1.971   8.458 -0.4604 -1.3998 -0.2051
  133OSM   C18F14460   5.263   1.782   8.496 -0.0297 -0.0379 -0.1175
  133OSM   H18F14461   5.346   1.728   8.546  0.2363  0.9153  0.5020
  133OSM   H18G14462   5.205   1.706   8.440  2.6637 -0.7939 -2.0694
  133OSM   H18H14463   5.203   1.838   8.571 -0.2101 -0.1393 -0.1849
  134OSM      N14464   5.354   5.480   6.340 -0.1119 -0.7786 -0.1150
  134OSM    C1514465   5.280   5.537   6.220 -0.1181 -0.3767 -0.1365
  134OSM   H15A14466   5.279   5.472   6.133  1.9003 -0.1184 -0.3934
  134OSM   H15B14467   5.319   5.631   6.183  1.8321 -0.8159  0.6836
  134OSM   H15C14468   5.177   5.553   6.247 -1.0633 -2.3830 -2.2423
  134OSM    C1414469   5.360   5.588   6.444 -0.2277  0.3353  0.0756
  134OSM   H14A14470   5.399   5.556   6.539  0.1109  2.9125  0.8966
  134OSM   H14B14471   5.256   5.615   6.459 -0.2163 -0.4474  1.8562
  134OSM   H14C14472   5.404   5.676   6.398 -2.7304  0.8224 -1.5991
  134OSM    C1314473   5.265   5.374   6.393  0.2927 -0.3078 -0.6037
  134OSM   H13A14474   5.290   5.344   6.494 -1.1784  1.9459  0.5244
  134OSM   H13B14475   5.280   5.288   6.330  0.3453  0.7170 -2.0327
  134OSM   H13C14476   5.165   5.414   6.398  1.3573  2.9301 -2.3291
  134OSM    C1214477   5.487   5.420   6.312 -0.2720 -0.0120  0.1133
  134OSM   H12A14478   5.539   5.386   6.400 -0.2075 -1.0296 -0.3021
  134OSM   H12B14479   5.544   5.503   6.272 -2.4410  2.6624  2.1702
  134OSM    C1114480   5.507   5.304   6.208 -0.7965 -0.1373  0.7539
  134OSM   H11A14481   5.616   5.288   6.192 -0.9879 -0.5871 -0.1397
  134OSM   H11B14482   5.476   5.318   6.103  1.3570  2.2128  0.3626
  134OSM      P14483   5.513   5.084   6.362  0.1430  0.4477 -0.4223
  134OSM    O1314484   5.437   4.960   6.341 -0.6771  0.4139  0.1310
  134OSM    O1414485   5.660   5.087   6.339 -0.4271  0.4651  0.4335
  134OSM    O1114486   5.485   5.144   6.504 -0.1530  0.6284 -0.3171
  134OSM    O1214487   5.442   5.188   6.252  0.2658 -0.0071  0.4206
  134OSM    C1S14488   5.504   5.069   6.625 -0.1596  0.0381 -0.2525
  134OSM    H1S14489   5.580   4.989   6.609  0.3770 -0.0449  2.2695
  134OSM    H1T14490   5.415   5.013   6.660  0.2368 -1.1971 -1.1267
  134OSM     NF14491   5.623   5.078   6.834 -0.2240  0.5761 -0.0742
  134OSM    HNF14492   5.577   5.047   6.917  0.4912 -2.2009 -0.5975
  134OSM    C2S14493   5.557   5.160   6.739 -0.5968  0.1109 -0.3066
  134OSM    H2S14494   5.638   5.224   6.698  2.1570 -2.0748  1.3742
  134OSM    C3S14495   5.458   5.259   6.802  0.2468 -0.8298  0.3262
  134OSM    H3S14496   5.381   5.196   6.851  0.6152 -1.8009 -0.3180
  134OSM     O314497   5.396   5.348   6.707  0.3282  0.5571  0.2414
  134OSM    HO314498   5.416   5.311   6.621 -0.1853  0.1956  0.2691
  134OSM    C4S14499   5.524   5.339   6.907  0.6643  0.0670 -0.3701
  134OSM    H4S14500   5.632   5.352   6.893  0.6360  2.1750  0.7884
  134OSM    C5S14501   5.462   5.377   7.023 -0.3947 -0.2330 -0.9673
  134OSM    H5S14502   5.359   5.348   7.048 -0.5267  0.7194 -0.3339
  134OSM    C6S14503   5.534   5.460   7.121 -0.6960 -0.3062 -0.4742
  134OSM    H6S14504   5.498   5.564   7.134 -2.3808 -0.9270  0.2286
  134OSM    H6T14505   5.637   5.478   7.085 -0.6203 -1.5189 -0.9008
  134OSM    C7S14506   5.541   5.402   7.263  0.0399 -0.3147  0.3065
  134OSM    H7S14507   5.625   5.462   7.305 -1.1311  3.9615 -2.7446
  134OSM    H7T14508   5.579   5.300   7.243 -1.6424 -0.5922 -1.8492
  134OSM    C8S14509   5.413   5.426   7.346 -0.3834 -0.1010 -0.0683
  134OSM    H8S14510   5.332   5.388   7.281  1.3187 -0.6891 -1.9521
  134OSM    H8T14511   5.398   5.534   7.364 -0.9143 -0.4990  2.3052
  134OSM    C9S14512   5.429   5.360   7.484  0.5637  0.2052  0.0457
  134OSM    H9S14513   5.518   5.401   7.536  0.2972  0.0517  0.6204
  134OSM    H9T14514   5.428   5.249   7.478 -1.9466  0.1356  0.6383
  134OSM   C10S14515   5.318   5.402   7.577 -0.0307 -0.6808  0.4444
  134OSM   H10S14516   5.220   5.371   7.534 -0.4569  1.2882 -0.1227
  134OSM   H10T14517   5.330   5.513   7.577  1.2452 -0.7957 -0.6394
  134OSM   C11S14518   5.318   5.340   7.718  0.3067 -0.7621 -0.4436
  134OSM   H11S14519   5.401   5.384   7.779 -1.1545 -0.4702  1.4209
  134OSM   H11T14520   5.328   5.230   7.704 -0.2521 -0.5221 -3.4280
  134OSM   C12S14521   5.186   5.378   7.795 -0.4132  0.3215 -0.7849
  134OSM   H12S14522   5.103   5.315   7.755 -0.1961  0.6057 -1.7042
  134OSM   H12T14523   5.185   5.489   7.784  1.0902  0.3383 -0.8375
  134OSM   C13S14524   5.195   5.358   7.946  1.1140  0.0954  0.7493
  134OSM   H13S14525   5.268   5.418   8.004  1.5876  1.2233 -0.9258
  134OSM   H13T14526   5.239   5.256   7.948  0.4330 -0.5338 -3.9525
  134OSM   C14S14527   5.067   5.344   8.021 -0.6332 -0.4717  0.1351
  134OSM   H14S14528   5.009   5.267   7.964 -1.5058  1.3874 -1.6037
  134OSM   H14T14529   5.009   5.437   8.007  0.0550  0.1467  1.2367
  134OSM   C15S14530   5.086   5.318   8.168  0.3757  0.5863  0.6117
  134OSM   H15S14531   5.128   5.404   8.225 -0.2282  0.2743  1.5612
  134OSM   H15T14532   5.155   5.231   8.167  1.5804  1.5028 -0.8389
  134OSM   C16S14533   4.963   5.279   8.248  0.5058 -0.3820 -0.8646
  134OSM   H16S14534   4.883   5.356   8.245 -1.8560 -2.6604  0.1339
  134OSM   H16T14535   4.987   5.276   8.357  0.8056  2.5378 -0.7519
  134OSM   C17S14536   4.893   5.152   8.199  0.1366  0.4577 -0.3703
  134OSM   H17S14537   4.968   5.070   8.192  0.1212  0.4512 -0.4596
  134OSM   H17T14538   4.857   5.177   8.097 -0.0011  0.9290 -0.2088
  134OSM   C18S14539   4.780   5.096   8.286 -0.6607 -0.8937  0.0327
  134OSM   H18S14540   4.690   5.158   8.309 -0.7662 -0.7230 -0.8194
  134OSM   H18T14541   4.830   5.053   8.375  1.5695 -2.2877 -1.7777
  134OSM   H18U14542   4.742   5.008   8.231  0.1431 -0.2150 -1.6891
  134OSM    C1F14543   5.739   5.018   6.810  0.0393  0.2771 -0.1517
  134OSM     OF14544   5.799   5.041   6.706 -0.2116 -0.3990  0.2247
  134OSM    C2F14545   5.789   4.906   6.901  0.2202  0.3551  0.8166
  134OSM    H2F14546   5.860   4.853   6.834 -0.8123  2.6386 -2.3422
  134OSM    H2G14547   5.705   4.834   6.918  0.9022 -0.5986  0.2904
  134OSM    C3F14548   5.853   4.954   7.024  0.0974 -0.4865  0.3172
  134OSM    H3F14549   5.940   5.009   6.984  1.7109 -2.6851  0.5620
  134OSM    H3G14550   5.907   4.866   7.066  1.7757 -0.2040 -1.1236
  134OSM    C4F14551   5.773   5.018   7.143  0.8487  1.8161  0.5654
  134OSM    H4F14552   5.704   4.935   7.171 -0.2122  3.0774  1.8532
  134OSM    H4G14553   5.703   5.095   7.105  0.4747 -0.1109 -3.1473
  134OSM    C5F14554   5.853   5.042   7.273 -0.1226  0.0398  0.0296
  134OSM    H5F14555   5.933   5.116   7.251  0.4172  0.0807  1.9449
  134OSM    H5G14556   5.901   4.942   7.287 -3.2910 -1.7045 -0.6092
  134OSM    C6F14557   5.776   5.079   7.401 -0.2218  0.3987 -0.5870
  134OSM    H6F14558   5.733   4.986   7.443 -0.2918  1.2018  1.2033
  134OSM    H6G14559   5.693   5.138   7.356  1.3238  1.2556 -2.4957
  134OSM    C7F14560   5.857   5.156   7.512  0.3258  0.3003  0.3526
  134OSM    H7F14561   5.865   5.266   7.500 -0.8025  0.4138  0.5304
  134OSM    H7G14562   5.956   5.106   7.522  0.4224  0.5934  0.8778
  134OSM    C8F14563   5.786   5.156   7.653  0.1000  0.2068 -0.3843
  134OSM    H8F14564   5.692   5.214   7.644  0.8068  1.4912  0.0894
  134OSM    H8G14565   5.858   5.218   7.710  1.3694 -1.9551  0.4802
  134OSM    C9F14566   5.762   5.024   7.726  0.1970  0.6836 -0.3992
  134OSM    H9F14567   5.743   4.938   7.660  1.1908 -0.6701  0.9915
  134OSM   C10F14568   5.748   5.004   7.855 -0.4025 -0.7892 -0.6575
  134OSM   H10F14569   5.729   4.900   7.887 -0.0936 -0.4039  0.9026
  134OSM   C11F14570   5.770   5.093   7.974  0.5164 -0.0899  0.4050
  134OSM   H11F14571   5.770   5.202   7.950  1.0448  0.0827  1.1685
  134OSM   H11G14572   5.866   5.059   8.017  1.5838  0.6031 -1.3070
  134OSM   C12F14573   5.663   5.060   8.083  0.2975 -0.0721  0.3372
  134OSM   H12F14574   5.699   5.108   8.176 -0.0000 -0.1245  0.4795
  134OSM   H12G14575   5.668   4.950   8.097  1.2544 -0.0220  0.4916
  134OSM   C13F14576   5.528   5.104   8.034  0.6681 -0.4076 -0.9684
  134OSM   H13F14577   5.502   5.032   7.953  1.5013  0.0976 -1.6945
  134OSM   H13G14578   5.520   5.207   7.995  1.7604  1.4105  3.0989
  134OSM   C14F14579   5.421   5.089   8.147  0.0473  0.2841 -0.4136
  134OSM   H14F14580   5.318   5.098   8.105 -0.0158 -1.9205 -0.8604
  134OSM   H14G14581   5.422   5.161   8.231 -0.8986 -0.2964  0.1205
  134OSM   C15F14582   5.419   4.954   8.220 -0.6337 -0.5132  0.4491
  134OSM   H15F14583   5.515   4.939   8.275  0.9211  0.4118 -1.8648
  134OSM   H15G14584   5.410   4.868   8.151  2.7677 -1.1737  0.6561
  134OSM   C16F14585   5.315   4.943   8.331 -1.0825  0.6797 -0.3672
  134OSM   H16F14586   5.213   4.943   8.286 -0.6121  1.8591 -1.5319
  134OSM   H16G14587   5.326   5.034   8.394  3.8675  1.3658 -1.7492
  134OSM   C17F14588   5.332   4.820   8.424  0.2239 -0.4104  0.2598
  134OSM   H17F14589   5.424   4.832   8.484 -1.3392  4.0865  2.2151
  134OSM   H17G14590   5.347   4.731   8.360 -0.2311  0.6766 -1.4379
  134OSM   C18F14591   5.219   4.815   8.522  0.9445  0.7174  0.2307
  134OSM   H18F14592   5.229   4.913   8.574 -0.2481  1.1301 -0.3022
  134OSM   H18G14593   5.242   4.738   8.598 -0.1093  1.5820  1.4714
  134OSM   H18H14594   5.125   4.808   8.463  1.1829 -0.4732 -0.0392
  135OSM      N14595   6.249   5.719   6.070  0.5879  0.4106 -0.6200
  135OSM    C1514596   6.250   5.788   5.931  0.0079 -0.7218 -0.2236
  135OSM   H15A14597   6.203   5.736   5.849 -0.2109  0.8463 -1.1466
  135OSM   H15B14598   6.353   5.813   5.912 -0.2042 -0.8160 -1.6209
  135OSM   H15C14599   6.196   5.882   5.928  3.9661  1.8550  1.0872
  135OSM    C1414600   6.357   5.615   6.054 -0.2099 -0.6018  0.0321
  135OSM   H14A14601   6.450   5.660   6.022 -0.5516 -0.1462 -0.3419
  135OSM   H14B14602   6.333   5.533   5.988  1.0648 -0.7098 -0.3340
  135OSM   H14C14603   6.381   5.564   6.146  3.0079 -1.7176 -1.2791
  135OSM    C1314604   6.291   5.826   6.170 -0.5149 -0.0867  0.4825
  135OSM   H13A14605   6.360   5.892   6.120 -1.8501  0.0914 -1.2178
  135OSM   H13B14606   6.331   5.778   6.258 -0.7046 -0.8503  0.1595
  135OSM   H13C14607   6.206   5.884   6.201  0.6344  0.6549  2.4428
  135OSM    C1214608   6.106   5.670   6.103 -0.0414 -0.7874  0.3786
  135OSM   H12A14609   6.099   5.654   6.210 -2.1090  0.0202  0.4031
  135OSM   H12B14610   6.096   5.579   6.045 -1.9722  0.6611 -1.6934
  135OSM    C1114611   5.975   5.754   6.076 -0.4348 -0.1848 -0.6244
  135OSM   H11A14612   5.892   5.686   6.105 -1.4729  0.2770 -2.3697
  135OSM   H11B14613   5.959   5.770   5.967  0.9870 -1.2259 -1.0105
  135OSM      P14614   5.963   5.873   6.308  0.3846 -0.0011 -0.0456
  135OSM    O1314615   5.879   5.993   6.347 -0.0407 -0.1115 -0.2875
  135OSM    O1414616   5.911   5.742   6.351 -0.1460  0.1470  0.4289
  135OSM    O1114617   6.105   5.882   6.370  0.0992  0.0169  0.2468
  135OSM    O1214618   5.977   5.875   6.148  0.5280  0.0789 -0.4564
  135OSM    C1S14619   6.162   5.985   6.456  0.2431  0.3378  0.4587
  135OSM    H1S14620   6.096   6.074   6.457  2.4357  2.0943 -1.1838
  135OSM    H1T14621   6.267   6.006   6.425  1.3367 -0.3112  3.3507
  135OSM     NF14622   6.193   6.033   6.704  0.1935  0.8217  0.4717
  135OSM    HNF14623   6.283   6.037   6.746  0.7375  0.8608 -0.6612
  135OSM    C2S14624   6.174   5.926   6.598 -0.0188  0.0136  1.4180
  135OSM    H2S14625   6.077   5.879   6.626 -0.7918 -0.5252 -1.7550
  135OSM    C3S14626   6.285   5.823   6.599  0.6393 -0.1926  0.6405
  135OSM    H3S14627   6.381   5.875   6.579  0.5564  0.9223  2.7960
  135OSM     O314628   6.278   5.719   6.500 -0.1485  0.3161  0.0927
  135OSM    HO314629   6.205   5.744   6.443 -0.9195  0.4352  1.1046
  135OSM    C4S14630   6.294   5.770   6.745 -0.2927  0.2331 -0.8848
  135OSM    H4S14631   6.197   5.738   6.785 -0.6931  0.3019 -1.7621
  135OSM    C5S14632   6.409   5.766   6.829  0.8425 -0.2480  0.0073
  135OSM    H5S14633   6.509   5.792   6.790  0.1809  0.1510 -1.5269
  135OSM    C6S14634   6.404   5.721   6.974 -1.0344  0.7132  0.1191
  135OSM    H6S14635   6.457   5.626   6.997  1.1945  2.2553  1.7417
  135OSM    H6T14636   6.297   5.700   6.997 -1.4748  1.8991 -0.7274
  135OSM    C7S14637   6.452   5.829   7.073 -0.1915  0.2151  0.0119
  135OSM    H7S14638   6.408   5.927   7.046  0.6388  0.8683  0.9243
  135OSM    H7T14639   6.562   5.828   7.089 -0.0948 -1.3463 -0.5657
  135OSM    C8S14640   6.403   5.808   7.220  0.3875  0.0831  0.2792
  135OSM    H8S14641   6.442   5.711   7.256 -0.5964  0.2650  1.9349
  135OSM    H8T14642   6.293   5.793   7.209  0.3791  0.4286 -0.1450
  135OSM    C9S14643   6.434   5.924   7.315  0.2264  0.6260  0.1811
  135OSM    H9S14644   6.415   6.022   7.266  0.0322  0.8206  0.6423
  135OSM    H9T14645   6.536   5.910   7.358 -1.1957  0.8283  3.9904
  135OSM   C10S14646   6.342   5.924   7.438  0.0934  0.3887  0.6058
  135OSM   H10S14647   6.348   5.820   7.477 -0.5547  0.0458 -0.1932
  135OSM   H10T14648   6.235   5.946   7.419  0.4031  1.0728 -0.3863
  135OSM   C11S14649   6.393   6.020   7.553  0.4614 -0.1551  1.0278
  135OSM   H11S14650   6.367   6.117   7.504  0.9050 -2.0363 -3.3094
  135OSM   H11T14651   6.503   6.019   7.559  0.5416 -0.0285 -0.2103
  135OSM   C12S14652   6.327   6.003   7.692 -0.2194  0.4494 -0.3891
  135OSM   H12S14653   6.235   5.942   7.679  1.2623 -1.5916 -2.1143
  135OSM   H12T14654   6.308   6.099   7.744  0.0129  0.4787 -0.3581
  135OSM   C13S14655   6.419   5.920   7.781  0.1617  0.1514 -0.1326
  135OSM   H13S14656   6.506   5.978   7.816  0.2163 -1.0903  1.9621
  135OSM   H13T14657   6.450   5.837   7.715 -2.8985  0.4926 -2.2302
  135OSM   C14S14658   6.342   5.862   7.899  0.1477  0.6764 -0.4165
  135OSM   H14S14659   6.241   5.837   7.860  0.9818  0.1333 -2.3918
  135OSM   H14T14660   6.327   5.939   7.977  0.3460  0.2765  0.0244
  135OSM   C15S14661   6.402   5.730   7.953  0.7193  0.1918 -0.5402
  135OSM   H15S14662   6.506   5.753   7.985  1.4221 -0.3077 -2.3541
  135OSM   H15T14663   6.406   5.661   7.866  0.2729 -1.8102  0.9412
  135OSM   C16S14664   6.333   5.652   8.068  0.3668  0.0130  0.5314
  135OSM   H16S14665   6.355   5.543   8.069 -3.3572 -0.8697  0.3402
  135OSM   H16T14666   6.222   5.658   8.067  0.1733 -2.4496  1.1893
  135OSM   C17S14667   6.386   5.709   8.205  1.0222  0.3726 -0.0038
  135OSM   H17S14668   6.302   5.764   8.253  1.7218  0.9183  0.5999
  135OSM   H17T14669   6.453   5.796   8.193  1.7842 -0.2683 -0.4847
  135OSM   C18S14670   6.442   5.608   8.307 -0.6098 -0.1352  0.0758
  135OSM   H18S14671   6.378   5.518   8.320  1.5982 -1.9651 -0.9215
  135OSM   H18T14672   6.461   5.655   8.406  0.4960 -0.7633  0.1905
  135OSM   H18U14673   6.544   5.577   8.276  0.2877 -0.4016  2.9419
  135OSM    C1F14674   6.101   6.122   6.735 -0.2763  0.7430 -0.1683
  135OSM     OF14675   5.984   6.110   6.694 -0.1227 -0.0949 -0.6680
  135OSM    C2F14676   6.145   6.231   6.828  0.2488  0.3912  0.4462
  135OSM    H2F14677   6.062   6.252   6.899  1.3892  0.3347  1.8269
  135OSM    H2G14678   6.146   6.324   6.766 -2.1883  1.1360  1.4146
  135OSM    C3F14679   6.268   6.200   6.912 -0.7466  0.3369 -0.2589
  135OSM    H3F14680   6.356   6.189   6.845 -1.2211 -2.2133 -0.5556
  135OSM    H3G14681   6.251   6.101   6.960 -0.4832  0.6535  0.5038
  135OSM    C4F14682   6.298   6.321   7.002  0.9922 -0.0068 -0.6805
  135OSM    H4F14683   6.210   6.330   7.068  1.6503 -3.8154  1.0022
  135OSM    H4G14684   6.308   6.414   6.941  0.9027  0.8123  0.5165
  135OSM    C5F14685   6.426   6.304   7.074  0.0674  0.3020 -0.2985
  135OSM    H5F14686   6.508   6.336   7.005 -2.1521  0.3408 -3.1141
  135OSM    H5G14687   6.444   6.200   7.109  1.6686  0.3325 -0.9210
  135OSM    C6F14688   6.419   6.402   7.193 -0.1533  0.4990  0.1394
  135OSM    H6F14689   6.331   6.376   7.255  1.0544  1.4511  2.3636
  135OSM    H6G14690   6.408   6.508   7.163 -0.0676 -0.2814 -3.0196
  135OSM    C7F14691   6.541   6.386   7.288  0.7124 -0.0390  0.5219
  135OSM    H7F14692   6.624   6.435   7.233  0.3955  0.1349  0.1986
  135OSM    H7G14693   6.559   6.278   7.307  1.1054 -0.6898 -2.9235
  135OSM    C8F14694   6.507   6.461   7.415 -1.5468  0.6070 -0.8642
  135OSM    H8F14695   6.425   6.407   7.465 -0.9345  1.7332  1.4819
  135OSM    H8G14696   6.471   6.564   7.393  0.7547  1.0721 -2.9989
  135OSM    C9F14697   6.624   6.461   7.515 -0.6714 -0.1405 -0.3975
  135OSM    H9F14698   6.725   6.473   7.473  0.2342 -0.2554  1.6319
  135OSM   C10F14699   6.607   6.475   7.651 -0.2137  1.5617  0.3804
  135OSM   H10F14700   6.694   6.494   7.715 -0.0527  1.7522  0.1055
  135OSM   C11F14701   6.479   6.481   7.731  0.2480 -0.1646  0.1070
  135OSM   H11F14702   6.401   6.481   7.652 -1.5619  1.0684  1.8026
  135OSM   H11G14703   6.468   6.573   7.791  0.5825  0.1423 -0.2913
  135OSM   C12F14704   6.444   6.369   7.823  0.3935 -0.2044 -0.3819
  135OSM   H12F14705   6.457   6.274   7.766  0.9445 -0.1489 -0.3541
  135OSM   H12G14706   6.337   6.380   7.851  0.4293 -1.2048  0.1927
  135OSM   C13F14707   6.535   6.361   7.944 -1.0124  0.1056  1.1251
  135OSM   H13F14708   6.542   6.456   8.000  1.4874  0.0509  0.9857
  135OSM   H13G14709   6.632   6.332   7.898 -0.8045 -0.0846  1.6825
  135OSM   C14F14710   6.507   6.236   8.025 -0.5951 -0.4756 -0.3667
  135OSM   H14F14711   6.470   6.151   7.963  1.6484 -0.3035 -2.0350
  135OSM   H14G14712   6.426   6.254   8.099 -1.2787  0.2935 -1.2796
  135OSM   C15F14713   6.628   6.175   8.101  0.1525  0.5207  0.1947
  135OSM   H15F14714   6.682   6.108   8.031 -0.2315  0.3756  0.0329
  135OSM   H15G14715   6.579   6.105   8.172 -1.0809 -1.1085 -2.1111
  135OSM   C16F14716   6.723   6.273   8.164 -0.5459 -0.2065 -0.0417
  135OSM   H16F14717   6.654   6.340   8.219 -1.3262 -1.6081  0.7495
  135OSM   H16G14718   6.783   6.333   8.093  3.4237 -4.6161 -0.9134
  135OSM   C17F14719   6.794   6.216   8.291 -0.2288 -0.6353  0.4197
  135OSM   H17F14720   6.886   6.164   8.259  0.2781 -0.2753  1.2524
  135OSM   H17G14721   6.732   6.138   8.341  1.3894 -3.2684 -1.4543
  135OSM   C18F14722   6.840   6.326   8.394  0.2187  0.0939  0.5463
  135OSM   H18F14723   6.924   6.285   8.454  0.3478 -0.4713 -0.0093
  135OSM   H18G14724   6.765   6.359   8.469  0.8290  0.8809  0.8233
  135OSM   H18H14725   6.888   6.413   8.344 -0.5272  0.0822 -0.2027
  136OSM      N14726   5.198   1.273   5.920 -0.1431 -0.1388 -0.1160
  136OSM    C1514727   5.125   1.391   5.873 -0.1826 -0.4157  0.0358
  136OSM   H15A14728   5.172   1.448   5.795  1.9369  0.1865  1.6566
  136OSM   H15B14729   5.104   1.461   5.953 -1.0105 -0.2744 -0.2972
  136OSM   H15C14730   5.025   1.358   5.847 -0.1192 -0.4204 -0.2000
  136OSM    C1414731   5.179   1.168   5.811  0.6232  0.1709 -0.2697
  136OSM   H14A14732   5.072   1.156   5.802  0.5427  1.8606 -2.5450
  136OSM   H14B14733   5.229   1.075   5.834 -0.0813  0.3022  1.9736
  136OSM   H14C14734   5.210   1.213   5.717 -0.7439  1.7025 -0.0237
  136OSM    C1314735   5.345   1.315   5.934  0.9151  0.1445 -1.0234
  136OSM   H13A14736   5.355   1.398   6.002 -0.6904  0.2997 -0.9388
  136OSM   H13B14737   5.381   1.346   5.837  0.1841 -0.0945 -1.3804
  136OSM   H13C14738   5.403   1.231   5.971 -0.8640 -0.5012  0.4343
  136OSM    C1214739   5.148   1.231   6.055  0.2355  0.1143 -0.0620
  136OSM   H12A14740   5.040   1.226   6.054  0.2211 -1.6922  2.2409
  136OSM   H12B14741   5.170   1.312   6.123  1.8303  0.0254 -0.4217
  136OSM    C1114742   5.190   1.092   6.116 -0.1721  0.6542  0.5879
  136OSM   H11A14743   5.142   1.015   6.052  1.1530  0.7175 -0.5400
  136OSM   H11B14744   5.150   1.082   6.219 -2.8487  1.1816 -0.3246
  136OSM      P14745   5.406   0.969   6.034  0.4871 -0.1077  0.2188
  136OSM    O1314746   5.316   0.900   5.940 -0.3323 -0.6000  0.1555
  136OSM    O1414747   5.530   1.022   5.974  0.3872  0.4751 -0.1342
  136OSM    O1114748   5.436   0.876   6.153  0.8958 -0.5046 -0.6676
  136OSM    O1214749   5.335   1.084   6.116  0.6961 -0.0170 -0.2068
  136OSM    C1S14750   5.501   0.917   6.275 -0.0963 -0.2400  0.1403
  136OSM    H1S14751   5.530   1.024   6.270 -1.6681  0.1879 -0.4392
  136OSM    H1T14752   5.584   0.846   6.292 -0.1067 -0.3153 -0.1274
  136OSM     NF14753   5.499   0.939   6.519 -0.0951  0.0730 -0.5690
  136OSM    HNF14754   5.543   0.868   6.573  0.0737  0.2989 -0.4056
  136OSM    C2S14755   5.410   0.900   6.407  0.0092  0.0053  0.2335
  136OSM    H2S14756   5.319   0.962   6.394  0.2571  0.4876  0.7478
  136OSM    C3S14757   5.354   0.753   6.407 -0.3178 -0.1955  0.0971
  136OSM    H3S14758   5.449   0.697   6.422 -1.0351 -1.3038  0.6262
  136OSM     O314759   5.290   0.714   6.288  0.0334 -0.3842 -0.6757
  136OSM    HO314760   5.337   0.772   6.227  0.4153  0.6805  0.6073
  136OSM    C4S14761   5.279   0.737   6.534 -0.2618 -0.6323 -0.2249
  136OSM    H4S14762   5.337   0.702   6.620  0.3273 -1.8713 -1.1012
  136OSM    C5S14763   5.142   0.746   6.546 -0.1302 -0.2932  0.4566
  136OSM    H5S14764   5.090   0.782   6.456  1.5391  1.7342  0.2387
  136OSM    C6S14765   5.052   0.731   6.671 -0.1990  0.6401  0.4540
  136OSM    H6S14766   5.029   0.625   6.696  0.7910  0.2186 -0.3243
  136OSM    H6T14767   4.952   0.777   6.662  1.0088  3.7541  1.5742
  136OSM    C7S14768   5.117   0.795   6.793  0.4966 -0.0958  0.1424
  136OSM    H7S14769   5.126   0.904   6.774 -0.6282  0.2256  1.2964
  136OSM    H7T14770   5.214   0.745   6.815 -0.7061 -2.5417  0.2636
  136OSM    C8S14771   5.042   0.771   6.924  0.3028  0.3438 -1.0760
  136OSM    H8S14772   5.015   0.665   6.941  1.0915  0.5148  1.7389
  136OSM    H8T14773   4.943   0.821   6.923  0.1992  0.3259  1.9193
  136OSM    C9S14774   5.115   0.829   7.048 -0.3254  0.2586  0.2075
  136OSM    H9S14775   5.146   0.933   7.026  0.6088 -0.3903 -1.7846
  136OSM    H9T14776   5.215   0.781   7.055  0.7807  1.8425 -2.9494
  136OSM   C10S14777   5.045   0.812   7.181 -0.4461  0.1640 -0.1867
  136OSM   H10S14778   5.003   0.709   7.192  0.1632 -0.2761 -1.7297
  136OSM   H10T14779   4.963   0.886   7.190  0.9438  1.9406 -1.4961
  136OSM   C11S14780   5.126   0.840   7.310 -0.6396 -0.0902 -0.3769
  136OSM   H11S14781   5.203   0.912   7.275 -1.1982  0.3908 -0.6377
  136OSM   H11T14782   5.187   0.750   7.330 -0.7083 -0.2255 -0.7648
  136OSM   C12S14783   5.048   0.878   7.444  1.0302 -0.6921  0.6548
  136OSM   H12S14784   4.982   0.791   7.465 -0.3360  0.4200  1.1390
  136OSM   H12T14785   4.980   0.965   7.431  2.3015  0.2460  0.0599
  136OSM   C13S14786   5.141   0.919   7.560 -0.3175  0.0070 -0.1950
  136OSM   H13S14787   5.189   1.012   7.522  0.8210 -0.0290  1.0821
  136OSM   H13T14788   5.221   0.843   7.570 -1.2573 -0.9582  0.2057
  136OSM   C14S14789   5.070   0.948   7.691  0.2933 -0.1138 -0.0030
  136OSM   H14S14790   5.009   0.861   7.725 -0.4676 -0.1550 -1.4206
  136OSM   H14T14791   5.000   1.031   7.668  1.5242  0.1703 -3.1271
  136OSM   C15S14792   5.174   0.974   7.800 -0.2791 -0.3704  0.4035
  136OSM   H15S14793   5.262   1.035   7.771  0.4093 -0.2129  2.6798
  136OSM   H15T14794   5.216   0.877   7.835 -1.4345 -1.1043 -0.1763
  136OSM   C16S14795   5.121   1.046   7.924  0.6304 -0.1399 -0.1034
  136OSM   H16S14796   5.030   0.991   7.955  0.8303  0.6609  2.1473
  136OSM   H16T14797   5.091   1.149   7.896 -2.0244 -0.7935  0.0658
  136OSM   C17S14798   5.206   1.058   8.045  0.5459 -0.1353 -0.6520
  136OSM   H17S14799   5.251   0.958   8.057  0.0699 -0.4972 -1.7914
  136OSM   H17T14800   5.140   1.090   8.129  0.3827  0.5239 -1.0226
  136OSM   C18S14801   5.318   1.155   8.031  0.1753 -0.7024  0.2498
  136OSM   H18S14802   5.383   1.130   7.944 -1.4434 -2.2133 -0.5876
  136OSM   H18T14803   5.377   1.166   8.125  1.0808 -0.4108 -0.3322
  136OSM   H18U14804   5.282   1.257   8.003 -1.2748 -0.2461  3.3813
  136OSM    C1F14805   5.512   1.065   6.561 -0.5514 -0.0209 -0.3645
  136OSM     OF14806   5.488   1.156   6.481 -0.0065  0.0091  0.3196
  136OSM    C2F14807   5.547   1.094   6.705 -0.4044  0.0254  0.1060
  136OSM    H2F14808   5.576   1.201   6.694 -2.9944  0.6848 -1.0241
  136OSM    H2G14809   5.635   1.035   6.739  1.6686  3.3454  0.9896
  136OSM    C3F14810   5.431   1.075   6.803 -0.1095 -0.4064  0.5985
  136OSM    H3F14811   5.387   0.975   6.780 -0.9851  0.3424 -1.2542
  136OSM    H3G14812   5.350   1.146   6.777  0.6796 -1.2960 -6.2052
  136OSM    C4F14813   5.471   1.087   6.946 -0.8316 -0.3549 -0.7881
  136OSM    H4F14814   5.582   1.079   6.949 -0.7721  0.1627 -1.4044
  136OSM    H4G14815   5.425   1.011   7.013  0.2584 -0.6848 -0.3833
  136OSM    C5F14816   5.432   1.227   7.002  0.3605  0.0409 -0.3456
  136OSM    H5F14817   5.321   1.223   7.004  0.3916 -1.8443  0.4982
  136OSM    H5G14818   5.465   1.303   6.929 -0.3986  0.2136 -0.5161
  136OSM    C6F14819   5.496   1.240   7.147 -0.4624  0.2849  0.6544
  136OSM    H6F14820   5.605   1.224   7.148 -0.5670 -0.6691  2.8014
  136OSM    H6G14821   5.453   1.156   7.207 -1.3970 -0.1258 -0.5412
  136OSM    C7F14822   5.460   1.370   7.209 -0.4322 -0.3301  0.1713
  136OSM    H7F14823   5.501   1.369   7.313 -0.9384  0.5415  0.3944
  136OSM    H7G14824   5.350   1.364   7.222 -0.4303 -0.8375 -0.0208
  136OSM    C8F14825   5.491   1.507   7.148  0.0258 -0.4010  0.6368
  136OSM    H8F14826   5.425   1.581   7.198 -1.8404 -0.3495 -1.7351
  136OSM    H8G14827   5.443   1.499   7.048 -1.4379  1.0650  1.1732
  136OSM    C9F14828   5.635   1.547   7.149 -0.3624 -0.2607 -0.0213
  136OSM    H9F14829   5.705   1.508   7.074  0.4760 -0.5047  0.8618
  136OSM   C10F14830   5.702   1.608   7.255 -0.6999 -0.8059 -0.5613
  136OSM   H10F14831   5.811   1.620   7.248 -0.4160 -1.1073  2.1880
  136OSM   C11F14832   5.642   1.658   7.379 -0.6006  0.6615  0.9348
  136OSM   H11F14833   5.541   1.618   7.401 -0.4505 -0.0169  0.4044
  136OSM   H11G14834   5.628   1.768   7.367  0.2816  0.5076 -2.6524
  136OSM   C12F14835   5.731   1.621   7.499 -0.4185  0.2939  0.7261
  136OSM   H12F14836   5.827   1.676   7.487 -0.5083 -0.0643 -2.4803
  136OSM   H12G14837   5.753   1.513   7.507 -0.6659  0.1437 -0.3780
  136OSM   C13F14838   5.672   1.652   7.637  0.4711  0.4024 -0.3120
  136OSM   H13F14839   5.661   1.762   7.646  1.1181  0.3355  1.9784
  136OSM   H13G14840   5.741   1.622   7.719  1.3503  1.2892 -0.6967
  136OSM   C14F14841   5.534   1.595   7.662 -0.2708  0.3745 -0.0423
  136OSM   H14F14842   5.458   1.640   7.595 -1.3082  0.2139  0.9931
  136OSM   H14G14843   5.513   1.621   7.768 -2.2022  2.1107 -0.7773
  136OSM   C15F14844   5.527   1.440   7.647 -0.4842  0.3982 -0.2877
  136OSM   H15F14845   5.540   1.406   7.542  0.1314  2.1795 -0.8319
  136OSM   H15G14846   5.430   1.410   7.691  0.6176 -1.1899  1.2020
  136OSM   C16F14847   5.621   1.361   7.745  0.0112 -0.4912  0.3140
  136OSM   H16F14848   5.723   1.381   7.704 -1.0126  1.3983 -1.4784
  136OSM   H16G14849   5.605   1.252   7.734 -0.9090 -0.3906  0.6330
  136OSM   C17F14850   5.601   1.394   7.897 -0.5125 -0.1012  0.3978
  136OSM   H17F14851   5.492   1.384   7.914 -0.2844 -1.2341  1.2677
  136OSM   H17G14852   5.635   1.498   7.917  2.0061 -0.4118 -1.7033
  136OSM   C18F14853   5.667   1.302   7.991  0.0832 -0.4409  0.1360
  136OSM   H18F14854   5.767   1.342   8.016 -0.5840  1.3940  0.0086
  136OSM   H18G14855   5.682   1.202   7.944 -1.7336 -0.1932 -1.0633
  136OSM   H18H14856   5.623   1.295   8.094  0.9061 -0.8988  0.4650
  137OSM      N14857   5.716   4.550   6.044 -0.7319 -0.7037  0.3955
  137OSM    C1514858   5.614   4.490   6.135  0.2364 -0.2280  0.3771
  137OSM   H15A14859   5.596   4.560   6.215 -3.7517  0.1920 -0.6568
  137OSM   H15B14860   5.643   4.395   6.178  2.9429 -0.8171 -2.3688
  137OSM   H15C14861   5.520   4.484   6.082 -0.2617  3.7146  0.5307
  137OSM    C1414862   5.765   4.453   5.943 -0.1838  0.3217  0.0913
  137OSM   H14A14863   5.807   4.369   5.996 -0.7972 -0.6495 -0.9312
  137OSM   H14B14864   5.846   4.498   5.887 -0.8225  2.3727  0.7018
  137OSM   H14C14865   5.690   4.421   5.873 -0.6178 -0.1914  0.7842
  137OSM    C1314866   5.658   4.671   5.976 -0.3476 -0.0737 -0.9796
  137OSM   H13A14867   5.574   4.647   5.912 -2.2792  0.6432  1.1671
  137OSM   H13B14868   5.733   4.728   5.923 -1.8769  3.4161  0.3115
  137OSM   H13C14869   5.620   4.735   6.054  1.0126 -1.9741  1.3633
  137OSM    C1214870   5.841   4.592   6.110  0.5659  0.1035 -0.4330
  137OSM   H12A14871   5.825   4.683   6.165  1.3268  0.8325 -1.3889
  137OSM   H12B14872   5.917   4.606   6.035  2.3630 -0.1385  1.2707
  137OSM    C1114873   5.920   4.487   6.199 -0.1687 -0.2610 -0.5955
  137OSM   H11A14874   6.027   4.514   6.212  0.1129 -0.3685 -2.3454
  137OSM   H11B14875   5.934   4.384   6.162 -2.0999 -1.0222  0.6227
  137OSM      P14876   5.847   4.565   6.431 -0.0290  0.1170 -0.3399
  137OSM    O1314877   5.986   4.615   6.449  0.0999  0.5755  0.1658
  137OSM    O1414878   5.741   4.669   6.413  0.0323 -0.1778  0.2074
  137OSM    O1114879   5.804   4.481   6.558  0.3501 -0.0653  0.6068
  137OSM    O1214880   5.849   4.461   6.319 -0.0142  0.5830  0.4691
  137OSM    C1S14881   5.902   4.415   6.645 -0.3398  0.3410  0.3202
  137OSM    H1S14882   6.006   4.428   6.608 -0.4576  0.2762 -0.0392
  137OSM    H1T14883   5.879   4.306   6.649 -0.1021  0.3186  1.2335
  137OSM     NF14884   5.978   4.383   6.863  0.3590 -0.4447 -0.1266
  137OSM    HNF14885   5.930   4.309   6.909 -1.3918  1.2539  0.9163
  137OSM    C2S14886   5.895   4.468   6.786  0.3745  0.5868 -0.0698
  137OSM    H2S14887   5.943   4.568   6.793  1.3219  0.0360  2.5582
  137OSM    C3S14888   5.751   4.484   6.835 -0.6458  0.0201  0.2298
  137OSM    H3S14889   5.692   4.393   6.811 -0.3231 -0.3015  0.6298
  137OSM     O314890   5.685   4.593   6.769  0.0277  0.3856  0.7946
  137OSM    HO314891   5.726   4.587   6.682 -2.3312 -1.3766 -0.3252
  137OSM    C4S14892   5.748   4.519   6.981 -0.6372 -0.5153  0.2529
  137OSM    H4S14893   5.810   4.604   7.014 -1.9901 -0.4376  2.8478
  137OSM    C5S14894   5.686   4.464   7.094 -0.0270  0.1054  0.2697
  137OSM    H5S14895   5.622   4.376   7.079  0.8626 -0.6713  0.8986
  137OSM    C6S14896   5.690   4.508   7.244  0.2447 -0.4353  0.1664
  137OSM    H6S14897   5.694   4.420   7.312 -0.5009 -0.4266  0.2290
  137OSM    H6T14898   5.594   4.557   7.272 -1.2170 -1.4675 -2.5890
  137OSM    C7S14899   5.807   4.585   7.290 -0.6475  0.3580 -0.2441
  137OSM    H7S14900   5.807   4.689   7.252 -1.0417  0.0369 -1.1588
  137OSM    H7T14901   5.902   4.535   7.259 -0.9038  0.2190 -0.8238
  137OSM    C8S14902   5.813   4.598   7.440 -0.0575  0.3171  0.0066
  137OSM    H8S14903   5.900   4.664   7.462 -0.0707  0.3792 -0.1291
  137OSM    H8T14904   5.819   4.498   7.489 -0.1395  0.1806 -0.2589
  137OSM    C9S14905   5.689   4.672   7.497  0.4382 -0.2955 -0.1918
  137OSM    H9S14906   5.599   4.611   7.473  1.2073 -0.9699 -1.5168
  137OSM    H9T14907   5.673   4.769   7.445  0.4473  0.3257  0.9401
  137OSM   C10S14908   5.679   4.686   7.647  0.7560 -0.2372 -0.1037
  137OSM   H10S14909   5.604   4.767   7.656  1.0136  0.1321 -1.1244
  137OSM   H10T14910   5.779   4.722   7.677  0.5064  0.4394 -0.0713
  137OSM   C11S14911   5.635   4.564   7.709 -0.0551  1.2824 -0.0495
  137OSM   H11S14912   5.710   4.484   7.697 -0.4240  1.2082 -2.2955
  137OSM   H11T14913   5.542   4.529   7.659 -0.0459  0.8677  0.2218
  137OSM   C12S14914   5.593   4.582   7.857 -0.0502 -0.1039 -1.1713
  137OSM   H12S14915   5.483   4.575   7.867 -0.0522  2.1855  2.2353
  137OSM   H12T14916   5.628   4.681   7.893  2.1724 -1.9844  2.5182
  137OSM   C13S14917   5.660   4.473   7.948 -0.0829  0.3513 -0.2939
  137OSM   H13S14918   5.767   4.496   7.968  0.5105 -0.4904 -2.2251
  137OSM   H13T14919   5.648   4.368   7.912 -1.3674  0.3771 -0.0073
  137OSM   C14S14920   5.580   4.456   8.080 -0.0648 -0.2299 -0.6337
  137OSM   H14S14921   5.480   4.409   8.066 -0.2794 -0.3703  1.2063
  137OSM   H14T14922   5.554   4.558   8.115 -3.1528 -1.4331  0.9788
  137OSM   C15S14923   5.657   4.383   8.195 -0.1819 -0.3684  1.0113
  137OSM   H15S14924   5.749   4.437   8.223  0.1829 -0.0311 -0.7111
  137OSM   H15T14925   5.685   4.283   8.153 -2.2618 -0.9705  0.9132
  137OSM   C16S14926   5.566   4.350   8.311 -0.0841 -0.8563  0.1232
  137OSM   H16S14927   5.473   4.298   8.281  0.9359 -1.0984 -2.9305
  137OSM   H16T14928   5.527   4.448   8.346  0.9934 -0.8621  1.4367
  137OSM   C17S14929   5.626   4.264   8.425  0.0060 -0.3627 -0.2753
  137OSM   H17S14930   5.720   4.319   8.444 -1.1395  1.2875  0.9390
  137OSM   H17T14931   5.642   4.170   8.368 -0.9042 -0.5479 -0.2379
  137OSM   C18S14932   5.546   4.236   8.556  0.0549  0.5507  0.2910
  137OSM   H18S14933   5.614   4.178   8.621  0.4644 -2.8535 -2.8487
  137OSM   H18T14934   5.460   4.169   8.532  0.8223 -0.2666 -0.2687
  137OSM   H18U14935   5.501   4.326   8.602 -2.7886 -1.0389  0.8459
  137OSM    C1F14936   6.108   4.384   6.854 -0.3303  0.0723 -0.5145
  137OSM     OF14937   6.161   4.458   6.778  0.0362 -0.0027  0.1742
  137OSM    C2F14938   6.187   4.282   6.940 -0.2164 -0.0340  0.6336
  137OSM    H2F14939   6.206   4.190   6.881  0.6043  1.7550 -2.1009
  137OSM    H2G14940   6.127   4.260   7.031  0.8597 -1.4706  1.0148
  137OSM    C3F14941   6.325   4.336   6.996  1.0450 -0.3212  0.8388
  137OSM    H3F14942   6.398   4.333   6.913  0.0309  1.9052 -0.2003
  137OSM    H3G14943   6.363   4.262   7.070 -0.4979  0.6241  2.6643
  137OSM    C4F14944   6.322   4.465   7.078  0.0075  0.5375 -0.2181
  137OSM    H4F14945   6.304   4.548   7.005 -1.2153 -0.6042 -1.2688
  137OSM    H4G14946   6.421   4.482   7.124  0.0200 -3.5396  1.6776
  137OSM    C5F14947   6.213   4.470   7.191 -0.1438  0.0422 -0.4131
  137OSM    H5F14948   6.234   4.378   7.250  1.2280 -0.7267 -2.0235
  137OSM    H5G14949   6.106   4.464   7.162 -0.6110  0.7112  1.0613
  137OSM    C6F14950   6.222   4.598   7.274 -0.5829 -0.1388  0.4321
  137OSM    H6F14951   6.329   4.603   7.306 -0.7217 -0.1464  0.9023
  137OSM    H6G14952   6.169   4.582   7.370  2.1596 -1.1996  1.8990
  137OSM    C7F14953   6.168   4.719   7.202  0.3759 -0.4323 -0.4982
  137OSM    H7F14954   6.067   4.702   7.159  0.4267  0.8637 -1.1822
  137OSM    H7G14955   6.236   4.750   7.120 -0.5152  0.4381 -0.9319
  137OSM    C8F14956   6.160   4.846   7.289  0.7205 -0.3817  0.0562
  137OSM    H8F14957   6.085   4.832   7.370  1.3694  0.4760  0.8327
  137OSM    H8G14958   6.125   4.933   7.229 -0.5539 -1.7384 -1.2388
  137OSM    C9F14959   6.294   4.886   7.343  0.1960  0.2138 -0.5137
  137OSM    H9F14960   6.367   4.892   7.261  2.0198 -1.7533  0.8481
  137OSM   C10F14961   6.322   4.906   7.474 -0.4193  0.7797  0.2342
  137OSM   H10F14962   6.423   4.945   7.489 -0.4808  1.5908 -1.2709
  137OSM   C11F14963   6.221   4.893   7.590  1.3184 -0.0730  0.3519
  137OSM   H11F14964   6.160   4.801   7.575 -0.4329  0.7766  1.9018
  137OSM   H11G14965   6.157   4.983   7.578  1.2393 -0.2253 -0.4887
  137OSM   C12F14966   6.276   4.886   7.730  0.6642 -0.7377  0.1911
  137OSM   H12F14967   6.328   4.982   7.757  1.2771 -0.7028 -1.0499
  137OSM   H12G14968   6.353   4.807   7.746  1.1489 -0.0296  1.6231
  137OSM   C13F14969   6.159   4.868   7.829  0.0408  0.3452 -0.0004
  137OSM   H13F14970   6.078   4.941   7.810 -0.4638 -0.3084 -0.4083
  137OSM   H13G14971   6.197   4.873   7.933  0.7672  0.4420 -0.2642
  137OSM   C14F14972   6.102   4.729   7.808 -0.2323 -0.2316 -0.1049
  137OSM   H14F14973   6.170   4.655   7.761  0.6330  0.3701  0.1849
  137OSM   H14G14974   6.009   4.726   7.746  0.8205  0.0565 -1.7549
  137OSM   C15F14975   6.059   4.669   7.945  0.2785 -0.0885  0.9403
  137OSM   H15F14976   6.153   4.647   8.001  0.9267  1.2263  0.4098
  137OSM   H15G14977   6.001   4.576   7.927 -0.1479  0.6378 -2.0428
  137OSM   C16F14978   5.961   4.756   8.033  0.3824 -0.0497  0.1259
  137OSM   H16F14979   5.867   4.759   7.973 -0.1813 -0.3643  0.9754
  137OSM   H16G14980   5.999   4.859   8.054 -0.4744  0.7609 -2.0062
  137OSM   C17F14981   5.945   4.693   8.172 -0.0091  0.2000  0.1813
  137OSM   H17F14982   6.044   4.703   8.220 -1.2935  0.8711  2.8877
  137OSM   H17G14983   5.927   4.584   8.160 -1.8916  0.3250  1.4459
  137OSM   C18F14984   5.833   4.765   8.241  0.0123  0.5338 -0.8767
  137OSM   H18F14985   5.830   4.875   8.225  1.6256  0.4820 -1.8291
  137OSM   H18G14986   5.831   4.735   8.347  2.1716 -2.4397 -1.5370
  137OSM   H18H14987   5.736   4.726   8.202  0.4691  1.9096 -3.6951
  138OSM      N14988   6.675   0.635   6.065 -0.1224 -0.2414 -0.4529
  138OSM    C1514989   6.728   0.536   6.162 -0.3666  0.1972  0.1435
  138OSM   H15A14990   6.644   0.512   6.226 -1.5460 -0.9280 -1.7428
  138OSM   H15B14991   6.821   0.554   6.215 -1.1310  1.1733  1.2196
  138OSM   H15C14992   6.756   0.451   6.101 -1.1053  2.0322 -2.9873
  138OSM    C1414993   6.538   0.592   6.020  0.0590  0.2092 -0.1079
  138OSM   H14A14994   6.471   0.574   6.102 -0.6561  2.4021 -0.1566
  138OSM   H14B14995   6.546   0.496   5.971  1.1304 -0.1829  0.7885
  138OSM   H14C14996   6.502   0.667   5.951  0.9294  0.0019 -0.8114
  138OSM    C1314997   6.658   0.772   6.123  1.4082 -0.6473  0.2692
  138OSM   H13A14998   6.734   0.789   6.198 -0.0596  1.3236  1.4190
  138OSM   H13B14999   6.567   0.778   6.181  1.0110  0.0163 -0.4173
  138OSM   H13C15000   6.666   0.850   6.049  0.8821  0.6703  1.5547
  138OSM    C1215001   6.768   0.656   5.948 -0.9285 -0.7496 -1.0945
  138OSM   H12A15002   6.838   0.731   5.983 -1.3264 -2.1009  3.1965
  138OSM   H12B15003   6.715   0.697   5.863 -2.2631 -2.1085 -0.9591
  138OSM    C1115004   6.835   0.529   5.887  0.1299  1.3702 -0.5180
  138OSM   H11A15005   6.886   0.562   5.794  2.1030 -0.4674 -0.1508
  138OSM   H11B15006   6.755   0.453   5.869  0.2560  1.2560 -0.5925
  138OSM      P15007   6.972   0.333   5.983  0.1390 -0.0317 -0.6075
  138OSM    O1315008   6.868   0.253   5.916 -0.6211 -0.3770  0.3195
  138OSM    O1415009   7.112   0.309   5.937  0.2885 -0.2184 -0.3433
  138OSM    O1115010   6.955   0.305   6.140 -0.1418 -0.0607 -0.5853
  138OSM    O1215011   6.934   0.489   5.978 -0.5750  1.2301 -0.2837
  138OSM    C1S15012   7.039   0.366   6.239 -1.0638 -0.0315 -0.9512
  138OSM    H1S15013   7.030   0.476   6.230  0.9010  0.0784 -2.1963
  138OSM    H1T15014   7.144   0.330   6.232 -0.2606  1.2178  2.5639
  138OSM     NF15015   7.071   0.390   6.487 -0.2266  0.1569 -1.0051
  138OSM    HNF15016   7.140   0.350   6.546  0.3314 -0.3095 -1.9445
  138OSM    C2S15017   7.003   0.314   6.377 -0.1440  0.2380 -0.1812
  138OSM    H2S15018   6.897   0.336   6.400  0.7353  3.1432  1.6399
  138OSM    C3S15019   7.019   0.158   6.385  0.3393 -0.5363 -0.1813
  138OSM    H3S15020   7.125   0.131   6.365  0.4460  0.9914 -1.8571
  138OSM     O315021   6.940   0.087   6.297 -0.1457 -0.5137 -0.1916
  138OSM    HO315022   6.892   0.157   6.252 -0.7211  0.3351  1.6248
  138OSM    C4S15023   6.982   0.115   6.524 -0.0986 -0.5530 -0.5254
  138OSM    H4S15024   6.874   0.129   6.536  0.3224  3.3359 -0.0890
  138OSM    C5S15025   7.058   0.060   6.624 -0.1631  0.1208  0.3472
  138OSM    H5S15026   7.164   0.031   6.616 -0.3585 -1.1005  1.7580
  138OSM    C6S15027   7.006   0.022   6.762 -0.2020 -0.3211  0.0472
  138OSM    H6S15028   6.900   0.051   6.780  0.2616  0.9454  0.9623
  138OSM    H6T15029   7.064   0.071   6.844 -2.5043 -0.8399  2.1239
  138OSM    C7S15030   7.012  -0.127   6.796  0.5168 -0.4561  0.2756
  138OSM    H7S15031   7.118  -0.153   6.772 -0.3129 -2.0879 -1.9754
  138OSM    H7T15032   6.946  -0.185   6.729  0.7800 -1.9982  1.3117
  138OSM    C8S15033   6.982  -0.168   6.941  0.4322 -0.4169  0.4805
  138OSM    H8S15034   6.875  -0.160   6.968  0.1008 -4.0574  0.6836
  138OSM    H8T15035   7.046  -0.102   7.004 -1.5121  0.3319  1.7468
  138OSM    C9S15036   7.035  -0.313   6.958 -0.3324 -0.1018  0.1200
  138OSM    H9S15037   7.146  -0.309   6.957 -0.2622 -1.4690 -0.0742
  138OSM    H9T15038   7.012  -0.377   6.870  0.7696  0.4833 -0.6187
  138OSM   C10S15039   6.999  -0.374   7.090 -0.5323  0.6933 -0.3952
  138OSM   H10S15040   7.050  -0.471   7.106  0.4241  1.3609  0.7487
  138OSM   H10T15041   6.891  -0.394   7.073 -0.0262  0.0706 -3.4800
  138OSM   C11S15042   7.036  -0.291   7.215  0.4696 -0.3755  0.1183
  138OSM   H11S15043   6.965  -0.205   7.222 -0.7098 -1.2993 -0.0557
  138OSM   H11T15044   7.135  -0.243   7.205 -0.6400  2.2791  1.0235
  138OSM   C12S15045   7.035  -0.370   7.341 -1.0282  0.3829 -0.5975
  138OSM   H12S15046   7.096  -0.463   7.334 -1.4361  0.0350  0.3103
  138OSM   H12T15047   6.930  -0.402   7.354 -0.4724 -3.2732 -3.5516
  138OSM   C13S15048   7.072  -0.293   7.471 -0.5347 -0.1930 -0.3682
  138OSM   H13S15049   7.017  -0.197   7.472 -0.8242 -0.3449  1.3196
  138OSM   H13T15050   7.180  -0.269   7.465  0.1014 -2.4823  0.8320
  138OSM   C14S15051   7.043  -0.365   7.606 -0.1974 -0.6919 -0.0720
  138OSM   H14S15052   7.102  -0.459   7.613  0.7695 -0.3121 -2.1860
  138OSM   H14T15053   6.934  -0.384   7.618 -0.0282 -1.1178  0.8942
  138OSM   C15S15054   7.096  -0.280   7.728  0.6953 -0.6270  0.4088
  138OSM   H15S15055   7.046  -0.183   7.706  3.7152  1.2980  1.3602
  138OSM   H15T15056   7.202  -0.251   7.716  0.5108  0.2668  0.8351
  138OSM   C16S15057   7.048  -0.339   7.861  0.3113 -0.5015  0.3495
  138OSM   H16S15058   7.075  -0.447   7.864 -0.6112 -0.7259  1.2672
  138OSM   H16T15059   6.937  -0.345   7.872 -0.1306 -0.4976 -2.9416
  138OSM   C17S15060   7.101  -0.256   7.976 -0.1144 -0.3708 -0.8532
  138OSM   H17S15061   7.068  -0.151   7.963 -0.3108 -0.4075 -0.6442
  138OSM   H17T15062   7.212  -0.245   7.972 -0.2912  2.1035 -0.7229
  138OSM   C18S15063   7.044  -0.301   8.116 -0.3834  0.3444  0.4475
  138OSM   H18S15064   6.933  -0.297   8.118 -0.6131  1.4077 -3.8721
  138OSM   H18T15065   7.087  -0.236   8.195 -3.4367  1.0475  1.6490
  138OSM   H18U15066   7.076  -0.403   8.147  2.0689  1.4400  1.8124
  138OSM    C1F15067   7.048   0.517   6.514 -0.2728 -0.1364 -0.1050
  138OSM     OF15068   6.969   0.579   6.447  0.0143 -0.0026 -0.2287
  138OSM    C2F15069   7.106   0.576   6.645 -0.1165  0.0385 -0.2499
  138OSM    H2F15070   7.216   0.561   6.632  0.1946  1.4209  0.5155
  138OSM    H2G15071   7.082   0.505   6.726  3.2964 -1.1098 -0.0676
  138OSM    C3F15072   7.089   0.728   6.675 -0.3416 -0.1811  0.2310
  138OSM    H3F15073   6.982   0.750   6.655 -0.4340 -0.0765  0.8119
  138OSM    H3G15074   7.144   0.782   6.595 -0.1884 -1.9574 -0.9237
  138OSM    C4F15075   7.131   0.782   6.810 -0.3010 -0.3145  0.1347
  138OSM    H4F15076   7.139   0.893   6.812  0.0773 -0.3488  1.0031
  138OSM    H4G15077   7.228   0.737   6.841  0.2830  1.7046  1.5290
  138OSM    C5F15078   7.035   0.756   6.927 -0.4593 -0.2057 -0.4942
  138OSM    H5F15079   7.023   0.650   6.958  0.9185  0.1241  1.2933
  138OSM    H5G15080   6.932   0.794   6.907 -0.3693  1.2661  1.5249
  138OSM    C6F15081   7.088   0.823   7.051  0.4959  0.0469 -0.2435
  138OSM    H6F15082   7.093   0.932   7.027  1.0136 -0.0507 -0.5868
  138OSM    H6G15083   7.178   0.772   7.089  0.2735 -1.2295 -1.3690
  138OSM    C7F15084   6.978   0.814   7.165 -0.5737 -0.4799  1.3384
  138OSM    H7F15085   6.961   0.705   7.173 -1.4302 -0.5777 -1.0606
  138OSM    H7G15086   6.893   0.870   7.119  0.1634 -1.4357 -1.3298
  138OSM    C8F15087   7.014   0.889   7.293  0.3738 -0.3487  0.2372
  138OSM    H8F15088   7.111   0.855   7.336 -0.7369 -1.7032  1.7829
  138OSM    H8G15089   6.939   0.853   7.367  0.7355 -2.3328 -0.3034
  138OSM    C9F15090   7.000   1.037   7.279 -0.1939  0.5247  1.0912
  138OSM    H9F15091   6.970   1.070   7.178  0.0692  0.4845  0.9998
  138OSM   C10F15092   7.027   1.123   7.375  0.2643 -1.1809  0.1907
  138OSM   H10F15093   7.009   1.230   7.353 -1.1373 -1.4868 -0.2414
  138OSM   C11F15094   7.061   1.089   7.518 -0.5231  0.8919 -0.2978
  138OSM   H11F15095   7.106   1.178   7.567  3.8696 -1.2721  0.0901
  138OSM   H11G15096   7.121   0.996   7.528 -1.2417  0.1589 -2.1965
  138OSM   C12F15097   6.932   1.062   7.611  0.3297  0.0483 -0.0814
  138OSM   H12F15098   6.882   0.968   7.580  2.7467 -1.9214  1.6282
  138OSM   H12G15099   6.875   1.157   7.606 -0.5757 -0.4039  1.1071
  138OSM   C13F15100   6.973   1.030   7.757  0.0371 -0.6486 -0.2134
  138OSM   H13F15101   7.040   1.109   7.799  0.7392 -1.3151 -0.0561
  138OSM   H13G15102   7.031   0.936   7.759 -0.0376 -0.7182 -0.9672
  138OSM   C14F15103   6.857   1.020   7.860  0.1413 -0.5470 -0.2502
  138OSM   H14F15104   6.774   0.949   7.843  1.8798 -3.4641  2.4845
  138OSM   H14G15105   6.804   1.118   7.857 -2.1460 -1.6375  1.6541
  138OSM   C15F15106   6.898   0.991   8.003  0.1324 -0.0128  0.3959
  138OSM   H15F15107   6.984   0.920   7.996 -0.2145 -0.4863  0.8772
  138OSM   H15G15108   6.811   0.941   8.050 -0.5081  0.4288 -0.3112
  138OSM   C16F15109   6.945   1.116   8.081  0.1739  0.8068 -0.4292
  138OSM   H16F15110   6.859   1.186   8.079 -0.2604  0.2612 -1.0984
  138OSM   H16G15111   7.025   1.163   8.020  0.6490 -0.6197 -0.9430
  138OSM   C17F15112   6.989   1.102   8.223 -0.1243  0.2260 -0.3184
  138OSM   H17F15113   6.896   1.083   8.282 -1.3105 -0.2072 -2.2151
  138OSM   H17G15114   7.025   1.202   8.255  0.4269 -0.3493  0.9107
  138OSM   C18F15115   7.088   0.993   8.253 -0.0657  0.7838 -0.3152
  138OSM   H18F15116   7.123   0.995   8.358  0.6879 -1.1863 -0.4767
  138OSM   H18G15117   7.176   1.000   8.185 -0.0563  0.7621 -0.3048
  138OSM   H18H15118   7.051   0.889   8.238  0.7208  0.4503 -0.0240
  139OSM      N15119   5.363   3.642   6.075  0.4613 -0.4759  0.0510
  139OSM    C1515120   5.405   3.758   6.161  0.3331  0.2269 -0.8830
  139OSM   H15A15121   5.412   3.719   6.262  0.3747  1.2688 -0.4775
  139OSM   H15B15122   5.335   3.840   6.161 -0.0016 -0.0553 -1.0536
  139OSM   H15C15123   5.503   3.801   6.145  0.0951  2.7087  3.0128
  139OSM    C1415124   5.219   3.606   6.083 -0.1429 -0.9646 -0.2439
  139OSM   H14A15125   5.149   3.681   6.048 -0.2197 -0.6666  0.5327
  139OSM   H14B15126   5.194   3.588   6.186  0.0046 -1.1114 -0.2327
  139OSM   H14C15127   5.208   3.512   6.030  1.1372 -1.1462 -0.2165
  139OSM    C1315128   5.395   3.681   5.936  0.1535  0.1715  0.4609
  139OSM   H13A15129   5.393   3.598   5.866  0.8670 -0.7387  1.4850
  139OSM   H13B15130   5.485   3.740   5.928 -0.0674  0.2718 -2.5150
  139OSM   H13C15131   5.318   3.748   5.902  0.4625  0.7361  0.8643
  139OSM    C1215132   5.446   3.525   6.110 -0.1990  0.7099  1.0062
  139OSM   H12A15133   5.420   3.487   6.208  0.1263  0.0540  0.8402
  139OSM   H12B15134   5.548   3.561   6.110 -0.6351  2.0758 -0.4931
  139OSM    C1115135   5.454   3.407   6.006 -0.0876  0.0159 -0.7792
  139OSM   H11A15136   5.512   3.325   6.054 -2.8631 -2.7245 -1.7602
  139OSM   H11B15137   5.506   3.437   5.912  0.4446 -1.6525 -1.0527
  139OSM      P15138   5.246   3.229   6.046  0.0845 -0.1698  0.3450
  139OSM    O1315139   5.104   3.227   6.006  0.1479  0.3508  0.2810
  139OSM    O1415140   5.320   3.107   6.033 -0.1583  0.7290 -0.3594
  139OSM    O1115141   5.249   3.268   6.199  0.3550  0.3829 -0.3874
  139OSM    O1215142   5.325   3.350   5.972 -0.1393  0.1210  0.0835
  139OSM    C1S15143   5.198   3.178   6.305  0.2895  0.7487 -0.0065
  139OSM    H1S15144   5.217   3.074   6.273 -1.0666  1.7490 -5.0743
  139OSM    H1T15145   5.088   3.182   6.321  0.0456 -0.2375 -1.2744
  139OSM     NF15146   5.225   3.099   6.531  0.4299 -0.5908  0.3400
  139OSM    HNF15147   5.145   3.120   6.587  0.1002  0.7482 -0.6037
  139OSM    C2S15148   5.275   3.197   6.442 -0.3625 -0.4825  0.1651
  139OSM    H2S15149   5.383   3.186   6.421 -0.2271 -1.7380  1.4013
  139OSM    C3S15150   5.257   3.350   6.481 -0.4200 -0.0727  0.5728
  139OSM    H3S15151   5.146   3.358   6.476 -0.4732 -1.1223 -0.4706
  139OSM     O315152   5.310   3.448   6.387 -0.1363 -0.0179 -0.5771
  139OSM    HO315153   5.303   3.396   6.306  1.4702 -2.5857  0.7865
  139OSM    C4S15154   5.315   3.368   6.617  1.2366 -0.0245 -0.3179
  139OSM    H4S15155   5.417   3.330   6.630  1.9120  2.0162  0.8557
  139OSM    C5S15156   5.258   3.429   6.718  0.4188  0.2682 -0.0565
  139OSM    H5S15157   5.152   3.456   6.706 -0.0543 -0.5165  1.8754
  139OSM    C6S15158   5.301   3.452   6.861  0.2379  0.6718  0.3663
  139OSM    H6S15159   5.233   3.521   6.915 -0.2169  0.2988  0.2727
  139OSM    H6T15160   5.403   3.497   6.862 -0.1450  1.7131 -1.8910
  139OSM    C7S15161   5.301   3.311   6.928 -0.4529  0.1509  0.5344
  139OSM    H7S15162   5.385   3.257   6.877 -0.6432 -0.6455  1.0445
  139OSM    H7T15163   5.208   3.258   6.901  1.0379 -1.4996 -1.7715
  139OSM    C8S15164   5.313   3.302   7.076 -0.1010 -0.2766  0.3480
  139OSM    H8S15165   5.265   3.210   7.114  1.3269 -1.1370  0.1202
  139OSM    H8T15166   5.267   3.382   7.139  0.8213  0.5771 -0.0446
  139OSM    C9S15167   5.453   3.302   7.127 -0.6853  0.5737 -0.1684
  139OSM    H9S15168   5.522   3.372   7.075  4.2750 -2.3399  1.7436
  139OSM    H9T15169   5.495   3.203   7.097  1.5235  1.2637  0.4591
  139OSM   C10S15170   5.467   3.318   7.283  0.0132 -0.8049  0.4144
  139OSM   H10S15171   5.388   3.250   7.320 -2.1705  1.6176  0.5144
  139OSM   H10T15172   5.430   3.420   7.306  2.0960  0.1343 -0.1497
  139OSM   C11S15173   5.608   3.274   7.338  0.6394 -0.3580  0.0515
  139OSM   H11S15174   5.671   3.364   7.319  0.6578 -0.2509  0.6070
  139OSM   H11T15175   5.637   3.193   7.268  0.1808  0.8057 -1.5715
  139OSM   C12S15176   5.591   3.259   7.489  0.5485 -0.1391 -0.0542
  139OSM   H12S15177   5.691   3.237   7.532  1.3621 -1.0815 -2.2643
  139OSM   H12T15178   5.530   3.167   7.504 -3.7240  2.4222  0.0962
  139OSM   C13S15179   5.526   3.382   7.568 -0.4238  0.6950  1.3395
  139OSM   H13S15180   5.432   3.417   7.520  0.2568  0.1978 -0.4596
  139OSM   H13T15181   5.603   3.461   7.555  0.1415  0.2266  1.7623
  139OSM   C14S15182   5.503   3.354   7.717 -0.0779 -1.0869  0.0661
  139OSM   H14S15183   5.440   3.263   7.724 -1.2284 -0.4717 -1.5453
  139OSM   H14T15184   5.439   3.435   7.758  0.8369  0.0212 -0.6248
  139OSM   C15S15185   5.637   3.338   7.788  0.2381  1.0894  0.4345
  139OSM   H15S15186   5.692   3.434   7.798 -0.6735  1.4173  3.0791
  139OSM   H15T15187   5.703   3.264   7.740 -0.7738 -0.5388  1.4616
  139OSM   C16S15188   5.619   3.287   7.929  0.0812 -0.6487 -0.7721
  139OSM   H16S15189   5.582   3.369   7.994  0.3584 -2.0676  1.2898
  139OSM   H16T15190   5.720   3.264   7.969 -1.0111 -0.9226  2.0909
  139OSM   C17S15191   5.547   3.154   7.945  0.0859  0.5479  0.2821
  139OSM   H17S15192   5.608   3.080   7.888 -2.8685 -0.7549 -1.4406
  139OSM   H17T15193   5.448   3.151   7.895  0.7494 -1.9620 -1.0740
  139OSM   C18S15194   5.522   3.102   8.091 -0.4288  0.1393  0.1239
  139OSM   H18S15195   5.473   3.002   8.085 -1.9257  0.5648  3.2571
  139OSM   H18T15196   5.462   3.166   8.159 -3.6589 -2.3073 -0.2077
  139OSM   H18U15197   5.624   3.081   8.132 -0.2357 -1.1933 -0.9442
  139OSM    C1F15198   5.259   2.972   6.513  0.2137  0.9508 -1.0147
  139OSM     OF15199   5.356   2.934   6.448  0.2269 -0.1450 -0.7510
  139OSM    C2F15200   5.172   2.874   6.579  0.7411 -0.3617 -0.8299
  139OSM    H2F15201   5.099   2.824   6.511 -0.3496 -0.2870  0.2669
  139OSM    H2G15202   5.113   2.939   6.647  0.9887 -0.3849 -0.5954
  139OSM    C3F15203   5.248   2.769   6.662  0.0599 -0.0692  0.1398
  139OSM    H3F15204   5.331   2.735   6.597  0.1496 -0.4807  0.4652
  139OSM    H3G15205   5.178   2.684   6.675  0.6307 -0.2305  2.7382
  139OSM    C4F15206   5.304   2.829   6.794 -0.7224  0.6016 -0.4280
  139OSM    H4F15207   5.376   2.911   6.774  0.8962  0.4452  3.7106
  139OSM    H4G15208   5.361   2.749   6.846 -1.4324  0.5396  0.2811
  139OSM    C5F15209   5.192   2.887   6.879  0.5559 -0.6997 -0.6323
  139OSM    H5F15210   5.113   2.811   6.866  0.4577 -0.4773 -1.3607
  139OSM    H5G15211   5.172   2.986   6.834  2.5293  0.7384  1.3860
  139OSM    C6F15212   5.232   2.906   7.024 -0.6192  0.4916 -0.4987
  139OSM    H6F15213   5.325   2.966   7.025  1.0371 -1.8608  2.0384
  139OSM    H6G15214   5.263   2.808   7.067 -0.1371  0.0110 -1.8890
  139OSM    C7F15215   5.124   2.955   7.116 -0.4742 -0.5178  0.0745
  139OSM    H7F15216   5.031   2.895   7.109 -1.3433  0.4398  2.5634
  139OSM    H7G15217   5.098   3.057   7.080  2.3072 -0.8648 -3.5006
  139OSM    C8F15218   5.157   2.955   7.270 -0.3456 -0.2972 -0.0302
  139OSM    H8F15219   5.245   3.023   7.276 -0.0109 -0.6446 -0.8508
  139OSM    H8G15220   5.199   2.857   7.301  0.9980  0.3553  0.2924
  139OSM    C9F15221   5.045   3.000   7.361  0.6674  0.1047 -0.5303
  139OSM    H9F15222   4.960   2.931   7.370  1.1968 -0.5043 -0.1003
  139OSM   C10F15223   5.044   3.100   7.451  1.1634 -0.3570  0.0597
  139OSM   H10F15224   4.950   3.121   7.505 -0.8579 -0.1371 -3.3135
  139OSM   C11F15225   5.150   3.205   7.469 -0.6183  0.2086 -0.0163
  139OSM   H11F15226   5.155   3.280   7.387  2.1390 -0.6574 -0.7536
  139OSM   H11G15227   5.243   3.144   7.473 -0.5473  0.3416  0.4333
  139OSM   C12F15228   5.152   3.286   7.603  0.8625  0.5256 -0.3615
  139OSM   H12F15229   5.067   3.357   7.603 -0.4470 -0.9926 -0.7058
  139OSM   H12G15230   5.240   3.354   7.609  1.5994 -0.5084  1.0603
  139OSM   C13F15231   5.150   3.208   7.743 -0.4744 -0.3093 -0.5043
  139OSM   H13F15232   5.248   3.156   7.753 -0.7538 -0.6208  0.9315
  139OSM   H13G15233   5.076   3.129   7.719  0.0038 -1.3534  1.2860
  139OSM   C14F15234   5.126   3.298   7.866  0.3180 -0.0686  0.5695
  139OSM   H14F15235   5.025   3.345   7.864 -0.2798 -1.2191  2.1909
  139OSM   H14G15236   5.203   3.378   7.861 -1.9046  2.2456  1.2479
  139OSM   C15F15237   5.130   3.225   8.005  0.0388  0.1162  0.3790
  139OSM   H15F15238   5.231   3.180   8.017  0.5943  0.5958 -2.1388
  139OSM   H15G15239   5.052   3.145   8.010  1.1108 -0.9917 -0.1093
  139OSM   C16F15240   5.102   3.316   8.122 -0.6313 -0.1897  0.5193
  139OSM   H16F15241   4.994   3.335   8.106 -0.3705  0.2992 -0.7785
  139OSM   H16G15242   5.148   3.417   8.108 -1.1117 -0.3245 -2.6086
  139OSM   C17F15243   5.145   3.259   8.255  0.6536  0.2439  0.5254
  139OSM   H17F15244   5.256   3.261   8.261  0.7841  2.5680 -1.1757
  139OSM   H17G15245   5.101   3.158   8.271  0.3511  0.5835  1.9760
  139OSM   C18F15246   5.083   3.342   8.370 -0.3885 -0.9810 -1.3353
  139OSM   H18F15247   4.972   3.333   8.362 -0.6686  0.8475 -0.0784
  139OSM   H18G15248   5.120   3.446   8.361  1.6238 -1.1640  2.5100
  139OSM   H18H15249   5.121   3.303   8.467  1.3791 -0.0442 -1.6092
  140OSM      N15250   0.912   4.362   6.053  0.7739  0.5068 -0.6139
  140OSM    C1515251   1.058   4.367   6.087 -0.8861  0.7088  0.3245
  140OSM   H15A15252   1.087   4.468   6.112  2.7209  0.7509 -3.0554
  140OSM   H15B15253   1.125   4.344   6.006 -2.0473 -1.3892 -0.1138
  140OSM   H15C15254   1.083   4.302   6.169  0.3031  1.7844  0.8445
  140OSM    C1415255   0.891   4.454   5.931 -0.0937 -0.3338 -0.2129
  140OSM   H14A15256   0.912   4.558   5.953 -0.1426 -0.2734 -0.4514
  140OSM   H14B15257   0.792   4.442   5.890 -0.3658  0.4497  0.1948
  140OSM   H14C15258   0.968   4.414   5.867  1.4426 -0.3099  1.5436
  140OSM    C1315259   0.875   4.226   6.004  0.1516 -0.4375 -0.2323
  140OSM   H13A15260   0.890   4.149   6.077  0.0124  1.6165  2.1128
  140OSM   H13B15261   0.939   4.206   5.919 -1.2066  2.9782 -2.2824
  140OSM   H13C15262   0.771   4.220   5.974  0.3068 -2.2504 -0.4943
  140OSM    C1215263   0.828   4.410   6.170 -0.3671  0.1997  0.2111
  140OSM   H12A15264   0.872   4.498   6.215 -0.1977  0.1033  0.2369
  140OSM   H12B15265   0.826   4.333   6.246 -0.0924 -1.1477 -1.0978
  140OSM    C1115266   0.682   4.438   6.136 -0.1035 -0.2507  0.0459
  140OSM   H11A15267   0.644   4.342   6.094  0.0229 -1.6609  2.8661
  140OSM   H11B15268   0.668   4.512   6.055  2.3770  1.1425  0.7999
  140OSM      P15269   0.635   4.604   6.339 -0.0889  0.0742 -0.2674
  140OSM    O1315270   0.771   4.655   6.308 -0.4323 -0.3418 -0.1120
  140OSM    O1415271   0.522   4.695   6.320  0.0374  0.0887 -0.6862
  140OSM    O1115272   0.640   4.563   6.488 -0.2129  0.3989  0.1400
  140OSM    O1215273   0.614   4.473   6.254  0.8577  0.4931  0.1651
  140OSM    C1S15274   0.536   4.504   6.563 -0.2175  0.5994 -0.4092
  140OSM    H1S15275   0.505   4.404   6.524 -0.5760 -0.1707  1.7007
  140OSM    H1T15276   0.448   4.571   6.563 -2.5614 -2.2588  0.5560
  140OSM     NF15277   0.469   4.406   6.777  0.1814 -0.4092 -0.5069
  140OSM    HNF15278   0.400   4.465   6.819  0.2424 -1.4392  1.1077
  140OSM    C2S15279   0.581   4.472   6.711 -0.5979  0.2132 -0.1155
  140OSM    H2S15280   0.678   4.418   6.715 -0.4391  0.2366 -2.3105
  140OSM    C3S15281   0.630   4.604   6.777  0.2356 -0.0380  0.2599
  140OSM    H3S15282   0.541   4.667   6.802  0.9792  1.1283  0.0806
  140OSM     O315283   0.713   4.687   6.699 -0.7596 -0.2754 -0.0333
  140OSM    HO315284   0.701   4.649   6.612 -0.5959 -0.0065 -0.1741
  140OSM    C4S15285   0.681   4.572   6.915 -0.1017 -0.0441 -0.5371
  140OSM    H4S15286   0.597   4.550   6.982  0.2938 -0.7353 -0.2522
  140OSM    C5S15287   0.808   4.565   6.948 -0.2453 -0.1861 -0.0313
  140OSM    H5S15288   0.892   4.573   6.877  1.1634 -0.7985  1.5026
  140OSM    C6S15289   0.875   4.542   7.082 -0.1065 -0.1607  0.2102
  140OSM    H6S15290   0.960   4.607   7.111  1.0136 -0.9942 -1.0525
  140OSM    H6T15291   0.916   4.438   7.081 -0.6565 -0.3787 -0.4369
  140OSM    C7S15292   0.777   4.548   7.200 -0.9736 -0.4662 -0.3983
  140OSM    H7S15293   0.700   4.469   7.207 -1.8885  0.5515  1.4041
  140OSM    H7T15294   0.716   4.641   7.194  1.3243  1.0894 -1.1782
  140OSM    C8S15295   0.858   4.538   7.334  0.0224 -0.1481  0.0565
  140OSM    H8S15296   0.941   4.612   7.329 -1.8107  2.1819  1.9477
  140OSM    H8T15297   0.901   4.436   7.340 -0.6406 -0.3702  1.2706
  140OSM    C9S15298   0.777   4.561   7.457 -1.1691 -0.2856  0.4745
  140OSM    H9S15299   0.691   4.492   7.455 -1.5318  0.1640  0.2259
  140OSM    H9T15300   0.736   4.664   7.451  0.4973  0.3660 -0.6163
  140OSM   C10S15301   0.859   4.562   7.586 -0.2762  0.7548 -0.2633
  140OSM   H10S15302   0.934   4.642   7.577 -1.1042  1.5836  0.0118
  140OSM   H10T15303   0.916   4.467   7.598 -1.7062 -0.0013  0.8931
  140OSM   C11S15304   0.756   4.569   7.693  0.1206 -0.0075  0.0717
  140OSM   H11S15305   0.694   4.476   7.694 -1.9142  1.2963  0.3923
  140OSM   H11T15306   0.678   4.646   7.677  1.1511  2.2393  4.3083
  140OSM   C12S15307   0.813   4.594   7.829  0.0806  0.2845  0.3108
  140OSM   H12S15308   0.875   4.686   7.836  1.3915 -0.6095  0.7675
  140OSM   H12T15309   0.891   4.521   7.859  0.3517  1.1313  1.8068
  140OSM   C13S15310   0.704   4.584   7.933 -0.2636 -0.0098  0.7242
  140OSM   H13S15311   0.661   4.484   7.910 -1.4298  0.0584  2.4028
  140OSM   H13T15312   0.625   4.658   7.907  0.1190  0.3936  0.7096
  140OSM   C14S15313   0.756   4.599   8.079  0.2390  0.1180  0.5345
  140OSM   H14S15314   0.765   4.710   8.086 -1.2802  0.3288 -0.2477
  140OSM   H14T15315   0.849   4.540   8.091  0.6076  0.6732  0.4593
  140OSM   C15S15316   0.642   4.547   8.175 -0.0868 -0.5508 -0.3997
  140OSM   H15S15317   0.626   4.440   8.152 -0.4522 -0.6101  0.1164
  140OSM   H15T15318   0.543   4.598   8.170 -0.8907 -1.4488  3.3465
  140OSM   C16S15319   0.674   4.576   8.323  0.1105  0.7612  0.2536
  140OSM   H16S15320   0.582   4.573   8.384  0.2454 -0.2128  0.4164
  140OSM   H16T15321   0.715   4.679   8.332  1.0524  0.3789  0.4532
  140OSM   C17S15322   0.764   4.470   8.380  0.1853 -0.5979 -0.2737
  140OSM   H17S15323   0.863   4.478   8.331  0.8561 -0.4662  1.0585
  140OSM   H17T15324   0.733   4.363   8.368 -3.6466  0.0071  2.1936
  140OSM   C18S15325   0.791   4.485   8.527 -0.0100 -0.6040 -0.0194
  140OSM   H18S15326   0.868   4.564   8.546  1.3200 -1.8739  0.0714
  140OSM   H18T15327   0.835   4.389   8.560 -0.6990 -0.9878 -0.2022
  140OSM   H18U15328   0.694   4.505   8.578  1.7747  1.6725  2.8493
  140OSM    C1F15329   0.435   4.281   6.758 -0.3440  0.9237 -0.3821
  140OSM     OF15330   0.503   4.209   6.680 -0.3359  0.5722  0.3959
  140OSM    C2F15331   0.315   4.224   6.833  0.9146 -0.5005  0.1501
  140OSM    H2F15332   0.261   4.150   6.770 -0.8579  0.9919 -0.1646
  140OSM    H2G15333   0.261   4.313   6.870  1.1310 -0.5977  0.7103
  140OSM    C3F15334   0.371   4.133   6.947 -0.2367 -0.3456  0.7204
  140OSM    H3F15335   0.450   4.060   6.920 -0.3387 -0.8020  1.6212
  140OSM    H3G15336   0.287   4.069   6.983 -0.6060 -0.4827 -0.3393
  140OSM    C4F15337   0.421   4.215   7.068 -0.6976  0.9021  0.2681
  140OSM    H4F15338   0.498   4.292   7.053 -0.7472  0.8563 -0.2460
  140OSM    H4G15339   0.478   4.138   7.124  1.0258  1.7357 -0.2832
  140OSM    C5F15340   0.300   4.251   7.144  0.0998  0.4368 -0.6334
  140OSM    H5F15341   0.237   4.163   7.170  0.8760  0.2804  0.7599
  140OSM    H5G15342   0.238   4.323   7.085 -0.3309  0.2992 -0.3566
  140OSM    C6F15343   0.340   4.316   7.279  0.2670  0.0921 -0.2863
  140OSM    H6F15344   0.240   4.354   7.309 -1.3534 -2.2420 -2.3580
  140OSM    H6G15345   0.409   4.403   7.268 -0.0138  0.1561 -1.6712
  140OSM    C7F15346   0.388   4.200   7.370  1.0020  0.2202  0.8110
  140OSM    H7F15347   0.488   4.163   7.338  0.3250  0.3174 -1.6543
  140OSM    H7G15348   0.329   4.111   7.340  0.6890  0.7891 -0.3186
  140OSM    C8F15349   0.379   4.219   7.519  0.1118 -0.4580  1.1734
  140OSM    H8F15350   0.448   4.303   7.543 -0.4425  0.2253  0.4450
  140OSM    H8G15351   0.431   4.135   7.570  1.9246 -0.8031 -1.1121
  140OSM    C9F15352   0.238   4.247   7.555  0.8581  0.1230  0.0887
  140OSM    H9F15353   0.158   4.220   7.485  0.8876 -0.3994  0.2509
  140OSM   C10F15354   0.197   4.294   7.673  0.2715  0.2324 -0.0293
  140OSM   H10F15355   0.089   4.301   7.690  0.3727  0.1756  0.6728
  140OSM   C11F15356   0.278   4.325   7.801 -1.2529  0.2410 -0.4065
  140OSM   H11F15357   0.241   4.404   7.870  2.7552 -0.7526  3.3621
  140OSM   H11G15358   0.376   4.369   7.776 -1.1448 -1.1522 -2.6684
  140OSM   C12F15359   0.300   4.204   7.901  0.4329 -0.3371 -0.4793
  140OSM   H12F15360   0.345   4.111   7.860  0.3979 -0.6566  0.1904
  140OSM   H12G15361   0.198   4.175   7.933 -0.3420  2.2866 -0.3376
  140OSM   C13F15362   0.377   4.263   8.025 -0.7807  0.2005  0.1442
  140OSM   H13F15363   0.332   4.361   8.055  0.4630  0.6098  0.7298
  140OSM   H13G15364   0.481   4.281   7.990 -0.1163 -0.3121  1.7815
  140OSM   C14F15365   0.365   4.163   8.142 -0.1272 -0.1136  0.0999
  140OSM   H14F15366   0.396   4.061   8.111 -0.2653  0.2562 -1.3073
  140OSM   H14G15367   0.260   4.150   8.176  0.2247 -1.7338  0.6716
  140OSM   C15F15368   0.448   4.212   8.272 -0.3089 -1.3823  0.2319
  140OSM   H15F15369   0.408   4.313   8.296 -0.5391 -0.5783 -3.0110
  140OSM   H15G15370   0.556   4.216   8.248  0.1391 -3.3910  1.6272
  140OSM   C16F15371   0.434   4.118   8.392  0.4205 -0.1705 -0.2851
  140OSM   H16F15372   0.324   4.117   8.407  0.4407  0.2853 -0.0912
  140OSM   H16G15373   0.479   4.152   8.488 -2.3340 -1.6217  1.6567
  140OSM   C17F15374   0.471   3.967   8.363  0.1918 -0.6691 -1.1712
  140OSM   H17F15375   0.576   3.962   8.328 -0.0626  0.3977 -2.1386
  140OSM   H17G15376   0.403   3.937   8.281 -0.8163  0.5830 -0.8383
  140OSM   C18F15377   0.462   3.875   8.477  0.1402  0.6899  0.0049
  140OSM   H18F15378   0.491   3.771   8.453  0.2348  0.8408 -0.5442
  140OSM   H18G15379   0.357   3.880   8.514 -0.5052  2.0537 -1.8729
  140OSM   H18H15380   0.542   3.904   8.548  1.8302 -1.0484 -1.1164
  141OSM      N15381   4.824   4.822   5.923  0.5870 -0.0488  0.4171
  141OSM    C1515382   4.896   4.913   5.828  0.3544 -0.0096  0.0114
  141OSM   H15A15383   4.846   5.009   5.833  0.8679  0.1991  1.4821
  141OSM   H15B15384   4.896   4.879   5.726 -1.4295  0.0396 -0.0373
  141OSM   H15C15385   5.001   4.924   5.850  0.4340  0.6856 -0.7056
  141OSM    C1415386   4.678   4.839   5.892 -0.1525 -0.9837  0.4086
  141OSM   H14A15387   4.666   4.796   5.794  0.9868  0.5016 -0.4302
  141OSM   H14B15388   4.664   4.946   5.883  0.8668 -0.9251 -0.7986
  141OSM   H14C15389   4.611   4.791   5.961 -0.7610 -1.1102 -0.2505
  141OSM    C1315390   4.857   4.680   5.881 -0.2209  0.8271  0.1156
  141OSM   H13A15391   4.961   4.665   5.905 -0.4636  1.9042  2.1042
  141OSM   H13B15392   4.834   4.675   5.776 -1.4409 -1.1938  0.4289
  141OSM   H13C15393   4.804   4.603   5.934  0.4423  0.4118  0.1846
  141OSM    C1215394   4.853   4.846   6.066 -0.5204 -0.0213 -0.1546
  141OSM   H12A15395   4.955   4.837   6.098 -0.7411  1.5223  1.1211
  141OSM   H12B15396   4.788   4.778   6.118 -0.3511 -1.6687 -1.9951
  141OSM    C1115397   4.823   4.992   6.106 -0.5466 -0.0298  0.7404
  141OSM   H11A15398   4.714   5.012   6.103 -1.1522 -2.9592 -2.2562
  141OSM   H11B15399   4.867   5.067   6.036 -0.2724  1.2437  2.1956
  141OSM      P15400   5.024   5.060   6.256  0.1104  0.0307 -0.3081
  141OSM    O1315401   5.110   4.936   6.263  0.4674  0.1533 -0.1010
  141OSM    O1415402   5.062   5.154   6.151 -0.5381  0.0090  0.1974
  141OSM    O1115403   5.030   5.129   6.398 -0.1494 -0.7385  0.5014
  141OSM    O1215404   4.875   5.012   6.235 -0.8483 -0.7044 -0.2043
  141OSM    C1S15405   4.984   5.071   6.515  0.2589 -0.0987 -0.0694
  141OSM    H1S15406   5.010   4.964   6.531  0.1873 -0.3383 -1.4321
  141OSM    H1T15407   4.873   5.074   6.519  0.1412 -1.1161 -1.6925
  141OSM     NF15408   4.993   5.080   6.760 -0.5309 -0.6981  0.1609
  141OSM    HNF15409   4.920   5.114   6.818 -0.4883  0.7053 -0.5548
  141OSM    C2S15410   5.024   5.157   6.640 -0.5259  0.0100 -0.3959
  141OSM    H2S15411   5.133   5.175   6.630  0.0089 -2.8020 -0.3532
  141OSM    C3S15412   4.953   5.296   6.629 -0.0471  0.3025 -0.1744
  141OSM    H3S15413   4.843   5.286   6.624  0.1285 -1.0430 -2.4487
  141OSM     O315414   4.981   5.370   6.507  0.5075 -0.0286 -0.6651
  141OSM    HO315415   4.984   5.297   6.445 -0.3693 -2.1111  1.5493
  141OSM    C4S15416   4.994   5.382   6.749  0.2130  0.3828  0.0350
  141OSM    H4S15417   4.910   5.374   6.820 -2.2308 -1.3645 -2.8347
  141OSM    C5S15418   5.103   5.457   6.771 -0.0765 -0.4040 -0.4912
  141OSM    H5S15419   5.192   5.453   6.706 -1.8171 -0.1235 -3.0434
  141OSM    C6S15420   5.130   5.544   6.891  0.2844  0.1970  0.6214
  141OSM    H6S15421   5.135   5.649   6.858 -0.5386  0.1691  0.3935
  141OSM    H6T15422   5.233   5.524   6.926  0.4247  0.9664  0.6638
  141OSM    C7S15423   5.031   5.548   7.014  0.0127  0.5344 -0.2408
  141OSM    H7S15424   5.045   5.461   7.081 -1.6525 -0.8290 -1.5449
  141OSM    H7T15425   4.923   5.550   6.984 -0.6077  1.5692  1.8580
  141OSM    C8S15426   5.051   5.671   7.107 -0.5846  0.2198 -0.2364
  141OSM    H8S15427   5.052   5.769   7.054 -2.8901 -0.6556 -2.0597
  141OSM    H8T15428   5.148   5.663   7.159  0.1466 -2.1159 -1.8417
  141OSM    C9S15429   4.949   5.678   7.224  0.3090  0.9554  0.2248
  141OSM    H9S15430   4.984   5.599   7.294 -0.4745  0.2597 -0.1477
  141OSM    H9T15431   4.847   5.666   7.182  0.7479  1.9192 -1.1671
  141OSM   C10S15432   4.957   5.810   7.297  0.5670 -0.5078  0.8622
  141OSM   H10S15433   4.851   5.826   7.326  0.5523  1.2449  0.0061
  141OSM   H10T15434   4.970   5.891   7.222  1.6603 -0.6412  0.8842
  141OSM   C11S15435   5.058   5.815   7.412  0.0569  0.3817  0.0043
  141OSM   H11S15436   5.086   5.921   7.430  1.0739  0.2352 -0.6375
  141OSM   H11T15437   5.148   5.752   7.400 -1.4639 -1.6789 -1.2440
  141OSM   C12S15438   4.990   5.763   7.539 -0.7986 -0.0598 -0.8596
  141OSM   H12S15439   4.978   5.653   7.541 -1.0338 -0.0728  2.1285
  141OSM   H12T15440   4.888   5.801   7.563 -0.6249  1.4057 -2.2678
  141OSM   C13S15441   5.074   5.789   7.658  0.0856  0.4099 -0.0987
  141OSM   H13S15442   5.110   5.894   7.658  0.1415  0.4240  1.5562
  141OSM   H13T15443   5.163   5.722   7.664  0.1642  0.6050  1.2896
  141OSM   C14S15444   4.996   5.774   7.800 -0.1089 -0.2099  0.4388
  141OSM   H14S15445   4.971   5.670   7.829  0.2792  0.1071  2.0377
  141OSM   H14T15446   4.898   5.826   7.808 -0.6639 -1.3578  1.5984
  141OSM   C15S15447   5.066   5.834   7.917 -0.3587 -0.1884 -0.0789
  141OSM   H15S15448   5.061   5.945   7.916  0.7523 -0.1073  1.3193
  141OSM   H15T15449   5.172   5.804   7.907 -0.8771 -1.5390 -2.1314
  141OSM   C16S15450   4.997   5.789   8.049 -0.0674 -0.0290 -0.1416
  141OSM   H16S15451   4.953   5.687   8.047  2.0095 -0.9844  0.6868
  141OSM   H16T15452   4.917   5.861   8.077 -0.4233 -0.6087  0.3472
  141OSM   C17S15453   5.089   5.782   8.171 -0.2424  0.6971 -0.3844
  141OSM   H17S15454   5.108   5.887   8.202  1.6865 -0.1802  1.6995
  141OSM   H17T15455   5.180   5.729   8.134 -0.8765 -2.1170  1.7286
  141OSM   C18S15456   5.047   5.698   8.292  0.8152 -0.6913  0.1264
  141OSM   H18S15457   4.964   5.745   8.350  1.5418  2.1403 -0.9700
  141OSM   H18T15458   5.137   5.690   8.357  1.1706  1.2273 -0.0873
  141OSM   H18U15459   5.023   5.596   8.254 -0.3647  0.1681 -1.5138
  141OSM    C1F15460   5.056   4.967   6.794 -0.5026 -0.1421 -0.4917
  141OSM     OF15461   5.166   4.943   6.737 -0.3659 -0.2731  0.5367
  141OSM    C2F15462   4.994   4.887   6.909  1.0709  0.2336  0.0980
  141OSM    H2F15463   4.986   4.962   6.991 -0.3561  0.2273 -0.0116
  141OSM    H2G15464   5.059   4.804   6.942  1.9013 -0.1633 -2.3262
  141OSM    C3F15465   4.853   4.835   6.872 -0.2845 -0.4348 -0.4295
  141OSM    H3F15466   4.879   4.737   6.826  3.9353  0.0940  0.4423
  141OSM    H3G15467   4.804   4.897   6.794 -0.2239  1.6555  1.1114
  141OSM    C4F15468   4.760   4.822   6.993 -0.0540 -0.2615 -0.0277
  141OSM    H4F15469   4.663   4.790   6.949 -0.6946  0.2524  0.9838
  141OSM    H4G15470   4.750   4.923   7.037  0.0516 -0.2658  0.0067
  141OSM    C5F15471   4.808   4.728   7.102 -0.3859  0.4339 -0.1549
  141OSM    H5F15472   4.719   4.706   7.165  0.0727 -1.4870 -0.1210
  141OSM    H5G15473   4.886   4.775   7.165  1.0739 -1.5421 -0.4018
  141OSM    C6F15474   4.858   4.592   7.050  0.1669 -0.3344  0.4757
  141OSM    H6F15475   4.969   4.594   7.048  0.1881 -1.2073  0.2744
  141OSM    H6G15476   4.831   4.572   6.944  3.1449  2.2352 -0.9014
  141OSM    C7F15477   4.801   4.472   7.136 -0.1398 -0.5067  0.3216
  141OSM    H7F15478   4.827   4.372   7.095 -1.0023 -1.2218  1.4650
  141OSM    H7G15479   4.690   4.477   7.131 -0.2455 -2.4114 -0.0787
  141OSM    C8F15480   4.848   4.499   7.280  0.5188  0.2412  0.9303
  141OSM    H8F15481   4.790   4.589   7.312  0.6887  0.4336  0.6948
  141OSM    H8G15482   4.955   4.528   7.281  0.8494 -0.8740 -0.2424
  141OSM    C9F15483   4.819   4.393   7.385  0.3528  0.2739  0.6332
  141OSM    H9F15484   4.839   4.289   7.356 -0.6394  0.5192 -1.0944
  141OSM   C10F15485   4.756   4.422   7.505 -0.2467  0.7960  0.7961
  141OSM   H10F15486   4.738   4.338   7.575 -1.1471  0.4923  0.2187
  141OSM   C11F15487   4.721   4.555   7.562 -0.5953 -0.5428  0.0939
  141OSM   H11F15488   4.761   4.645   7.510 -2.5770 -0.1847 -0.9009
  141OSM   H11G15489   4.766   4.559   7.664 -0.0412 -0.0025 -0.1642
  141OSM   C12F15490   4.562   4.577   7.567  0.2571 -0.3707  0.2894
  141OSM   H12F15491   4.519   4.499   7.633  0.2980 -0.0463  0.7069
  141OSM   H12G15492   4.534   4.566   7.460 -1.5107 -1.5143  0.8272
  141OSM   C13F15493   4.532   4.725   7.602 -0.4490 -0.1019  0.8810
  141OSM   H13F15494   4.426   4.757   7.589 -0.3564  0.0835  0.5731
  141OSM   H13G15495   4.593   4.795   7.542  0.8089 -1.8777  0.0117
  141OSM   C14F15496   4.579   4.762   7.739  0.5318 -0.8794  0.5666
  141OSM   H14F15497   4.595   4.871   7.752  3.8239 -0.9225 -1.8407
  141OSM   H14G15498   4.668   4.708   7.776 -0.6770 -3.7542 -0.4482
  141OSM   C15F15499   4.465   4.734   7.847 -0.2326 -0.1438  0.4288
  141OSM   H15F15500   4.448   4.625   7.863 -1.9824  0.4575  3.2479
  141OSM   H15G15501   4.365   4.772   7.819 -0.4019 -0.8861 -0.0101
  141OSM   C16F15502   4.506   4.784   7.986 -0.9510  0.2535  0.3725
  141OSM   H16F15503   4.531   4.892   7.985 -2.5587  0.6491 -1.2648
  141OSM   H16G15504   4.591   4.728   8.031 -1.0880  0.1310  0.4822
  141OSM   C17F15505   4.397   4.776   8.093 -0.2650 -0.5948  0.4119
  141OSM   H17F15506   4.453   4.773   8.189  1.7949 -0.3750 -0.7288
  141OSM   H17G15507   4.340   4.681   8.088 -0.3154 -0.4897 -2.2148
  141OSM   C18F15508   4.303   4.897   8.083 -0.6074 -0.0661  0.2289
  141OSM   H18F15509   4.233   4.899   8.169 -0.0543 -1.2359  0.7319
  141OSM   H18G15510   4.235   4.887   7.996 -1.5252  3.5714  0.3892
  141OSM   H18H15511   4.366   4.988   8.078 -0.1792 -0.3944 -0.5844
  142OSM      N15512   0.732   6.430   5.963  0.3656 -0.3670 -0.0705
  142OSM    C1515513   0.651   6.328   5.886  0.6536 -0.4493  0.5787
  142OSM   H15A15514   0.695   6.309   5.789 -0.8913 -1.3420  0.0146
  142OSM   H15B15515   0.550   6.364   5.877  1.2144  1.1072  0.1843
  142OSM   H15C15516   0.654   6.238   5.945  0.0323 -1.9441 -1.5502
  142OSM    C1415517   0.871   6.381   5.994  0.4712 -0.4442  0.2518
  142OSM   H14A15518   0.925   6.365   5.902  0.8471 -0.7000  0.5113
  142OSM   H14B15519   0.859   6.287   6.045  0.1468 -0.8338 -0.5253
  142OSM   H14C15520   0.936   6.435   6.061 -0.3002 -0.5728  1.1176
  142OSM    C1315521   0.731   6.558   5.882  0.2375 -0.1277  0.5990
  142OSM   H13A15522   0.630   6.585   5.856  0.3176 -0.0644  0.3483
  142OSM   H13B15523   0.790   6.548   5.793 -0.7561 -0.6688 -0.0062
  142OSM   H13C15524   0.759   6.640   5.947 -1.9398  0.7306  0.5234
  142OSM    C1215525   0.666   6.465   6.102  0.4760 -0.4631 -1.0845
  142OSM   H12A15526   0.659   6.370   6.153 -1.3277  0.3809  0.3655
  142OSM   H12B15527   0.564   6.498   6.085 -0.3459  0.0973  3.5739
  142OSM    C1115528   0.739   6.567   6.199 -0.2694  0.0037 -0.0282
  142OSM   H11A15529   0.838   6.521   6.219  0.1110  1.6751  2.4666
  142OSM   H11B15530   0.691   6.553   6.299  0.3069 -5.5998 -0.2109
  142OSM      P15531   0.620   6.784   6.161 -0.0106 -0.1128 -0.0554
  142OSM    O1315532   0.636   6.890   6.065  0.4742 -0.0048  0.1473
  142OSM    O1415533   0.499   6.703   6.156  0.4508  0.3076 -0.1039
  142OSM    O1115534   0.648   6.844   6.307  0.5701  0.3016  0.3066
  142OSM    O1215535   0.755   6.698   6.143  0.4068 -0.3019 -0.3563
  142OSM    C1S15536   0.746   6.941   6.345 -0.0800  0.1558 -0.8803
  142OSM    H1S15537   0.703   7.042   6.327  0.8203  1.1281  1.8124
  142OSM    H1T15538   0.845   6.927   6.297 -0.2960 -2.0267 -0.7980
  142OSM     NF15539   0.860   7.068   6.528  0.0591 -0.5713 -0.0055
  142OSM    HNF15540   0.955   7.066   6.499 -0.7920  0.0616 -3.2435
  142OSM    C2S15541   0.776   6.949   6.502 -0.0592  0.0019 -0.2259
  142OSM    H2S15542   0.676   6.957   6.550 -0.4059 -0.6673 -0.8200
  142OSM    C3S15543   0.851   6.818   6.554  0.4499  0.5862  0.9141
  142OSM    H3S15544   0.944   6.794   6.498  1.4756 -0.5569  3.0066
  142OSM     O315545   0.779   6.700   6.529 -0.3341 -0.0466 -0.2809
  142OSM    HO315546   0.733   6.723   6.447  0.8015  0.5758 -0.7648
  142OSM    C4S15547   0.887   6.819   6.698 -0.7382 -0.3443 -0.3674
  142OSM    H4S15548   0.810   6.857   6.766 -0.7907  0.0429 -0.6395
  142OSM    C5S15549   1.014   6.788   6.737  1.1932 -0.6055  0.2465
  142OSM    H5S15550   1.092   6.756   6.667  1.7168 -2.7012  1.6799
  142OSM    C6S15551   1.059   6.780   6.879  0.1685 -0.8227 -0.3682
  142OSM    H6S15552   1.160   6.825   6.868  0.5182 -1.6609 -0.7054
  142OSM    H6T15553   1.056   6.673   6.909  0.6426 -0.8385 -0.3733
  142OSM    C7S15554   0.975   6.874   6.979  0.2748  0.0775  0.8923
  142OSM    H7S15555   0.867   6.849   6.974  0.0554 -0.7663  5.3570
  142OSM    H7T15556   0.991   6.978   6.942 -0.5794 -0.5440 -1.3460
  142OSM    C8S15557   1.011   6.869   7.127 -0.0573  0.0618 -0.5981
  142OSM    H8S15558   0.948   6.946   7.176 -1.5851 -1.1383 -0.6193
  142OSM    H8T15559   1.111   6.918   7.123 -0.2015  0.4328  0.2549
  142OSM    C9S15560   1.034   6.743   7.203  0.6935  0.2353  0.5119
  142OSM    H9S15561   1.108   6.678   7.153  1.6001  0.3253  1.6847
  142OSM    H9T15562   0.938   6.687   7.198  0.5894  0.4856 -0.4549
  142OSM   C10S15563   1.061   6.773   7.353 -0.1304  0.3991  0.3303
  142OSM   H10S15564   0.978   6.835   7.391 -1.8103 -0.3864 -1.8521
  142OSM   H10T15565   1.156   6.829   7.368  0.4895 -0.5344 -0.0048
  142OSM   C11S15566   1.072   6.641   7.434  0.0125 -0.2554 -0.1783
  142OSM   H11S15567   1.181   6.617   7.431  0.2228  0.6611 -0.4047
  142OSM   H11T15568   1.021   6.557   7.382 -1.3252  0.9648 -0.8925
  142OSM   C12S15569   1.052   6.671   7.588  0.2088 -0.0180  0.5528
  142OSM   H12S15570   0.967   6.741   7.599  0.9454  1.4352 -2.0998
  142OSM   H12T15571   1.143   6.727   7.616  0.4303  0.4218 -0.9558
  142OSM   C13S15572   1.028   6.548   7.680  0.0060 -0.0304  0.5246
  142OSM   H13S15573   0.954   6.483   7.629  0.3274  0.8333 -1.1123
  142OSM   H13T15574   0.976   6.595   7.766 -0.2133 -0.0756  0.4181
  142OSM   C14S15575   1.158   6.480   7.718 -0.0710 -0.1310  0.5147
  142OSM   H14S15576   1.230   6.558   7.750  1.6655 -0.7233 -1.7046
  142OSM   H14T15577   1.202   6.433   7.628 -1.1384 -1.3258  0.5855
  142OSM   C15S15578   1.135   6.374   7.824 -0.3191  0.8266  0.4794
  142OSM   H15S15579   1.034   6.337   7.797  0.3466  0.4413 -1.7280
  142OSM   H15T15580   1.118   6.422   7.922 -2.7078 -1.2441  1.2038
  142OSM   C16S15581   1.228   6.254   7.822 -0.0316 -0.6034  0.0709
  142OSM   H16S15582   1.237   6.221   7.716 -1.4493 -0.1247 -0.2254
  142OSM   H16T15583   1.179   6.173   7.880  0.9949 -1.8569 -0.7455
  142OSM   C17S15584   1.367   6.285   7.869 -0.1562  0.1142  0.2925
  142OSM   H17S15585   1.428   6.346   7.800  0.3747 -0.3343  0.3593
  142OSM   H17T15586   1.421   6.189   7.877  3.0342  1.8724  2.0636
  142OSM   C18S15587   1.389   6.361   7.997 -0.2775 -0.2551 -0.4142
  142OSM   H18S15588   1.383   6.471   7.982 -0.6838 -0.2535 -0.2593
  142OSM   H18T15589   1.483   6.347   8.054 -1.0453 -2.8582  0.3550
  142OSM   H18U15590   1.307   6.350   8.071  0.1613  0.6010  0.2242
  142OSM    C1F15591   0.806   7.190   6.537  0.4097 -0.1106  1.0016
  142OSM     OF15592   0.686   7.211   6.516 -0.2418 -0.6804  0.1187
  142OSM    C2F15593   0.903   7.294   6.549 -0.9315 -0.3508  0.6300
  142OSM    H2F15594   0.880   7.373   6.475  1.9868 -0.0474 -0.0686
  142OSM    H2G15595   1.003   7.253   6.522  0.0042  1.2665  1.5043
  142OSM    C3F15596   0.914   7.340   6.696  0.6710  0.4267  1.0398
  142OSM    H3F15597   0.813   7.359   6.737 -0.2148  2.5612 -1.8586
  142OSM    H3G15598   0.969   7.436   6.695 -1.8606  1.9522 -0.0094
  142OSM    C4F15599   0.976   7.230   6.785 -0.8334 -0.9426 -0.3348
  142OSM    H4F15600   1.075   7.197   6.747 -1.4528 -2.4619 -0.7118
  142OSM    H4G15601   0.913   7.139   6.788 -0.6969 -1.0156  1.8064
  142OSM    C5F15602   1.003   7.271   6.928 -0.4842  0.0337 -0.8517
  142OSM    H5F15603   1.030   7.185   6.992  1.0419 -1.4193 -3.2667
  142OSM    H5G15604   0.908   7.316   6.964  0.0688 -0.7908  1.8069
  142OSM    C6F15605   1.113   7.375   6.930 -0.5590 -0.0845 -0.0001
  142OSM    H6F15606   1.079   7.459   6.867  1.2005 -1.3847 -2.8938
  142OSM    H6G15607   1.207   7.339   6.882 -0.8658 -1.6654  0.5317
  142OSM    C7F15608   1.156   7.420   7.069  0.3423  0.4110 -0.4074
  142OSM    H7F15609   1.248   7.479   7.051  0.1708  0.6880 -0.3810
  142OSM    H7G15610   1.184   7.328   7.125 -0.5167 -0.0385 -0.6883
  142OSM    C8F15611   1.060   7.506   7.154  0.5970  0.2130  0.3495
  142OSM    H8F15612   1.008   7.585   7.097 -0.3233 -0.1061  0.7177
  142OSM    H8G15613   1.118   7.573   7.220 -0.7871  3.4986 -1.5519
  142OSM    C9F15614   0.950   7.424   7.221 -0.6015  0.5435  0.2953
  142OSM    H9F15615   0.857   7.402   7.166 -2.2425  4.2211  1.3100
  142OSM   C10F15616   0.953   7.385   7.351  0.2071 -0.9315  0.4861
  142OSM   H10F15617   0.872   7.330   7.401 -1.0977  2.3313  2.2843
  142OSM   C11F15618   1.062   7.418   7.454 -0.0968  0.6469 -0.3960
  142OSM   H11F15619   1.032   7.507   7.512 -1.9448 -1.0202  1.3704
  142OSM   H11G15620   1.166   7.419   7.413  0.2358  0.1627  0.3994
  142OSM   C12F15621   1.091   7.307   7.563 -1.3014 -0.1067  0.0795
  142OSM   H12F15622   1.003   7.282   7.626 -1.0871 -1.9635 -0.3014
  142OSM   H12G15623   1.165   7.358   7.628 -0.5883 -1.2298  0.1828
  142OSM   C13F15624   1.148   7.175   7.500  0.2604  0.1912  0.2779
  142OSM   H13F15625   1.242   7.204   7.449  0.7804  0.1432  1.1738
  142OSM   H13G15626   1.076   7.133   7.428  0.5463  1.6926 -0.9269
  142OSM   C14F15627   1.176   7.066   7.601  0.0815  0.0579 -1.2187
  142OSM   H14F15628   1.257   6.997   7.569  1.7358  1.9997 -1.4382
  142OSM   H14G15629   1.084   7.006   7.614  0.0202  0.0682 -1.5772
  142OSM   C15F15630   1.221   7.113   7.742 -0.3571  0.6098  0.2242
  142OSM   H15F15631   1.146   7.175   7.795 -0.7612 -0.6316  1.1599
  142OSM   H15G15632   1.313   7.172   7.722  0.4001 -0.7591 -0.4890
  142OSM   C16F15633   1.264   6.995   7.827  0.2405 -0.3439  0.3497
  142OSM   H16F15634   1.335   7.030   7.904  1.0040  1.0562 -0.9432
  142OSM   H16G15635   1.320   6.922   7.764  0.6239  1.5475 -1.6250
  142OSM   C17F15636   1.149   6.909   7.890 -0.6083  0.0667  0.3404
  142OSM   H17F15637   1.081   6.884   7.805 -1.6965 -0.0170  1.2133
  142OSM   H17G15638   1.093   6.975   7.960  0.0801  0.4506  0.5405
  142OSM   C18F15639   1.189   6.779   7.953 -0.1779 -0.1735  0.0125
  142OSM   H18F15640   1.235   6.719   7.871  1.0518 -1.9347  1.8671
  142OSM   H18G15641   1.106   6.718   7.995  0.5815 -0.6762  0.8209
  142OSM   H18H15642   1.272   6.775   8.028  1.2376 -3.3862 -1.5274
  143OSM      N15643   6.781   1.931   5.946  0.3625 -0.7114 -0.2193
  143OSM    C1515644   6.667   1.971   6.041 -0.1605  0.0806  0.5963
  143OSM   H15A15645   6.609   2.059   6.017 -0.4414  0.2763  1.9065
  143OSM   H15B15646   6.706   1.976   6.142 -0.2997 -0.2631  0.6678
  143OSM   H15C15647   6.598   1.888   6.044 -0.8481  0.5229 -1.3745
  143OSM    C1415648   6.733   1.914   5.810  0.0715  0.2199  0.4980
  143OSM   H14A15649   6.707   2.011   5.769 -2.1148 -1.2135 -1.7921
  143OSM   H14B15650   6.640   1.859   5.801  1.1240 -1.2470 -2.8832
  143OSM   H14C15651   6.795   1.847   5.752 -1.3116 -2.5561  2.0292
  143OSM    C1315652   6.886   2.033   5.936 -0.2004  0.2232 -0.3615
  143OSM   H13A15653   6.925   2.047   6.036 -4.2594  1.3686  1.2678
  143OSM   H13B15654   6.845   2.126   5.901  0.4389  0.2052 -1.1931
  143OSM   H13C15655   6.971   2.004   5.876  0.6633 -1.0371  1.3841
  143OSM    C1215656   6.834   1.791   5.989  0.2072 -0.3501  0.7417
  143OSM   H12A15657   6.874   1.795   6.089  2.3423 -1.9309  0.0299
  143OSM   H12B15658   6.920   1.778   5.926  0.1365 -1.0018  0.7724
  143OSM    C1115659   6.732   1.675   5.963 -0.4503  0.1719 -0.3575
  143OSM   H11A15660   6.788   1.579   5.963  1.2088  1.0255  2.6069
  143OSM   H11B15661   6.708   1.679   5.854  2.3146  0.4203 -1.0540
  143OSM      P15662   6.511   1.562   6.039  0.3085 -0.0686  0.0751
  143OSM    O1315663   6.384   1.613   5.983 -0.2385  0.1131  0.4722
  143OSM    O1415664   6.572   1.446   5.970  0.1213  0.5639  0.1559
  143OSM    O1115665   6.491   1.543   6.193  0.1802  0.5329  0.6999
  143OSM    O1215666   6.613   1.681   6.041 -0.1078 -0.2645 -0.1344
  143OSM    C1S15667   6.582   1.460   6.263 -0.1965  0.0567 -0.1965
  143OSM    H1S15668   6.686   1.484   6.235  0.3134  0.9735  2.2067
  143OSM    H1T15669   6.555   1.355   6.239  0.7371 -0.1771 -0.2623
  143OSM     NF15670   6.675   1.410   6.486 -0.2045 -0.4336  0.8121
  143OSM    HNF15671   6.659   1.319   6.524  0.9416 -0.9891  0.0180
  143OSM    C2S15672   6.561   1.474   6.420  0.1853 -0.2128  0.6895
  143OSM    H2S15673   6.569   1.583   6.442  1.0110 -0.0314 -0.4104
  143OSM    C3S15674   6.417   1.420   6.464 -0.0249  0.0478  0.0718
  143OSM    H3S15675   6.423   1.309   6.461  3.9360  0.0530  1.8744
  143OSM     O315676   6.298   1.465   6.394 -0.1983  0.2296  0.5447
  143OSM    HO315677   6.329   1.516   6.319  0.6859  1.4287  1.6679
  143OSM    C4S15678   6.403   1.440   6.612  0.4322 -0.2863  0.1866
  143OSM    H4S15679   6.438   1.366   6.685 -0.5772  0.1558  1.1471
  143OSM    C5S15680   6.353   1.551   6.671  0.6367  0.2791  0.5269
  143OSM    H5S15681   6.304   1.623   6.605 -0.4287 -0.9947 -0.1293
  143OSM    C6S15682   6.334   1.580   6.821  0.1453 -0.8132  0.1245
  143OSM    H6S15683   6.258   1.514   6.866 -2.4062  0.1191 -2.4823
  143OSM    H6T15684   6.290   1.679   6.843  0.3324 -0.9034  0.9236
  143OSM    C7S15685   6.462   1.560   6.902  0.0442  0.2588 -0.2772
  143OSM    H7S15686   6.543   1.627   6.868 -0.2387 -0.6594 -3.0121
  143OSM    H7T15687   6.497   1.456   6.887  1.4627  0.5663  0.7363
  143OSM    C8S15688   6.430   1.576   7.054 -0.1738  0.0441 -0.8813
  143OSM    H8S15689   6.528   1.560   7.103  0.2237  1.1651 -1.2940
  143OSM    H8T15690   6.354   1.509   7.100  1.2310 -0.4505  0.8325
  143OSM    C9S15691   6.377   1.715   7.090  0.6890  0.3296 -0.1207
  143OSM    H9S15692   6.267   1.704   7.103  0.5199 -0.1858 -1.7638
  143OSM    H9T15693   6.392   1.787   7.007 -2.5921  1.0478 -0.2258
  143OSM   C10S15694   6.438   1.772   7.221  0.3537  0.1996 -0.3945
  143OSM   H10S15695   6.404   1.877   7.234 -2.8101 -0.5530 -1.6896
  143OSM   H10T15696   6.548   1.754   7.223  0.9636  3.2869  1.9643
  143OSM   C11S15697   6.392   1.692   7.351 -0.0499  0.4713  0.7105
  143OSM   H11S15698   6.450   1.717   7.442  3.6373 -0.7808 -1.1382
  143OSM   H11T15699   6.407   1.584   7.328 -1.1128  0.1715  1.3413
  143OSM   C12S15700   6.239   1.709   7.380  0.0771 -0.2896  0.9155
  143OSM   H12S15701   6.171   1.681   7.297 -1.6339  0.2290  2.0987
  143OSM   H12T15702   6.219   1.818   7.375  1.5533 -0.0282 -2.9078
  143OSM   C13S15703   6.187   1.636   7.506  0.0734 -0.5592 -0.6308
  143OSM   H13S15704   6.226   1.532   7.503  0.9919 -0.2506  0.2709
  143OSM   H13T15705   6.076   1.629   7.506 -0.0218  0.4229  0.8994
  143OSM   C14S15706   6.242   1.693   7.642  0.4958 -0.0402  0.1829
  143OSM   H14S15707   6.213   1.800   7.650 -0.3649 -0.2695  0.2238
  143OSM   H14T15708   6.353   1.685   7.650  0.7939  1.1708 -2.0418
  143OSM   C15S15709   6.176   1.617   7.759  0.2009  0.5061  0.9273
  143OSM   H15S15710   6.181   1.506   7.754 -2.7867  0.3329  0.0331
  143OSM   H15T15711   6.068   1.639   7.751  0.1174  0.7289  2.3645
  143OSM   C16S15712   6.215   1.689   7.889  0.1897 -0.0967  0.1715
  143OSM   H16S15713   6.157   1.783   7.880 -0.9788 -0.5460  2.3460
  143OSM   H16T15714   6.322   1.718   7.893  0.1654  0.2031 -1.1798
  143OSM   C17S15715   6.170   1.626   8.019  0.0262 -0.2275  0.8602
  143OSM   H17S15716   6.059   1.616   8.021  0.0526 -0.6538  3.2337
  143OSM   H17T15717   6.201   1.691   8.103 -0.8189  2.4552 -0.7832
  143OSM   C18S15718   6.226   1.488   8.046 -0.2219  0.9794 -0.5433
  143OSM   H18S15719   6.332   1.481   8.015 -0.1342 -0.3226 -0.0091
  143OSM   H18T15720   6.175   1.401   8.000 -1.9518  1.0405  1.1037
  143OSM   H18U15721   6.229   1.458   8.153 -0.7966 -1.8783 -1.2374
  143OSM    C1F15722   6.793   1.471   6.492  0.7461 -0.1560 -0.7400
  143OSM     OF15723   6.811   1.577   6.433 -0.4370 -0.0193  0.1396
  143OSM    C2F15724   6.901   1.394   6.562 -0.1224 -0.1714 -0.4030
  143OSM    H2F15725   6.992   1.368   6.504 -0.0953 -2.2369  0.5093
  143OSM    H2G15726   6.866   1.291   6.580  1.0905 -0.5554 -0.1346
  143OSM    C3F15727   6.935   1.465   6.695  0.1116  0.0151  0.0146
  143OSM    H3F15728   6.942   1.575   6.679  0.3326 -0.0941 -0.6606
  143OSM    H3G15729   7.036   1.431   6.727 -0.8508 -2.5534  0.6100
  143OSM    C4F15730   6.837   1.424   6.801  0.2451  0.0433 -0.0107
  143OSM    H4F15731   6.837   1.313   6.795 -0.3393  0.1021 -1.7455
  143OSM    H4G15732   6.734   1.455   6.776 -1.1570 -4.2712 -0.5377
  143OSM    C5F15733   6.876   1.468   6.944  1.1690  0.0548  0.4439
  143OSM    H5F15734   6.857   1.577   6.942 -1.7045 -0.3481 -2.1716
  143OSM    H5G15735   6.983   1.448   6.966  1.0016 -1.9061 -0.3012
  143OSM    C6F15736   6.786   1.394   7.037  0.4437 -0.6440  0.1437
  143OSM    H6F15737   6.809   1.286   7.031  1.5758 -0.3187 -2.7904
  143OSM    H6G15738   6.681   1.405   7.002  0.9632  0.4624 -1.1398
  143OSM    C7F15739   6.796   1.443   7.183  0.6453 -0.2559  0.3851
  143OSM    H7F15740   6.763   1.548   7.192  0.7460 -0.0001 -1.7942
  143OSM    H7G15741   6.904   1.445   7.209  0.4732  4.2382  1.6244
  143OSM    C8F15742   6.724   1.357   7.289 -0.1492 -0.5851  0.1822
  143OSM    H8F15743   6.754   1.250   7.283 -1.0494 -0.8796  0.6693
  143OSM    H8G15744   6.615   1.359   7.266 -0.0130  1.7345 -0.4830
  143OSM    C9F15745   6.760   1.411   7.426 -0.0815 -0.8048  1.1267
  143OSM    H9F15746   6.859   1.456   7.437 -0.0050  0.1473 -2.3796
  143OSM   C10F15747   6.668   1.419   7.529  0.2477 -0.9969 -0.1142
  143OSM   H10F15748   6.685   1.479   7.620 -2.6088  0.2367 -0.2590
  143OSM   C11F15749   6.519   1.370   7.520 -0.0736 -0.3681  0.0019
  143OSM   H11F15750   6.500   1.315   7.426  0.9200 -3.1586  1.3273
  143OSM   H11G15751   6.440   1.448   7.522  0.0463 -0.2402  1.9979
  143OSM   C12F15752   6.497   1.255   7.617 -0.8700  0.6631  0.2654
  143OSM   H12F15753   6.583   1.186   7.601  0.3068  2.1611 -0.0831
  143OSM   H12G15754   6.412   1.192   7.585 -1.8810  0.6246  2.8014
  143OSM   C13F15755   6.473   1.288   7.760 -0.4281 -0.3815  0.2427
  143OSM   H13F15756   6.371   1.328   7.782 -0.0121  1.1088 -0.4378
  143OSM   H13G15757   6.536   1.369   7.802 -0.9970 -0.2630  0.8933
  143OSM   C14F15758   6.496   1.164   7.844 -0.1439 -0.0192  0.4725
  143OSM   H14F15759   6.589   1.115   7.808 -0.9838  0.9956 -3.6271
  143OSM   H14G15760   6.424   1.085   7.817  0.9081 -0.3859 -1.4663
  143OSM   C15F15761   6.500   1.182   7.994 -0.4502 -0.1146 -0.0721
  143OSM   H15F15762   6.407   1.224   8.039 -0.6076  0.2612 -0.7339
  143OSM   H15G15763   6.576   1.256   8.029 -0.5057  0.4759 -1.1735
  143OSM   C16F15764   6.518   1.043   8.067  0.5459  0.0725 -0.1452
  143OSM   H16F15765   6.612   0.996   8.032  1.9023  2.4553  0.0592
  143OSM   H16G15766   6.437   0.971   8.044 -0.3108  0.4724  1.4774
  143OSM   C17F15767   6.523   1.059   8.217 -0.0308  0.4818  0.1189
  143OSM   H17F15768   6.428   1.087   8.267 -0.0951  1.3595 -0.4723
  143OSM   H17G15769   6.606   1.127   8.248 -1.8352  2.7759  0.1551
  143OSM   C18F15770   6.565   0.926   8.285  0.1928  0.5566  0.8531
  143OSM   H18F15771   6.576   0.933   8.396 -2.5407  0.8472  1.1580
  143OSM   H18G15772   6.664   0.886   8.252  0.8672 -0.1780  3.5104
  143OSM   H18H15773   6.493   0.843   8.268 -0.2482  1.3703 -1.6953
  144OSM      N15774   0.779   3.550   5.948  0.8339 -0.2375 -0.1340
  144OSM    C1515775   0.694   3.442   6.001  0.1651 -0.2269 -0.4181
  144OSM   H15A15776   0.693   3.354   5.938  0.6797  0.3513 -1.2511
  144OSM   H15B15777   0.594   3.482   6.009  0.4253  0.6957 -1.5097
  144OSM   H15C15778   0.729   3.407   6.097  0.5852  1.0410 -0.0945
  144OSM    C1415779   0.905   3.501   5.872  0.3782  0.0324 -0.1153
  144OSM   H14A15780   0.942   3.412   5.921  0.2188 -0.0377 -0.1229
  144OSM   H14B15781   0.968   3.587   5.853  1.3838 -0.3250  1.3774
  144OSM   H14C15782   0.882   3.462   5.774 -0.5331  0.7964 -0.2248
  144OSM    C1315783   0.700   3.629   5.848  0.4605  0.0979 -0.2304
  144OSM   H13A15784   0.756   3.718   5.825  3.3250 -1.4512  0.2217
  144OSM   H13B15785   0.602   3.653   5.885  0.5097  0.5514 -0.3953
  144OSM   H13C15786   0.685   3.575   5.756 -0.2791  1.8683 -1.1843
  144OSM    C1215787   0.824   3.636   6.066 -0.7136  0.0173 -0.0085
  144OSM   H12A15788   0.885   3.716   6.027 -0.2219 -0.8841 -1.1696
  144OSM   H12B15789   0.897   3.578   6.122 -1.4900 -2.0365 -1.0002
  144OSM    C1115790   0.725   3.704   6.164 -0.4050  0.6257 -0.3305
  144OSM   H11A15791   0.785   3.760   6.238 -0.9654 -0.1133  0.6962
  144OSM   H11B15792   0.667   3.626   6.217  0.6913 -0.6763 -0.9731
  144OSM      P15793   0.705   3.926   6.023  0.1080  0.1330 -0.5972
  144OSM    O1315794   0.840   3.902   5.977 -0.1261 -0.3237  0.5823
  144OSM    O1415795   0.605   3.984   5.931  0.4376  0.5430 -0.3257
  144OSM    O1115796   0.726   4.037   6.137 -0.1343 -0.0683  0.2348
  144OSM    O1215797   0.641   3.796   6.091 -0.1969 -0.1584  0.1935
  144OSM    C1S15798   0.615   4.062   6.216  0.1329 -0.6258  0.3847
  144OSM    H1S15799   0.523   4.005   6.191 -0.7955  1.7343 -2.1995
  144OSM    H1T15800   0.584   4.169   6.204 -1.4772 -1.3126 -2.7400
  144OSM     NF15801   0.517   4.026   6.440  0.3516  0.0198  0.0190
  144OSM    HNF15802   0.487   4.090   6.511  1.2547  2.7424 -1.8964
  144OSM    C2S15803   0.647   4.027   6.366 -0.0519  0.3974 -0.1998
  144OSM    H2S15804   0.699   3.929   6.368  0.9803  0.9212 -0.5727
  144OSM    C3S15805   0.754   4.136   6.407 -0.5946 -0.5429  0.0786
  144OSM    H3S15806   0.728   4.242   6.389  1.5799 -0.4035 -3.1136
  144OSM     O315807   0.870   4.133   6.335  0.2261  0.4991  0.1759
  144OSM    HO315808   0.841   4.100   6.250 -0.1903  1.4364 -0.0568
  144OSM    C4S15809   0.794   4.119   6.555  0.2370 -0.8542  0.1077
  144OSM    H4S15810   0.756   4.200   6.618  1.5829  0.4383 -0.6862
  144OSM    C5S15811   0.869   4.023   6.612  0.4060  0.4834  0.2756
  144OSM    H5S15812   0.920   3.953   6.545 -0.6528  0.2673 -0.3438
  144OSM    C6S15813   0.898   4.007   6.755 -0.0951  0.4653 -0.6859
  144OSM    H6S15814   1.006   3.986   6.775  0.3085  0.8044 -2.3247
  144OSM    H6T15815   0.848   3.911   6.779 -0.6290  0.6713 -0.9760
  144OSM    C7S15816   0.844   4.112   6.857 -0.6131 -0.1634  0.5735
  144OSM    H7S15817   0.736   4.127   6.836 -1.0102 -2.0862  1.0017
  144OSM    H7T15818   0.907   4.202   6.845  1.7554 -1.8509 -0.5712
  144OSM    C8S15819   0.859   4.051   7.007 -0.1361 -0.1081 -0.1244
  144OSM    H8S15820   0.964   4.014   7.009 -0.4871 -1.4972 -3.0542
  144OSM    H8T15821   0.802   3.956   7.021 -3.3332  1.6290 -0.4612
  144OSM    C9S15822   0.827   4.151   7.111  0.1418 -0.4553 -1.0669
  144OSM    H9S15823   0.729   4.198   7.088 -0.5800  1.1642  4.0739
  144OSM    H9T15824   0.890   4.242   7.114  0.1417 -0.3008 -3.3923
  144OSM   C10S15825   0.811   4.081   7.243 -0.3518  0.1779 -0.8321
  144OSM   H10S15826   0.909   4.029   7.250 -0.6859 -0.4062 -0.3448
  144OSM   H10T15827   0.737   3.999   7.243  0.6763 -0.8796  1.7524
  144OSM   C11S15828   0.791   4.167   7.369 -0.6898 -0.7159 -0.3780
  144OSM   H11S15829   0.695   4.223   7.361  0.2084  0.7929 -1.1205
  144OSM   H11T15830   0.870   4.246   7.365 -1.4044  0.1284  1.2235
  144OSM   C12S15831   0.797   4.095   7.502 -0.3855  0.2363  0.3902
  144OSM   H12S15832   0.895   4.042   7.505  0.0163  0.8163 -1.3497
  144OSM   H12T15833   0.714   4.021   7.503 -0.6676  0.5118 -0.8166
  144OSM   C13S15834   0.792   4.181   7.628 -0.4996  0.6603 -1.2177
  144OSM   H13S15835   0.699   4.235   7.655  0.8534  2.3734  0.2857
  144OSM   H13T15836   0.871   4.258   7.624  0.4684 -0.0924  1.2686
  144OSM   C14S15837   0.806   4.094   7.754 -0.0866 -0.5678 -0.7536
  144OSM   H14S15838   0.854   4.152   7.836 -0.0418  0.1120 -1.2528
  144OSM   H14T15839   0.884   4.018   7.732  1.2169  0.2900  0.7497
  144OSM   C15S15840   0.677   4.043   7.805  0.1557 -0.2378  0.4405
  144OSM   H15S15841   0.590   4.084   7.749 -0.1761  0.2089  1.2615
  144OSM   H15T15842   0.674   4.074   7.911 -0.3605 -1.3788  0.7721
  144OSM   C16S15843   0.658   3.890   7.791  0.8788 -0.4207 -0.3552
  144OSM   H16S15844   0.739   3.850   7.857  1.0397  1.1625  0.4483
  144OSM   H16T15845   0.677   3.870   7.683 -0.2402 -1.7750 -0.3300
  144OSM   C17S15846   0.519   3.842   7.839  0.2844  0.3543  0.4980
  144OSM   H17S15847   0.478   3.762   7.775 -2.8597  3.1905 -1.3890
  144OSM   H17T15848   0.434   3.911   7.819  0.9749  0.8649 -0.7989
  144OSM   C18S15849   0.504   3.792   7.990 -0.2455 -0.0832  0.5295
  144OSM   H18S15850   0.396   3.766   7.994  0.1972 -2.8422 -1.7446
  144OSM   H18T15851   0.542   3.864   8.066  1.7278 -1.2757  0.7199
  144OSM   H18U15852   0.558   3.698   8.012 -1.6736 -0.1783  4.4060
  144OSM    C1F15853   0.447   3.919   6.442  0.4277 -0.1431  0.4056
  144OSM     OF15854   0.486   3.815   6.395  0.1615 -0.1810  0.2767
  144OSM    C2F15855   0.331   3.930   6.534  1.0259  0.0239  0.3199
  144OSM    H2F15856   0.253   3.993   6.485  1.1176 -0.4702 -0.4758
  144OSM    H2G15857   0.356   3.974   6.634  0.6253 -1.1393  0.9442
  144OSM    C3F15858   0.279   3.798   6.574  0.8862  0.3858 -0.0031
  144OSM    H3F15859   0.347   3.743   6.643 -0.5593 -0.6625  0.6237
  144OSM    H3G15860   0.239   3.733   6.494 -2.5447  1.3150  0.7961
  144OSM    C4F15861   0.148   3.824   6.658  0.0874  0.1343  0.0708
  144OSM    H4F15862   0.092   3.902   6.603  2.6935  1.8245 -0.3792
  144OSM    H4G15863   0.169   3.853   6.763  0.0170  1.1229 -0.1809
  144OSM    C5F15864   0.073   3.699   6.688  0.3869 -0.1061 -0.4404
  144OSM    H5F15865   0.146   3.621   6.716  0.5259 -0.7199 -2.3500
  144OSM    H5G15866   0.018   3.662   6.599  0.2352  0.9897 -0.8221
  144OSM    C6F15867  -0.033   3.717   6.794 -1.2165 -0.1832  0.6922
  144OSM    H6F15868  -0.107   3.635   6.782  0.1581 -1.5388  1.2419
  144OSM    H6G15869  -0.081   3.815   6.770 -0.4232 -0.1130 -0.7012
  144OSM    C7F15870   0.037   3.711   6.927 -0.0045  0.6777 -0.5862
  144OSM    H7F15871   0.099   3.801   6.945 -1.9781  2.5155 -2.5133
  144OSM    H7G15872   0.105   3.624   6.942  0.9721  1.7843  2.0565
  144OSM    C8F15873  -0.077   3.703   7.028  0.9619  0.2737  0.3192
  144OSM    H8F15874  -0.130   3.606   7.016 -0.2044  0.7440  1.4150
  144OSM    H8G15875  -0.145   3.787   7.002  0.4758 -0.1585  0.1534
  144OSM    C9F15876  -0.024   3.706   7.165  0.0392 -0.3732 -0.5152
  144OSM    H9F15877   0.085   3.690   7.173  0.2327  1.1846  0.3423
  144OSM   C10F15878  -0.101   3.727   7.272 -0.2525 -0.8518  0.3134
  144OSM   H10F15879  -0.059   3.734   7.373  1.6101  0.2366 -0.4889
  144OSM   C11F15880  -0.244   3.760   7.285 -0.1314  0.2869  0.8052
  144OSM   H11F15881  -0.298   3.671   7.325 -0.2105  0.7034  1.6328
  144OSM   H11G15882  -0.287   3.781   7.185  0.0438 -2.1184  0.1611
  144OSM   C12F15883  -0.270   3.865   7.389  0.2689 -0.8377  0.2431
  144OSM   H12F15884  -0.216   3.849   7.485 -0.6695  0.8083  1.1019
  144OSM   H12G15885  -0.380   3.871   7.404  0.4854  0.8731  1.4888
  144OSM   C13F15886  -0.244   4.008   7.342  0.0341  0.0059  0.3157
  144OSM   H13F15887  -0.281   4.017   7.237 -1.3387 -0.1762  0.7543
  144OSM   H13G15888  -0.136   4.032   7.333  0.2391 -0.8994  0.3376
  144OSM   C14F15889  -0.315   4.124   7.409  0.7511  0.0427 -0.3048
  144OSM   H14F15890  -0.425   4.115   7.416  0.3409  2.1181 -2.7568
  144OSM   H14G15891  -0.296   4.212   7.344  1.0804  0.4450  0.3159
  144OSM   C15F15892  -0.260   4.175   7.546 -0.2882 -0.0508  0.0161
  144OSM   H15F15893  -0.314   4.267   7.576  0.4771 -0.3476  2.5235
  144OSM   H15G15894  -0.154   4.204   7.525 -0.0731 -0.6143  0.3077
  144OSM   C16F15895  -0.273   4.078   7.663  0.6599 -0.3725 -0.5761
  144OSM   H16F15896  -0.227   4.118   7.756 -0.3253  1.0905 -0.6849
  144OSM   H16G15897  -0.210   3.989   7.643  0.8378 -1.1621  2.8316
  144OSM   C17F15898  -0.417   4.034   7.691  1.1917 -0.0544  0.6351
  144OSM   H17F15899  -0.466   3.979   7.608 -1.4834 -1.2547  2.8370
  144OSM   H17G15900  -0.488   4.119   7.700  0.2127 -0.9578  1.8514
  144OSM   C18F15901  -0.429   3.940   7.818  0.3435 -0.5733  0.5217
  144OSM   H18F15902  -0.405   3.999   7.909 -1.7379  2.6203 -0.8231
  144OSM   H18G15903  -0.381   3.840   7.813 -2.9695 -2.2687 -2.2135
  144OSM   H18H15904  -0.539   3.925   7.829  0.4933 -1.4469  0.8918
  145SAPE     N15905   5.422   5.496  10.730 -0.7951 -0.2951  0.2896
  145SAPE   HN115906   5.318   5.508  10.727 -0.6535  1.2334  0.6110
  145SAPE   HN215907   5.459   5.513  10.635 -1.6507  2.0278  0.3114
  145SAPE   HN315908   5.437   5.400  10.768  1.7269  0.6065  1.8033
  145SAPE   C1215909   5.478   5.603  10.823 -0.0754  0.6234 -0.1018
  145SAPE  H12A15910   5.588   5.607  10.808  0.0923  1.8718  1.3048
  145SAPE  H12B15911   5.447   5.559  10.920 -0.2623  0.8474 -0.0592
  145SAPE   C1115912   5.409   5.733  10.791  0.3329  0.9875  0.0633
  145SAPE  H11A15913   5.441   5.793  10.879 -0.9430 -1.5721  2.4547
  145SAPE  H11B15914   5.299   5.723  10.797  0.2501 -0.1014 -2.2675
  145SAPE     P15915   5.398   5.935  10.621 -0.0592  0.2166 -0.2295
  145SAPE   O1315916   5.301   5.972  10.726 -0.6171  0.0655  1.0099
  145SAPE   O1415917   5.508   6.028  10.604  0.2675  0.6020 -0.8320
  145SAPE   O1215918   5.444   5.783  10.661 -0.4469 -0.5633 -0.1454
  145SAPE   O1115919   5.323   5.918  10.482  0.1006  0.5440 -0.0207
  145SAPE    C115920   5.304   5.802  10.400 -1.0033  0.4034  0.1039
  145SAPE    HA15921   5.333   5.707  10.448 -1.0902  0.6165  0.5882
  145SAPE    HB15922   5.194   5.797  10.383 -0.6832  1.2048 -2.7364
  145SAPE    C215923   5.371   5.812  10.263 -0.2859  1.0725  0.3167
  145SAPE    HS15924   5.317   5.897  10.216  0.0856  1.0337 -0.1944
  145SAPE   O2115925   5.360   5.684  10.196  0.1381 -0.2847  0.5232
  145SAPE   C2115926   5.323   5.680  10.071  0.1819  1.1027 -0.2112
  145SAPE   O2215927   5.289   5.777  10.006 -0.0767  0.4744 -0.3489
  145SAPE   C2215928   5.314   5.534  10.033  0.1530  0.2438  0.0488
  145SAPE   H2R15929   5.391   5.476  10.088  1.3464  0.7389 -1.0579
  145SAPE   H2S15930   5.209   5.503  10.052 -1.3609  2.9545 -2.9166
  145SAPE    C315931   5.513   5.850  10.269  0.4050  0.5698 -0.2464
  145SAPE    HX15932   5.559   5.771  10.332  1.2114 -0.4471 -2.0460
  145SAPE    HY15933   5.540   5.940  10.329  2.2859  1.4283 -2.2584
  145SAPE   O3115934   5.582   5.856  10.139  0.0544 -0.1642  0.8158
  145SAPE   C3115935   5.577   5.972  10.074 -0.4467  0.5913 -0.1971
  145SAPE   O3215936   5.527   6.075  10.112 -0.0169  0.1459 -0.4834
  145SAPE   C3215937   5.661   5.965   9.951 -0.1137 -0.4035 -0.1565
  145SAPE   H2X15938   5.737   5.885   9.958  3.8388  2.9525 -0.6831
  145SAPE   H2Y15939   5.706   6.066   9.938 -1.7455  0.1935 -1.5344
  145SAPE   C2315940   5.352   5.510   9.887 -0.7494 -0.8112 -0.4540
  145SAPE   H3R15941   5.458   5.539   9.873 -0.9436  0.2606  0.1769
  145SAPE   H3S15942   5.286   5.579   9.830 -0.9906 -0.2720  0.4389
  145SAPE   C2415943   5.342   5.365   9.840 -0.0328 -0.3239 -0.2566
  145SAPE   H4R15944   5.245   5.328   9.879  0.3174  0.2682  1.2385
  145SAPE   H4S15945   5.413   5.292   9.883 -0.3547 -1.1563 -1.1157
  145SAPE   C2515946   5.327   5.364   9.685 -0.3392 -0.3553 -0.4139
  145SAPE   H5R15947   5.277   5.447   9.632 -0.2108 -1.2353 -2.0079
  145SAPE   C2615948   5.396   5.279   9.605 -0.7748 -0.0529  0.6062
  145SAPE   H6R15949   5.384   5.286   9.496  0.3561 -0.2345  0.4593
  145SAPE   C2715950   5.493   5.173   9.645 -0.0150  0.0186 -0.1993
  145SAPE   H7R15951   5.532   5.199   9.746 -0.1473  1.0014 -0.3866
  145SAPE   H7S15952   5.582   5.190   9.581 -0.4257  0.9500 -0.5322
  145SAPE   C2815953   5.433   5.035   9.633  0.0548 -0.0963  0.0111
  145SAPE   H8R15954   5.338   5.027   9.687 -0.6447  0.6950 -1.0623
  145SAPE   C2915955   5.490   4.926   9.575  0.2480  0.0957 -0.9208
  145SAPE   H9R15956   5.446   4.825   9.584 -0.2978  0.5367  2.8776
  145SAPE  C21015957   5.624   4.928   9.505  0.8537  0.4327 -0.1538
  145SAPE  H10R15958   5.657   4.822   9.501  3.0640  1.0644 -0.2828
  145SAPE  H10S15959   5.695   4.978   9.575  2.3818 -1.6711 -0.1036
  145SAPE  C21115960   5.618   4.986   9.371  0.3115  1.3426  0.3089
  145SAPE  H11R15961   5.518   5.026   9.349 -0.5866 -0.7750  0.3306
  145SAPE  C21215962   5.721   4.985   9.285 -0.2024  0.1021  0.0103
  145SAPE  H12R15963   5.714   5.032   9.185 -0.0145 -1.1926 -0.6393
  145SAPE  C21315964   5.858   4.918   9.312 -0.4174  0.3760 -0.3407
  145SAPE  H13R15965   5.894   4.942   9.415  0.0139 -1.2548 -0.0767
  145SAPE  H13S15966   5.923   4.979   9.246  1.5486  0.6888  1.7295
  145SAPE  C21415967   5.875   4.774   9.281 -0.5342 -0.0778 -0.9978
  145SAPE  H14R15968   5.875   4.698   9.361  1.6514  0.0247 -0.8444
  145SAPE  C21515969   5.911   4.730   9.159 -0.0100  0.3878  0.0452
  145SAPE  H15R15970   5.938   4.624   9.152 -0.6920  0.1986  0.2600
  145SAPE  C21615971   5.933   4.810   9.027 -0.9527 -0.0582 -0.3915
  145SAPE  H16R15972   5.986   4.905   9.045 -1.0023  0.2431 -1.7382
  145SAPE  H16S15973   5.835   4.820   8.975 -1.6581  0.8425  1.0600
  145SAPE  C21715974   6.013   4.734   8.922 -0.0805  0.6341 -0.6493
  145SAPE  H17R15975   5.963   4.640   8.888 -1.3799  0.5726  1.2898
  145SAPE  H17S15976   6.114   4.701   8.955  0.9538 -0.3689 -4.2776
  145SAPE  C21815977   6.036   4.827   8.797  0.4814  0.3791 -0.3626
  145SAPE  H18R15978   6.076   4.762   8.716 -0.7771  0.9994 -1.5076
  145SAPE  H18S15979   6.111   4.905   8.823 -0.4895  0.9317  0.8755
  145SAPE  C21915980   5.909   4.887   8.742 -0.3651  0.3818  0.5740
  145SAPE  H19R15981   5.876   4.966   8.813 -3.2960 -0.5197  0.3411
  145SAPE  H19S15982   5.825   4.815   8.734 -1.4179  1.4336  1.5200
  145SAPE  C22015983   5.917   4.942   8.599 -0.2857 -0.2282 -0.5977
  145SAPE  H20R15984   5.825   4.989   8.556  0.0505 -0.1639 -1.2613
  145SAPE  H20S15985   5.951   4.868   8.523 -0.1697 -0.9203  0.1175
  145SAPE  H20T15986   6.001   5.015   8.601 -0.0658 -0.4815 -0.6514
  145SAPE   C3315987   5.572   5.941   9.827  0.8752 -0.0701  0.4518
  145SAPE   H3X15988   5.521   6.037   9.809  1.6373  0.5355  1.4203
  145SAPE   H3Y15989   5.503   5.855   9.838  0.9979 -0.2090  0.1431
  145SAPE   C3415990   5.657   5.899   9.704 -0.3532  0.3386  0.0459
  145SAPE   H4X15991   5.700   5.799   9.725  0.4750  0.8061  0.6108
  145SAPE   H4Y15992   5.733   5.981   9.696 -1.5859  1.6159  0.8879
  145SAPE   C3515993   5.567   5.892   9.574 -0.2882 -0.5346 -0.1860
  145SAPE   H5X15994   5.496   5.977   9.565  0.0826 -0.3393 -1.5859
  145SAPE   H5Y15995   5.502   5.805   9.600  0.8686 -1.3088  0.1962
  145SAPE   C3615996   5.640   5.862   9.446 -0.1708 -0.1635  0.0868
  145SAPE   H6X15997   5.728   5.797   9.464 -0.9175 -1.2903 -0.1962
  145SAPE   H6Y15998   5.681   5.955   9.402  2.6769 -1.3549  0.0075
  145SAPE   C3715999   5.551   5.793   9.341 -0.5110 -0.5221  0.2806
  145SAPE   H7X16000   5.467   5.862   9.315 -0.5047 -0.9707 -1.0112
  145SAPE   H7Y16001   5.520   5.691   9.372  0.3662 -1.1690 -0.9248
  145SAPE   C3816002   5.621   5.768   9.198 -0.4154  0.5735  0.4617
  145SAPE   H8X16003   5.689   5.680   9.205  0.2670  0.9338 -1.3268
  145SAPE   H8Y16004   5.685   5.855   9.173  0.1235  0.8936  2.7247
  145SAPE   C3916005   5.517   5.752   9.089  1.2743  0.0902  0.5048
  145SAPE   H9X16006   5.458   5.843   9.066  1.1490  0.1855  1.1872
  145SAPE   H9Y16007   5.444   5.677   9.125  1.4948 -0.6516 -0.5419
  145SAPE  C31016008   5.568   5.699   8.943  0.4636 -0.3453 -0.7321
  145SAPE  H10X16009   5.477   5.690   8.879 -2.2059  0.2156  2.7068
  145SAPE  H10Y16010   5.607   5.596   8.960  2.6801  0.1974 -2.0426
  145SAPE  C31116011   5.679   5.791   8.890 -0.0636  0.0904  0.9398
  145SAPE  H11X16012   5.766   5.804   8.957  1.9778  2.6532 -1.9243
  145SAPE  H11Y16013   5.633   5.892   8.877  2.0210  0.9530 -0.1424
  145SAPE  C31216014   5.722   5.739   8.754 -0.2178 -0.1507  0.1948
  145SAPE  H12X16015   5.628   5.755   8.696 -1.2544 -0.3526  1.7463
  145SAPE  H12Y16016   5.755   5.634   8.773  0.1647  0.0146  0.4346
  145SAPE  C31316017   5.840   5.822   8.695 -0.6927 -1.0529  0.2048
  145SAPE  H13X16018   5.880   5.762   8.610 -0.3671 -0.2870 -0.1863
  145SAPE  H13Y16019   5.926   5.837   8.762  0.5541  0.4963 -1.6368
  145SAPE  C31416020   5.794   5.954   8.635  0.3786 -0.3205  0.0538
  145SAPE  H14X16021   5.802   6.031   8.714  0.7848  1.3120 -1.5026
  145SAPE  H14Y16022   5.687   5.949   8.607  0.5847  0.6696 -1.0091
  145SAPE  C31516023   5.876   6.003   8.515  0.1785 -0.2162  0.2397
  145SAPE  H15X16024   5.984   5.996   8.539  0.1191  1.3028  1.0730
  145SAPE  H15Y16025   5.872   6.112   8.496  1.0889  0.1264  1.8093
  145SAPE  C31616026   5.842   5.937   8.379  0.2075  0.1704  0.3870
  145SAPE  H16X16027   5.775   6.010   8.330  0.7039  0.3703  0.0072
  145SAPE  H16Y16028   5.779   5.846   8.391 -1.6470  1.4230  0.4587
  145SAPE  C31716029   5.963   5.917   8.290 -0.5154 -0.3737 -0.3409
  145SAPE  H17X16030   6.037   5.849   8.337 -1.4420 -0.2969  1.3254
  145SAPE  H17Y16031   6.002   6.020   8.277 -1.0483  0.1117  1.4980
  145SAPE  C31816032   5.927   5.862   8.156  0.7856 -0.7666  0.1765
  145SAPE  H18X16033   5.890   5.757   8.162  0.1303 -0.7136 -1.9403
  145SAPE  H18Y16034   6.020   5.865   8.096  0.7403  1.0246  0.1511
  145SAPE  H18Z16035   5.846   5.925   8.112  1.6506 -0.2623 -0.7566
  146SAPE     N16036   4.718   1.316  10.754 -0.2783  0.4329 -0.3979
  146SAPE   HN116037   4.736   1.371  10.840  1.0378 -1.1816  0.4058
  146SAPE   HN216038   4.616   1.294  10.764 -0.0848  0.3177  1.8206
  146SAPE   HN316039   4.772   1.231  10.779  0.0570  1.3518  2.2877
  146SAPE   C1216040   4.764   1.385  10.626 -0.1903  0.8111 -0.1973
  146SAPE  H12A16041   4.724   1.335  10.535  2.6602 -0.9987 -0.5664
  146SAPE  H12B16042   4.874   1.370  10.621  0.0686  2.7263 -1.1074
  146SAPE   C1116043   4.735   1.535  10.629 -0.6971 -0.1470 -0.3152
  146SAPE  H11A16044   4.626   1.548  10.647 -0.7936 -1.8578  0.5013
  146SAPE  H11B16045   4.756   1.587  10.533  2.7687  0.3029  0.5515
  146SAPE     P16046   4.957   1.647  10.715  0.6196  0.2317  0.0990
  146SAPE   O1316047   4.991   1.740  10.824 -0.1322 -0.8644  0.3628
  146SAPE   O1416048   5.038   1.527  10.701  0.0325 -0.5616 -0.5686
  146SAPE   O1216049   4.803   1.609  10.736 -0.1474 -0.4651  0.2972
  146SAPE   O1116050   4.941   1.714  10.571  0.5081  0.3191 -0.4048
  146SAPE    C116051   4.886   1.845  10.553  0.0295  0.2961 -0.0202
  146SAPE    HA16052   4.775   1.841  10.551  0.0028  1.0352 -1.4211
  146SAPE    HB16053   4.916   1.911  10.637  0.4749 -1.3931  1.1941
  146SAPE    C216054   4.952   1.905  10.427  0.0314  0.0318  0.4062
  146SAPE    HS16055   4.890   1.990  10.392  0.2253 -0.5851 -1.5189
  146SAPE   O2116056   4.960   1.810  10.313  0.5613 -0.5725  0.1610
  146SAPE   C2116057   4.848   1.755  10.269 -0.7090 -0.0043 -0.1251
  146SAPE   O2216058   4.734   1.772  10.305  0.0970 -0.5307 -0.4890
  146SAPE   C2216059   4.877   1.667  10.141 -0.0127 -0.4435 -0.4734
  146SAPE   H2R16060   4.979   1.687  10.101 -0.1526 -0.3696 -0.7954
  146SAPE   H2S16061   4.880   1.562  10.178  0.7729  0.0419  0.9147
  146SAPE    C316062   5.094   1.955  10.455 -0.0437 -0.3571 -0.7985
  146SAPE    HX16063   5.154   1.867  10.487  1.3732  1.0162  0.5603
  146SAPE    HY16064   5.089   2.027  10.540 -1.2844  0.1735 -1.3035
  146SAPE   O3116065   5.150   2.025  10.338 -0.2441 -0.7049  0.3214
  146SAPE   C3116066   5.146   2.158  10.327 -0.3001 -0.9309  0.0436
  146SAPE   O3216067   5.094   2.240  10.402  0.2990  0.5723  0.3583
  146SAPE   C3216068   5.223   2.203  10.204 -0.0863 -0.1761  0.2271
  146SAPE   H2X16069   5.205   2.119  10.132  0.6818  1.2402 -1.7084
  146SAPE   H2Y16070   5.331   2.205  10.228  0.2869  3.0079 -1.1567
  146SAPE   C2316071   4.765   1.667  10.036  0.2470 -0.6185  0.5126
  146SAPE   H3R16072   4.763   1.758   9.973 -0.6281  0.1512  1.5996
  146SAPE   H3S16073   4.668   1.670  10.091  0.5155 -1.1651  1.0350
  146SAPE   C2416074   4.769   1.546   9.951  0.0629  0.0681 -0.2865
  146SAPE   H4R16075   4.663   1.524   9.926  0.5262  1.1337 -3.7583
  146SAPE   H4S16076   4.803   1.458  10.010 -1.7054  0.3112  1.1984
  146SAPE   C2516077   4.856   1.564   9.828  0.4267  0.0483 -0.7019
  146SAPE   H5R16078   4.963   1.568   9.853  0.4521  1.1235 -0.9024
  146SAPE   C2616079   4.816   1.544   9.701 -0.3451  0.4188 -0.2466
  146SAPE   H6R16080   4.887   1.547   9.617 -2.0922 -1.8057 -1.9438
  146SAPE   C2716081   4.678   1.514   9.645  0.3247 -0.3979 -0.1926
  146SAPE   H7R16082   4.610   1.486   9.728  1.0920  0.8223  0.8826
  146SAPE   H7S16083   4.679   1.418   9.589  0.7870 -0.9481  0.7368
  146SAPE   C2816084   4.629   1.640   9.575 -0.5029  0.7599 -0.1766
  146SAPE   H8R16085   4.580   1.712   9.642 -0.7567 -0.4008  0.9115
  146SAPE   C2916086   4.604   1.658   9.444  0.7861  0.1990  0.0854
  146SAPE   H9R16087   4.573   1.758   9.411  0.3439 -0.2305 -0.8500
  146SAPE  C21016088   4.615   1.552   9.341  1.0116  0.9154  0.8634
  146SAPE  H10R16089   4.518   1.499   9.332  0.8537  0.9462  2.2624
  146SAPE  H10S16090   4.691   1.477   9.370  1.5563  1.7446  1.6274
  146SAPE  C21116091   4.649   1.610   9.210  0.1890 -0.0956 -0.3734
  146SAPE  H11R16092   4.746   1.661   9.208  0.0960  0.0601 -0.9527
  146SAPE  C21216093   4.576   1.622   9.095 -0.1386  0.3624 -0.2912
  146SAPE  H12R16094   4.630   1.659   9.007  1.4010 -2.2995 -0.5705
  146SAPE  C21316095   4.435   1.583   9.064  0.1335  0.9459  0.2569
  146SAPE  H13R16096   4.386   1.532   9.150  1.0062  1.0222  0.8200
  146SAPE  H13S16097   4.444   1.501   8.990  2.5630  1.6937 -0.3571
  146SAPE  C21416098   4.348   1.692   9.010 -0.5424  0.1606 -0.0712
  146SAPE  H14R16099   4.377   1.777   9.073  0.9280 -2.4631  3.0993
  146SAPE  C21516100   4.248   1.692   8.922  0.2890  0.3072 -0.3970
  146SAPE  H15R16101   4.183   1.780   8.915 -2.8536 -1.9423 -2.7481
  146SAPE  C21616102   4.200   1.569   8.842  0.0487 -0.0538 -0.1749
  146SAPE  H16R16103   4.090   1.568   8.828  0.0205 -0.0286  0.0356
  146SAPE  H16S16104   4.220   1.471   8.890 -0.0185 -0.1756 -0.3976
  146SAPE  C21716105   4.254   1.567   8.700 -0.2672  0.2868  0.2891
  146SAPE  H17R16106   4.215   1.470   8.663  0.5179  0.4933 -1.1252
  146SAPE  H17S16107   4.364   1.566   8.682 -0.5296 -0.1485 -1.4337
  146SAPE  C21816108   4.206   1.688   8.618 -0.2740 -0.2525  0.3061
  146SAPE  H18R16109   4.234   1.783   8.669  0.0847 -0.0278 -0.2981
  146SAPE  H18S16110   4.097   1.677   8.604 -0.2523 -0.1768  0.0743
  146SAPE  C21916111   4.263   1.696   8.472  1.0197  0.6177 -0.1258
  146SAPE  H19R16112   4.234   1.602   8.420  0.8639  0.7646 -0.3110
  146SAPE  H19S16113   4.372   1.684   8.490  1.2284  1.4341 -0.7390
  146SAPE  C22016114   4.218   1.813   8.392 -0.4500 -0.5925 -0.3548
  146SAPE  H20R16115   4.228   1.915   8.435 -1.2984 -1.1768  1.3114
  146SAPE  H20S16116   4.110   1.797   8.374 -0.4953 -1.2207  0.4150
  146SAPE  H20T16117   4.267   1.810   8.292 -1.8246  5.3576 -1.5805
  146SAPE   C3316118   5.194   2.342  10.149  0.3545 -0.4526  0.4097
  146SAPE   H3X16119   5.205   2.418  10.229 -1.6743  0.6518 -0.3051
  146SAPE   H3Y16120   5.091   2.342  10.108  0.2283 -0.8853  0.7160
  146SAPE   C3416121   5.274   2.370  10.025  0.0557 -0.1062  0.1054
  146SAPE   H4X16122   5.382   2.382  10.049  0.1840  2.2557 -1.3789
  146SAPE   H4Y16123   5.246   2.470   9.988  0.8026  1.4002  3.2573
  146SAPE   C3516124   5.253   2.276   9.904  0.5589  0.5261  0.2603
  146SAPE   H5X16125   5.149   2.237   9.906  0.3575  1.0235 -0.2425
  146SAPE   H5Y16126   5.323   2.191   9.913  0.2831  0.3199  0.4501
  146SAPE   C3616127   5.296   2.322   9.762  0.0132 -0.1943  0.3820
  146SAPE   H6X16128   5.405   2.341   9.768 -0.2279  0.9235  1.7802
  146SAPE   H6Y16129   5.252   2.423   9.744 -0.7282  0.1985  3.6929
  146SAPE   C3716130   5.247   2.238   9.651  0.2824 -0.4525  0.2247
  146SAPE   H7X16131   5.137   2.229   9.642  0.1299 -0.5807  2.0105
  146SAPE   H7Y16132   5.273   2.132   9.672 -0.6569 -0.6797  0.2823
  146SAPE   C3816133   5.325   2.289   9.521  0.6732 -0.3551 -0.6477
  146SAPE   H8X16134   5.318   2.210   9.444 -1.7954 -1.7035  0.8279
  146SAPE   H8Y16135   5.432   2.288   9.552  0.6406 -1.7245 -0.4937
  146SAPE   C3916136   5.275   2.421   9.460  0.1236 -0.2929  0.1699
  146SAPE   H9X16137   5.274   2.492   9.546  1.9405  2.4248 -1.8571
  146SAPE   H9Y16138   5.170   2.408   9.426  0.6551 -0.6577 -1.4383
  146SAPE  C31016139   5.370   2.484   9.350  0.1160 -0.2346 -1.4171
  146SAPE  H10X16140   5.478   2.480   9.378 -0.1696  1.9965  0.3259
  146SAPE  H10Y16141   5.342   2.591   9.353 -1.7871 -0.6945 -1.6178
  146SAPE  C31116142   5.337   2.422   9.213  0.1722 -0.0929 -0.0081
  146SAPE  H11X16143   5.228   2.433   9.197  0.0095  0.0763  1.0921
  146SAPE  H11Y16144   5.358   2.313   9.213  1.1459  0.0803  0.1206
  146SAPE  C31216145   5.416   2.474   9.092 -0.3700 -0.3016  0.5849
  146SAPE  H12X16146   5.524   2.464   9.112 -0.6763 -0.8292  2.1267
  146SAPE  H12Y16147   5.390   2.582   9.087  0.5404  0.1001  3.1941
  146SAPE  C31316148   5.381   2.402   8.962 -0.5508 -0.3632 -0.8818
  146SAPE  H13X16149   5.287   2.343   8.967 -0.2744 -0.7117  0.9429
  146SAPE  H13Y16150   5.461   2.329   8.938 -1.5974 -1.6983 -0.4779
  146SAPE  C31416151   5.356   2.494   8.838 -0.6140 -0.3169  0.1635
  146SAPE  H14X16152   5.265   2.552   8.866 -2.0918 -2.9527  1.1127
  146SAPE  H14Y16153   5.315   2.442   8.749 -0.6516 -0.2450  0.1380
  146SAPE  C31516154   5.484   2.572   8.798  0.7666  0.4195  0.1999
  146SAPE  H15X16155   5.555   2.501   8.751  2.0181  0.2171  2.2852
  146SAPE  H15Y16156   5.536   2.624   8.881 -3.0235 -0.0790  3.1989
  146SAPE  C31616157   5.450   2.684   8.694 -0.6130  0.3819  0.4490
  146SAPE  H16X16158   5.397   2.767   8.744  1.0117  2.1550 -0.6378
  146SAPE  H16Y16159   5.384   2.651   8.612 -0.7526  0.2937  0.5956
  146SAPE  C31716160   5.587   2.742   8.649 -0.1364  0.3735  0.4789
  146SAPE  H17X16161   5.654   2.657   8.623  2.3148  2.5715 -0.7994
  146SAPE  H17Y16162   5.631   2.800   8.733  2.2159  0.7182 -0.8953
  146SAPE  C31816163   5.569   2.827   8.529 -0.3076 -0.5813  1.2319
  146SAPE  H18X16164   5.527   2.768   8.445 -1.4967  1.3083  0.4436
  146SAPE  H18Y16165   5.662   2.879   8.497 -1.2689  0.2472 -0.3265
  146SAPE  H18Z16166   5.493   2.906   8.551  1.2779  1.3475  0.1056
  147SAPE     N16167   6.418   5.990  10.875 -0.2279  0.0233  0.2232
  147SAPE   HN116168   6.473   5.935  10.807  2.4227  0.7226  1.6521
  147SAPE   HN216169   6.455   6.087  10.881 -0.5216  0.2726 -1.5622
  147SAPE   HN316170   6.434   5.947  10.969 -0.2921 -1.2885 -0.3468
  147SAPE   C1216171   6.273   5.983  10.839  1.0811  0.0143 -0.3446
  147SAPE  H12A16172   6.257   5.913  10.754  1.3894 -0.1996 -0.2317
  147SAPE  H12B16173   6.240   6.082  10.799 -1.3520 -1.0909 -1.2851
  147SAPE   C1116174   6.181   5.922  10.947 -0.5851 -0.6308 -0.0587
  147SAPE  H11A16175   6.183   5.995  11.030 -1.0462 -0.7187  0.0298
  147SAPE  H11B16176   6.239   5.832  10.978  2.7446  0.5518 -2.3051
  147SAPE     P16177   5.952   5.810  10.973  0.2133 -0.1477 -0.2527
  147SAPE   O1316178   5.999   5.669  10.974  0.2725 -0.5240 -0.4247
  147SAPE   O1416179   5.926   5.869  11.106  0.1834 -0.5135  0.2423
  147SAPE   O1216180   6.051   5.901  10.893 -0.2264  0.1834  0.4102
  147SAPE   O1116181   5.819   5.812  10.891 -0.2726 -0.3888 -0.3010
  147SAPE    C116182   5.826   5.828  10.748  0.5017  0.7425  0.4302
  147SAPE    HA16183   5.740   5.890  10.715 -2.1209 -2.2903  1.0930
  147SAPE    HB16184   5.918   5.881  10.714  2.2602 -3.5245 -2.2266
  147SAPE    C216185   5.824   5.701  10.666 -0.1299  0.9566 -1.1045
  147SAPE    HS16186   5.771   5.623  10.723 -2.4527  2.5576 -0.9514
  147SAPE   O2116187   5.969   5.673  10.648  0.1201  0.5292  0.0324
  147SAPE   C2116188   6.002   5.542  10.643 -0.4802 -0.1519 -0.1810
  147SAPE   O2216189   5.936   5.441  10.663 -0.2697 -1.3512 -0.1311
  147SAPE   C2216190   6.152   5.536  10.616 -0.2264  0.5709  0.1511
  147SAPE   H2R16191   6.207   5.601  10.686  1.1201  0.4967 -0.8091
  147SAPE   H2S16192   6.195   5.435  10.635  4.1795  2.1674 -0.3585
  147SAPE    C316193   5.761   5.725  10.531 -0.4391  0.0855  0.6611
  147SAPE    HX16194   5.821   5.812  10.496 -0.9797 -1.3213 -4.6996
  147SAPE    HY16195   5.656   5.755  10.554 -0.0949 -0.3242  2.9451
  147SAPE   O3116196   5.774   5.627  10.426 -0.9618  0.7233 -0.3069
  147SAPE   C3116197   5.689   5.527  10.449  0.3826  0.1479  0.3859
  147SAPE   O3216198   5.634   5.502  10.555  0.2219 -0.2338 -0.3072
  147SAPE   C3216199   5.677   5.437  10.322 -0.0998  0.1748  0.6077
  147SAPE   H2X16200   5.568   5.414  10.317 -0.2931  1.1520  0.1936
  147SAPE   H2Y16201   5.733   5.342  10.338 -1.0655 -0.4458  0.3805
  147SAPE   C2316202   6.175   5.577  10.474  0.3389 -0.2490 -0.4020
  147SAPE   H3R16203   6.282   5.568  10.446  0.8922  0.5374  1.2904
  147SAPE   H3S16204   6.153   5.686  10.473  3.7724  0.5658 -0.3926
  147SAPE   C2416205   6.083   5.501  10.370 -0.1900 -0.3594  0.3739
  147SAPE   H4R16206   6.107   5.541  10.270  0.3620  1.7904  1.3076
  147SAPE   H4S16207   5.977   5.522  10.399 -0.1707 -1.7285  1.5935
  147SAPE   C2516208   6.114   5.351  10.383  0.9807 -0.4168 -0.0473
  147SAPE   H5R16209   6.072   5.298  10.469  0.1370  2.0145  1.1110
  147SAPE   C2616210   6.152   5.269  10.283  0.5880  0.0927  0.4534
  147SAPE   H6R16211   6.157   5.161  10.304  0.5797  0.5361  3.1802
  147SAPE   C2716212   6.185   5.312  10.149  0.2420  0.7402  0.2465
  147SAPE   H7R16213   6.179   5.417  10.112  0.9046  0.7445  0.1398
  147SAPE   H7S16214   6.091   5.276  10.102 -1.4681  3.1121  1.6150
  147SAPE   C2816215   6.310   5.240  10.098 -0.3990 -0.3451  0.1710
  147SAPE   H8R16216   6.368   5.188  10.176 -2.4474 -0.6177  1.5959
  147SAPE   C2916217   6.345   5.215   9.973 -0.4695  0.2303 -0.4047
  147SAPE   H9R16218   6.438   5.160   9.956 -0.2125 -0.3904  2.5771
  147SAPE  C21016219   6.276   5.253   9.844  0.4203  0.3629  0.3005
  147SAPE  H10R16220   6.173   5.213   9.832 -0.1023  2.0184 -1.1583
  147SAPE  H10S16221   6.343   5.201   9.772  0.5011  0.1892  0.4995
  147SAPE  C21116222   6.261   5.390   9.802 -0.2173 -0.7654 -0.6105
  147SAPE  H11R16223   6.239   5.454   9.889 -0.0532 -0.0919 -1.0553
  147SAPE  C21216224   6.284   5.443   9.680 -0.4781 -0.3028 -0.8905
  147SAPE  H12R16225   6.266   5.550   9.658  1.3458  0.2911  0.1778
  147SAPE  C21316226   6.319   5.363   9.557  0.4741 -0.2357 -0.1450
  147SAPE  H13R16227   6.268   5.264   9.559 -1.2104  0.4255 -3.4860
  147SAPE  H13S16228   6.428   5.340   9.555  0.1553 -1.8660  0.2101
  147SAPE  C21416229   6.267   5.431   9.427  0.6862  0.8244 -0.2597
  147SAPE  H14R16230   6.159   5.446   9.414  0.4392 -0.0273  0.6447
  147SAPE  C21516231   6.344   5.470   9.326  0.5969  0.0037 -0.8271
  147SAPE  H15R16232   6.289   5.516   9.243 -0.1948 -1.6340 -1.2590
  147SAPE  C21616233   6.491   5.460   9.308 -0.2038  1.1060 -0.1024
  147SAPE  H16R16234   6.525   5.364   9.265 -1.2080  1.2122 -1.1823
  147SAPE  H16S16235   6.537   5.479   9.408 -2.2503  0.2693  1.0621
  147SAPE  C21716236   6.540   5.570   9.215  0.2265  0.0173 -0.1426
  147SAPE  H17R16237   6.645   5.587   9.247 -0.0053  0.8545  0.1951
  147SAPE  H17S16238   6.482   5.663   9.233 -2.2355 -0.9961 -2.2536
  147SAPE  C21816239   6.541   5.525   9.066 -0.3453  1.0112  0.2203
  147SAPE  H18R16240   6.433   5.501   9.053 -0.2615 -1.0739  2.6391
  147SAPE  H18S16241   6.592   5.427   9.055 -0.8554  0.8383 -0.7401
  147SAPE  C21916242   6.605   5.627   8.978  0.2940 -0.0386  0.5703
  147SAPE  H19R16243   6.716   5.618   8.985  0.4770 -0.7176 -2.0210
  147SAPE  H19S16244   6.578   5.719   9.033  3.9178  0.9778  0.8913
  147SAPE  C22016245   6.554   5.618   8.832 -0.3793 -0.2314  0.1468
  147SAPE  H20R16246   6.455   5.663   8.811 -0.3545 -0.9870 -1.8314
  147SAPE  H20S16247   6.561   5.513   8.796  1.2759 -0.3893  0.8421
  147SAPE  H20T16248   6.626   5.677   8.771 -2.2647  1.1859 -0.7883
  147SAPE   C3316249   5.711   5.505  10.194 -0.4894  0.3901 -0.3576
  147SAPE   H3X16250   5.819   5.528  10.191 -0.2541 -0.1324  2.1880
  147SAPE   H3Y16251   5.663   5.604  10.181 -0.5236  0.6609  1.5855
  147SAPE   C3416252   5.688   5.427  10.061 -0.5141 -0.0791  0.7438
  147SAPE   H4X16253   5.580   5.405  10.045 -0.4320  0.1440 -0.1796
  147SAPE   H4Y16254   5.750   5.336  10.070 -0.9241 -0.5014 -0.4791
  147SAPE   C3516255   5.747   5.501   9.937  0.3463 -0.0493 -0.3051
  147SAPE   H5X16256   5.842   5.548   9.971 -0.1010  0.7159 -0.0623
  147SAPE   H5Y16257   5.672   5.572   9.895  0.6604  0.5899  0.1906
  147SAPE   C3616258   5.790   5.401   9.834  0.1428  0.9471  0.1030
  147SAPE   H6X16259   5.695   5.345   9.821 -0.8697  1.8215  2.9318
  147SAPE   H6Y16260   5.869   5.333   9.874 -1.4674 -1.2054 -0.1909
  147SAPE   C3716261   5.852   5.452   9.706  0.4171  0.6791 -0.6639
  147SAPE   H7X16262   5.955   5.493   9.713  0.1756  1.0555  1.1251
  147SAPE   H7Y16263   5.775   5.517   9.659 -0.7594  0.6806  1.1498
  147SAPE   C3816264   5.873   5.343   9.597 -0.3271 -0.1545 -0.2750
  147SAPE   H8X16265   5.776   5.290   9.608  0.3209 -1.3778 -0.2524
  147SAPE   H8Y16266   5.956   5.271   9.610 -1.3162 -1.5652 -1.5086
  147SAPE   C3916267   5.872   5.408   9.459 -0.3142 -0.2840  0.2451
  147SAPE   H9X16268   5.958   5.476   9.444 -0.2751 -0.2947  0.4246
  147SAPE   H9Y16269   5.789   5.479   9.442 -0.0780 -0.4554 -2.0213
  147SAPE  C31016270   5.867   5.300   9.349 -0.2070 -0.4125 -0.0359
  147SAPE  H10X16271   5.766   5.253   9.348 -0.5455  0.0589  3.0924
  147SAPE  H10Y16272   5.943   5.224   9.374 -1.5932 -1.8234  0.0394
  147SAPE  C31116273   5.907   5.360   9.209 -0.1216  0.0244 -0.2733
  147SAPE  H11X16274   5.978   5.443   9.231  0.6579 -0.2986 -1.4561
  147SAPE  H11Y16275   5.817   5.416   9.176  0.1430  0.8296  0.3431
  147SAPE  C31216276   5.973   5.255   9.122 -0.3386 -0.3603 -0.1975
  147SAPE  H12X16277   5.921   5.157   9.127  0.7262 -0.9737 -0.7023
  147SAPE  H12Y16278   6.071   5.241   9.173 -0.0001  0.5152 -0.5870
  147SAPE  C31316279   5.987   5.303   8.976  0.3565  0.3980 -0.2366
  147SAPE  H13X16280   5.884   5.303   8.933  0.9770  0.2158 -1.7936
  147SAPE  H13Y16281   6.034   5.221   8.917 -1.5938  0.0423 -1.4060
  147SAPE  C31416282   6.038   5.447   8.967 -0.5605 -0.6903  0.5061
  147SAPE  H14X16283   6.132   5.468   9.023  1.1916 -1.0857 -2.0902
  147SAPE  H14Y16284   5.968   5.524   9.008  0.3812  0.8766 -0.6853
  147SAPE  C31516285   6.073   5.481   8.823 -0.1781 -0.4705  0.0368
  147SAPE  H15X16286   5.986   5.458   8.758  0.0487 -0.0812 -0.4122
  147SAPE  H15Y16287   6.154   5.409   8.800  0.3569 -0.3809  1.5285
  147SAPE  C31616288   6.139   5.620   8.787 -0.5145  0.5527 -0.2249
  147SAPE  H16X16289   6.206   5.665   8.864 -0.1389 -0.2725 -0.0583
  147SAPE  H16Y16290   6.053   5.688   8.804 -1.5166 -1.2746  2.7335
  147SAPE  C31716291   6.176   5.623   8.642  0.3281  0.4608  0.4153
  147SAPE  H17X16292   6.123   5.543   8.587  1.7899 -1.1198  1.1689
  147SAPE  H17Y16293   6.281   5.588   8.632  0.3060  0.3649  0.5143
  147SAPE  C31816294   6.167   5.756   8.574 -0.5161 -0.1588 -0.8375
  147SAPE  H18X16295   6.220   5.759   8.476 -0.5774  2.6010 -0.8601
  147SAPE  H18Y16296   6.206   5.832   8.644 -0.0119 -0.8116 -0.3924
  147SAPE  H18Z16297   6.059   5.778   8.559 -0.4712  2.3295  1.7080
  148SAPE     N16298   0.098   0.003  10.680  0.1149  0.0611  0.0397
  148SAPE   HN116299   0.144   0.071  10.615 -0.5992  0.7343  0.2265
  148SAPE   HN216300   0.009   0.046  10.713  0.4356  1.0279 -0.3140
  148SAPE   HN316301   0.159  -0.010  10.763 -1.5415  0.1142  1.3065
  148SAPE   C1216302   0.086  -0.133  10.607  0.3663  0.0654  0.3487
  148SAPE  H12A16303  -0.019  -0.136  10.570  0.1352 -0.3609  1.0119
  148SAPE  H12B16304   0.110  -0.223  10.668  1.5434 -1.0335 -1.6577
  148SAPE   C1116305   0.174  -0.152  10.481 -0.1037  0.3821  0.4697
  148SAPE  H11A16306   0.175  -0.259  10.452  2.4319  0.3130  0.6205
  148SAPE  H11B16307   0.281  -0.134  10.502  0.0678  0.2696 -0.2649
  148SAPE     P16308   0.182   0.070  10.340  0.0455  0.0135  0.1015
  148SAPE   O1316309   0.100   0.124  10.229 -0.3248  0.5980  0.1443
  148SAPE   O1416310   0.194   0.139  10.472  0.6417  0.4208  0.0891
  148SAPE   O1216311   0.116  -0.075  10.367  0.2440 -0.2617 -0.1876
  148SAPE   O1116312   0.329   0.037  10.297 -0.0384  0.0682  0.6176
  148SAPE    C116313   0.343  -0.035  10.176  1.0731 -0.2625  0.1097
  148SAPE    HA16314   0.378  -0.139  10.191  0.3177 -0.5940 -0.3463
  148SAPE    HB16315   0.247  -0.048  10.121  1.0734  1.4412 -0.3436
  148SAPE    C216316   0.438   0.049  10.079  0.6142 -0.6240  0.2640
  148SAPE    HS16317   0.397   0.152  10.072  0.0616 -0.9131 -1.1332
  148SAPE   O2116318   0.448  -0.012   9.950 -0.3733  0.1401 -0.1149
  148SAPE   C2116319   0.362   0.026   9.861 -0.0800 -0.1041  0.2088
  148SAPE   O2216320   0.262   0.095   9.878  0.1182  0.1894 -0.1469
  148SAPE   C2216321   0.400  -0.032   9.723 -0.7342  0.3030  0.6204
  148SAPE   H2R16322   0.393  -0.142   9.724  0.0945  0.2453  0.7606
  148SAPE   H2S16323   0.343   0.011   9.638  4.2995  1.9921 -2.3540
  148SAPE    C316324   0.573   0.066  10.143 -0.5256  0.0595  0.1797
  148SAPE    HX16325   0.596  -0.040  10.169 -1.3122  0.0125  0.7504
  148SAPE    HY16326   0.575   0.134  10.231 -1.6971  1.4135 -0.7849
  148SAPE   O3116327   0.654   0.124  10.035  0.1306  0.5311 -0.0201
  148SAPE   C3116328   0.781   0.111  10.068 -0.2641  0.3509  0.1764
  148SAPE   O3216329   0.822   0.065  10.170 -0.1420  0.0645  0.2353
  148SAPE   C3216330   0.877   0.175   9.968  1.1974  0.2386 -0.7490
  148SAPE   H2X16331   0.945   0.091   9.941  0.7356 -0.9088  1.3805
  148SAPE   H2Y16332   0.940   0.246  10.025 -1.4139  0.0795  2.6162
  148SAPE   C2316333   0.548   0.011   9.691  0.1271 -0.1912  0.5742
  148SAPE   H3R16334   0.599  -0.045   9.772 -2.1913  0.5928  2.7248
  148SAPE   H3S16335   0.561   0.119   9.711 -1.0947  0.2811 -0.9472
  148SAPE   C2416336   0.573  -0.017   9.545 -0.4790  0.1645  0.4662
  148SAPE   H4R16337   0.577  -0.127   9.531  1.6525 -0.1058  2.5080
  148SAPE   H4S16338   0.677   0.017   9.521  0.6802  0.4362  4.9005
  148SAPE   C2516339   0.486   0.056   9.445  0.3466 -0.1753 -0.1924
  148SAPE   H5R16340   0.515   0.162   9.436  1.6724 -0.6796 -3.0356
  148SAPE   C2616341   0.400   0.011   9.355  0.4940  0.5745 -0.2843
  148SAPE   H6R16342   0.355   0.070   9.274 -0.8831  0.1404  0.1467
  148SAPE   C2716343   0.360  -0.133   9.336 -0.0787 -0.0373 -0.4156
  148SAPE   H7R16344   0.332  -0.189   9.428 -0.4342 -0.6509 -0.8875
  148SAPE   H7S16345   0.454  -0.178   9.297  0.4569 -0.4563  1.2349
  148SAPE   C2816346   0.248  -0.174   9.236  0.2629 -0.2343 -0.3433
  148SAPE   H8R16347   0.152  -0.196   9.286  0.9969  1.3197  1.9237
  148SAPE   C2916348   0.261  -0.185   9.106 -0.0368  0.0869  0.1157
  148SAPE   H9R16349   0.169  -0.202   9.047  1.0348 -1.0383 -1.2941
  148SAPE  C21016350   0.388  -0.174   9.021 -0.7990 -0.5650 -0.0625
  148SAPE  H10R16351   0.399  -0.277   8.980  1.4136 -0.5512  0.3900
  148SAPE  H10S16352   0.480  -0.156   9.081 -1.1837 -0.6883  0.5812
  148SAPE  C21116353   0.385  -0.075   8.907 -0.4116 -0.6246  0.5357
  148SAPE  H11R16354   0.395   0.030   8.937  2.5073 -0.6210 -0.1482
  148SAPE  C21216355   0.382  -0.096   8.770 -0.0748 -0.8027 -0.6165
  148SAPE  H12R16356   0.377  -0.004   8.710 -1.3696 -0.7535 -0.4667
  148SAPE  C21316357   0.377  -0.232   8.697  0.6830  0.2973  0.3069
  148SAPE  H13R16358   0.274  -0.272   8.710  0.0709  0.7579 -2.5497
  148SAPE  H13S16359   0.441  -0.297   8.760 -0.9498 -0.2386  1.4691
  148SAPE  C21416360   0.418  -0.242   8.551  0.3813 -0.3007  0.3856
  148SAPE  H14R16361   0.388  -0.156   8.489  0.4531 -0.1418  0.5731
  148SAPE  C21516362   0.472  -0.355   8.502  0.1109 -0.2082 -0.5191
  148SAPE  H15R16363   0.498  -0.355   8.395  0.0539 -0.6426 -0.5344
  148SAPE  C21616364   0.512  -0.472   8.580  0.6626 -0.8594 -0.1847
  148SAPE  H16R16365   0.477  -0.474   8.686 -0.7743  1.5758 -0.5423
  148SAPE  H16S16366   0.622  -0.474   8.592  1.0858  1.0068 -2.8935
  148SAPE  C21716367   0.460  -0.597   8.515  0.0698  0.5763  0.5959
  148SAPE  H17R16368   0.358  -0.617   8.552 -0.8235 -0.5683 -2.1952
  148SAPE  H17S16369   0.525  -0.678   8.555 -1.3016 -0.3022  1.1012
  148SAPE  C21816370   0.476  -0.606   8.363 -0.3305 -0.2792 -0.2998
  148SAPE  H18R16371   0.582  -0.577   8.344 -0.8175  1.0335 -1.1483
  148SAPE  H18S16372   0.422  -0.536   8.297 -2.9236 -0.4870  1.4336
  148SAPE  C21916373   0.460  -0.753   8.320  0.5243  0.1281 -0.1406
  148SAPE  H19R16374   0.350  -0.770   8.321  0.5031  0.1989 -0.7894
  148SAPE  H19S16375   0.501  -0.823   8.396 -0.1031 -0.2120 -0.1120
  148SAPE  C22016376   0.501  -0.773   8.174  1.2283 -0.7047 -0.2303
  148SAPE  H20R16377   0.445  -0.860   8.133 -3.1334  1.1607  1.2303
  148SAPE  H20S16378   0.609  -0.793   8.155  1.0575  0.1720 -2.5553
  148SAPE  H20T16379   0.474  -0.682   8.116 -2.5973 -1.9858 -0.7077
  148SAPE   C3316380   0.807   0.240   9.850 -0.8196 -0.3659  0.2878
  148SAPE   H3X16381   0.763   0.341   9.864  2.5936  1.2809  0.2287
  148SAPE   H3Y16382   0.733   0.168   9.811 -1.4473 -0.4283  1.5597
  148SAPE   C3416383   0.911   0.269   9.734 -0.1471 -0.6531 -0.6925
  148SAPE   H4X16384   0.976   0.180   9.720  0.1634 -0.4341 -0.6599
  148SAPE   H4Y16385   0.972   0.355   9.770  0.1175 -1.9458  2.1994
  148SAPE   C3516386   0.859   0.288   9.591 -0.5015  0.3794  0.3850
  148SAPE   H5X16387   0.761   0.341   9.596  0.0057  1.2660  1.0895
  148SAPE   H5Y16388   0.833   0.183   9.563  2.2902 -0.4711  0.7354
  148SAPE   C3616389   0.958   0.338   9.486  0.5534  0.3944 -0.0254
  148SAPE   H6X16390   0.958   0.449   9.482  0.4464  0.3729 -0.6667
  148SAPE   H6Y16391   0.936   0.305   9.383 -0.4061 -2.0018  0.8727
  148SAPE   C3716392   1.107   0.299   9.512  0.2862  0.0581  0.2568
  148SAPE   H7X16393   1.112   0.189   9.520 -1.6104 -0.3137 -2.5353
  148SAPE   H7Y16394   1.144   0.348   9.605  0.2473  1.6946 -0.5445
  148SAPE   C3816395   1.193   0.346   9.393 -0.2310  0.3803  1.2011
  148SAPE   H8X16396   1.293   0.351   9.441 -1.0689  0.9373  3.0004
  148SAPE   H8Y16397   1.177   0.452   9.366  1.3151  0.4788  0.5464
  148SAPE   C3916398   1.201   0.255   9.267 -0.9037 -0.2220  0.2941
  148SAPE   H9X16399   1.101   0.219   9.237  0.2176 -2.3343 -1.2000
  148SAPE   H9Y16400   1.257   0.161   9.290  0.8524  0.7470  0.1882
  148SAPE  C31016401   1.271   0.330   9.158 -0.0651  0.9655  0.2010
  148SAPE  H10X16402   1.365   0.366   9.205 -0.5870  0.0350  2.0510
  148SAPE  H10Y16403   1.218   0.415   9.109 -0.0549  0.3981 -0.8100
  148SAPE  C31116404   1.315   0.220   9.054 -0.3035 -0.7701  0.3668
  148SAPE  H11X16405   1.331   0.126   9.110  2.4314 -0.7570 -0.2347
  148SAPE  H11Y16406   1.416   0.248   9.016 -0.4395  0.8202  1.0885
  148SAPE  C31216407   1.227   0.201   8.931  0.4516 -0.0970  0.6736
  148SAPE  H12X16408   1.127   0.169   8.965 -0.1755 -0.5970 -1.4925
  148SAPE  H12Y16409   1.272   0.121   8.869 -0.7837 -0.3387  0.0737
  148SAPE  C31316410   1.218   0.325   8.836  0.0620 -0.3080 -1.1203
  148SAPE  H13X16411   1.315   0.368   8.804 -0.2470  0.6868 -0.7436
  148SAPE  H13Y16412   1.163   0.409   8.883 -2.0610 -0.3254 -3.4214
  148SAPE  C31416413   1.139   0.295   8.721 -0.2522 -0.0258  0.1523
  148SAPE  H14X16414   1.043   0.245   8.744  1.7641 -3.4142  1.9899
  148SAPE  H14Y16415   1.178   0.201   8.676  0.1589 -0.3774  1.2078
  148SAPE  C31516416   1.141   0.403   8.617  0.1998  0.3328  0.5027
  148SAPE  H15X16417   1.061   0.374   8.545 -1.4754 -1.6267  3.0028
  148SAPE  H15Y16418   1.241   0.401   8.568 -0.5524  0.7488 -1.1418
  148SAPE  C31616419   1.111   0.548   8.665 -0.1926  0.6971 -0.2601
  148SAPE  H16X16420   1.137   0.615   8.581  2.2675 -0.3126 -0.3695
  148SAPE  H16Y16421   1.178   0.574   8.750 -0.5707 -1.2676  0.7069
  148SAPE  C31716422   0.965   0.568   8.703  0.2089  0.2321  0.6109
  148SAPE  H17X16423   0.967   0.675   8.733  1.7248 -0.1982  2.1513
  148SAPE  H17Y16424   0.945   0.515   8.798  0.3365  0.7473  0.9310
  148SAPE  C31816425   0.855   0.543   8.604  0.4900 -0.1530  0.0517
  148SAPE  H18X16426   0.870   0.612   8.518 -4.2092  1.4048  0.2211
  148SAPE  H18Y16427   0.761   0.569   8.656 -0.1570 -0.4585 -0.9336
  148SAPE  H18Z16428   0.849   0.443   8.556 -1.3842  0.3225 -0.8010
  149SAPE     N16429   1.384   5.844  11.082 -0.3590  0.4221 -0.4099
  149SAPE   HN116430   1.399   5.767  11.013  0.6613 -2.5483  2.8277
  149SAPE   HN216431   1.327   5.803  11.159  1.4921  0.9123  1.2977
  149SAPE   HN316432   1.331   5.924  11.041  1.5080  0.8543 -2.1170
  149SAPE   C1216433   1.510   5.896  11.144 -0.7649 -0.1278 -0.0598
  149SAPE  H12A16434   1.549   5.819  11.214 -2.7229 -2.7662 -1.6952
  149SAPE  H12B16435   1.494   5.990  11.201  0.6389  0.0018  0.1737
  149SAPE   C1116436   1.618   5.926  11.036 -0.5474  0.1811  0.3203
  149SAPE  H11A16437   1.709   5.969  11.084  0.7163 -2.4036  0.4192
  149SAPE  H11B16438   1.578   6.007  10.971 -0.4614  0.1892  0.2765
  149SAPE     P16439   1.767   5.806  10.861 -0.2802  0.3633 -0.4341
  149SAPE   O1316440   1.880   5.886  10.911 -0.3746 -0.3334  0.4056
  149SAPE   O1416441   1.807   5.663  10.826 -0.3391 -0.0651 -0.1631
  149SAPE   O1216442   1.650   5.804  10.967  0.3343  1.0879  0.0281
  149SAPE   O1116443   1.706   5.883  10.740  0.0774  0.6133  0.2813
  149SAPE    C116444   1.569   5.864  10.700 -0.1564  0.0077  0.0311
  149SAPE    HA16445   1.505   5.834  10.786  0.3414  2.2653  1.2728
  149SAPE    HB16446   1.526   5.959  10.661 -1.1234 -0.7777 -0.8804
  149SAPE    C216447   1.562   5.764  10.582  0.3200 -0.3300  0.2809
  149SAPE    HS16448   1.628   5.679  10.610  0.9623  1.0503  3.4123
  149SAPE   O2116449   1.601   5.836  10.466  0.8059  0.6593 -0.4578
  149SAPE   C2116450   1.672   5.771  10.368 -0.2419 -0.1790  0.6516
  149SAPE   O2216451   1.713   5.655  10.382  0.1113  0.2676 -0.8370
  149SAPE   C2216452   1.693   5.867  10.249  0.6360 -0.1005  0.3256
  149SAPE   H2R16453   1.623   5.952  10.257 -1.0122 -1.1536 -1.6480
  149SAPE   H2S16454   1.802   5.888  10.245  0.7223 -0.6853 -2.2754
  149SAPE    C316455   1.418   5.732  10.552 -0.0236  0.7872  0.0567
  149SAPE    HX16456   1.362   5.821  10.516 -1.6226 -0.7019 -1.3540
  149SAPE    HY16457   1.370   5.692  10.644 -1.2707  1.3203 -0.3413
  149SAPE   O3116458   1.411   5.633  10.452  0.1505  0.2066  0.5213
  149SAPE   C3116459   1.293   5.601  10.413  0.4467  0.2589  0.1106
  149SAPE   O3216460   1.184   5.652  10.442  0.0282  0.0400 -0.1774
  149SAPE   C3216461   1.307   5.469  10.339 -0.3900 -0.3889  0.0773
  149SAPE   H2X16462   1.283   5.384  10.407  0.9519 -0.0711  1.0021
  149SAPE   H2Y16463   1.413   5.466  10.305 -0.8342  1.9240 -1.7224
  149SAPE   C2316464   1.647   5.790  10.110  0.7176 -0.2581  0.6482
  149SAPE   H3R16465   1.625   5.876  10.042  1.0723 -1.7908 -1.4958
  149SAPE   H3S16466   1.547   5.747  10.134  0.7912 -0.9318 -0.2014
  149SAPE   C2416467   1.757   5.697  10.043 -0.0114 -0.7475 -0.7858
  149SAPE   H4R16468   1.773   5.617  10.119 -1.1743  0.1194  0.4107
  149SAPE   H4S16469   1.850   5.757  10.037  0.5993 -1.5047  0.6041
  149SAPE   C2516470   1.712   5.630   9.918  0.6201  0.0426 -0.0202
  149SAPE   H5R16471   1.663   5.532   9.927 -2.6834  1.5788  0.3181
  149SAPE   C2616472   1.723   5.684   9.796 -1.0110  0.1275 -0.7871
  149SAPE   H6R16473   1.668   5.642   9.710 -2.0598  0.3116 -0.2252
  149SAPE   C2716474   1.778   5.824   9.777  0.1590 -0.4179  0.5752
  149SAPE   H7R16475   1.858   5.824   9.701  0.5862  1.3688  0.9613
  149SAPE   H7S16476   1.815   5.875   9.869 -0.1411  1.2500 -0.1906
  149SAPE   C2816477   1.656   5.899   9.727  0.2701 -0.3461  0.6423
  149SAPE   H8R16478   1.583   5.931   9.802  1.0818  3.3087  0.0649
  149SAPE   C2916479   1.622   5.951   9.608 -0.0799  0.9680 -0.5579
  149SAPE   H9R16480   1.528   6.008   9.600 -0.9528 -0.5640 -1.7540
  149SAPE  C21016481   1.702   5.944   9.485 -0.1151 -0.7964  0.2027
  149SAPE  H10R16482   1.807   5.945   9.522  0.0757 -0.3083 -0.3285
  149SAPE  H10S16483   1.683   6.043   9.439  1.3335  0.8151  2.7996
  149SAPE  C21116484   1.667   5.836   9.387  0.4745  0.0857 -1.1212
  149SAPE  H11R16485   1.728   5.745   9.401  1.7456  0.9633 -0.7378
  149SAPE  C21216486   1.575   5.843   9.291 -0.2255 -0.2314  0.0151
  149SAPE  H12R16487   1.548   5.749   9.241  0.2324 -0.1460 -0.3917
  149SAPE  C21316488   1.492   5.963   9.266  0.3161 -0.9878  0.1385
  149SAPE  H13R16489   1.509   6.054   9.327 -1.7228 -0.4498 -0.0297
  149SAPE  H13S16490   1.391   5.930   9.298  0.5985 -1.4486  0.5754
  149SAPE  C21416491   1.514   6.001   9.121 -0.2997 -0.2063  0.6201
  149SAPE  H14R16492   1.614   6.042   9.099 -0.3276 -0.4260  0.0556
  149SAPE  C21516493   1.438   5.974   9.014  0.0215  0.2952  0.1830
  149SAPE  H15R16494   1.461   6.011   8.913 -0.1096  0.6780  0.2941
  149SAPE  C21616495   1.307   5.891   9.007 -0.6344 -0.2874 -0.0090
  149SAPE  H16R16496   1.256   5.887   9.106 -2.4920 -0.8844 -0.9316
  149SAPE  H16S16497   1.318   5.786   8.974  0.0159  0.0083 -0.7553
  149SAPE  C21716498   1.213   5.965   8.907 -0.4711 -0.6171 -0.4645
  149SAPE  H17R16499   1.266   6.017   8.824  0.9460  1.8591  1.8583
  149SAPE  H17S16500   1.164   6.045   8.965  1.6672  0.6312 -0.2464
  149SAPE  C21816501   1.096   5.886   8.848 -0.8121  0.5321  0.2614
  149SAPE  H18R16502   1.057   5.834   8.938 -0.6011 -0.3200 -0.1276
  149SAPE  H18S16503   1.130   5.805   8.781  0.5494  0.2879  1.2169
  149SAPE  C21916504   0.991   5.968   8.771 -0.0994  0.4305  0.6183
  149SAPE  H19R16505   0.950   6.053   8.829  0.0530  1.6750 -1.0210
  149SAPE  H19S16506   0.899   5.909   8.750  0.6472 -1.3561  2.0707
  149SAPE  C22016507   1.044   6.023   8.638  0.9489 -0.3500  0.9400
  149SAPE  H20R16508   0.965   6.092   8.601  1.7225 -1.1592 -2.5771
  149SAPE  H20S16509   1.047   5.956   8.550 -4.1240 -0.6543  0.6736
  149SAPE  H20T16510   1.136   6.084   8.638  0.0317  1.1535 -1.2298
  149SAPE   C3316511   1.211   5.465  10.215  0.5754  0.0867 -0.3923
  149SAPE   H3X16512   1.106   5.468  10.250  0.0964  0.4565 -1.8062
  149SAPE   H3Y16513   1.231   5.365  10.172 -1.3874 -0.6247  0.2206
  149SAPE   C3416514   1.241   5.580  10.121 -0.2089  0.4582  0.7786
  149SAPE   H4X16515   1.339   5.559  10.072 -0.3506  0.0245  0.6802
  149SAPE   H4Y16516   1.245   5.682  10.165  1.2966  0.7427  0.0679
  149SAPE   C3516517   1.138   5.585  10.003  0.2471 -0.5775  0.2556
  149SAPE   H5X16518   1.038   5.606  10.047  0.0832 -0.7008 -0.0575
  149SAPE   H5Y16519   1.131   5.491   9.943 -0.5482  0.6307 -1.6171
  149SAPE   C3616520   1.169   5.704   9.912 -0.5717 -0.6358  0.5248
  149SAPE   H6X16521   1.207   5.787   9.976  0.1651  0.3169 -1.0906
  149SAPE   H6Y16522   1.073   5.729   9.862 -1.3481 -2.7088  0.8956
  149SAPE   C3716523   1.284   5.665   9.818 -0.2757 -0.5288  0.1386
  149SAPE   H7X16524   1.244   5.571   9.774  0.2281 -0.3287 -0.7581
  149SAPE   H7Y16525   1.369   5.640   9.885 -0.3367 -1.7639 -0.2229
  149SAPE   C3816526   1.313   5.764   9.711 -0.1987  0.2789  0.6251
  149SAPE   H8X16527   1.420   5.756   9.684  0.2851 -1.0561  2.7049
  149SAPE   H8Y16528   1.297   5.861   9.763 -1.8774 -0.2560  1.1918
  149SAPE   C3916529   1.223   5.752   9.584 -1.0863  0.1508 -0.6830
  149SAPE   H9X16530   1.222   5.843   9.520  0.8846 -1.5008 -3.2961
  149SAPE   H9Y16531   1.123   5.727   9.623 -0.5316 -2.8860 -0.9521
  149SAPE  C31016532   1.255   5.642   9.493  0.2532  0.3078  0.0254
  149SAPE  H10X16533   1.213   5.554   9.545 -0.0488  1.6930  2.2414
  149SAPE  H10Y16534   1.366   5.630   9.495  0.2159  0.0620  1.8436
  149SAPE  C31116535   1.196   5.653   9.354 -0.8562  0.1112  0.2805
  149SAPE  H11X16536   1.242   5.741   9.304  0.7241 -0.9076 -0.1304
  149SAPE  H11Y16537   1.089   5.683   9.351 -0.4880  1.4850  0.3886
  149SAPE  C31216538   1.214   5.527   9.264  0.2627  0.6344  0.0666
  149SAPE  H12X16539   1.151   5.447   9.309 -2.2470  1.7197 -1.3041
  149SAPE  H12Y16540   1.320   5.497   9.271  0.2285  0.5070  0.0454
  149SAPE  C31316541   1.164   5.553   9.124  0.3085 -0.5113  0.0903
  149SAPE  H13X16542   1.213   5.647   9.092  0.5045 -0.1969  1.2707
  149SAPE  H13Y16543   1.054   5.569   9.120 -0.0326 -2.7220 -0.6954
  149SAPE  C31416544   1.189   5.433   9.032 -0.2628 -0.5724 -0.8779
  149SAPE  H14X16545   1.136   5.347   9.076 -0.4217  0.5339  1.2122
  149SAPE  H14Y16546   1.298   5.414   9.022 -0.0702 -1.0676  1.6505
  149SAPE  C31516547   1.143   5.451   8.894 -0.4254 -0.1996  1.0222
  149SAPE  H15X16548   1.144   5.361   8.828 -1.9145  1.2520 -1.1297
  149SAPE  H15Y16549   1.214   5.522   8.846 -0.8455 -0.5754 -0.1949
  149SAPE  C31616550   1.002   5.503   8.880  0.3374  0.6283 -0.0749
  149SAPE  H16X16551   0.985   5.599   8.933 -1.5946  0.3098 -0.0474
  149SAPE  H16Y16552   0.929   5.433   8.924 -0.1129  1.1886  0.0872
  149SAPE  C31716553   0.962   5.533   8.734  0.5576 -0.9053 -0.1932
  149SAPE  H17X16554   1.041   5.591   8.680  1.6810 -1.3759  0.8845
  149SAPE  H17Y16555   0.880   5.609   8.731 -0.5664 -1.9380  2.1770
  149SAPE  C31816556   0.917   5.411   8.657 -0.0872  0.2917  0.0987
  149SAPE  H18X16557   0.850   5.440   8.573  1.6078  3.3403 -0.3549
  149SAPE  H18Y16558   0.854   5.352   8.727 -1.3405  0.7711 -0.6025
  149SAPE  H18Z16559   1.005   5.347   8.632  0.7112  0.2930  2.6625
  150SAPE     N16560   4.084   3.725  10.890  0.6865  0.2575 -0.1700
  150SAPE   HN116561   4.112   3.734  10.790 -1.3113 -1.9677 -1.0275
  150SAPE   HN216562   4.048   3.816  10.923  1.2733  0.1430  0.8188
  150SAPE   HN316563   4.171   3.699  10.941  1.1524  1.0272 -0.5639
  150SAPE   C1216564   3.979   3.614  10.894 -0.0082  0.5302 -0.4234
  150SAPE  H12A16565   3.899   3.649  10.826  0.2321  2.3775  0.1858
  150SAPE  H12B16566   3.944   3.617  11.000 -1.7482  1.5378 -1.0028
  150SAPE   C1116567   4.048   3.482  10.855  0.9535 -0.2314 -0.0305
  150SAPE  H11A16568   4.122   3.463  10.936 -1.4961 -0.6575  2.2542
  150SAPE  H11B16569   4.107   3.495  10.762 -0.4724 -0.3083 -0.9745
  150SAPE     P16570   3.892   3.319  10.718  0.1530  0.5396  0.3173
  150SAPE   O1316571   4.010   3.279  10.632  0.4919 -0.2376 -0.3026
  150SAPE   O1416572   3.780   3.225  10.734  0.3575 -0.9014  0.1414
  150SAPE   O1216573   3.955   3.361  10.856 -0.2042 -0.5395 -0.2344
  150SAPE   O1116574   3.841   3.460  10.665 -0.1703 -0.2477  0.1456
  150SAPE    C116575   3.703   3.502  10.651  0.9424  0.4236 -0.3926
  150SAPE    HA16576   3.629   3.421  10.640 -1.4025  2.7315 -3.4067
  150SAPE    HB16577   3.674   3.556  10.744  0.7799  0.3940 -0.4257
  150SAPE    C216578   3.666   3.584  10.523 -0.0958  0.0003  0.3688
  150SAPE    HS16579   3.555   3.579  10.517 -0.1571  0.6997  0.7987
  150SAPE   O2116580   3.716   3.521  10.406  0.3243 -0.0756 -0.3156
  150SAPE   C2116581   3.666   3.409  10.366  0.0918 -0.0486  0.0371
  150SAPE   O2216582   3.573   3.349  10.415 -0.5584 -0.0567  0.2127
  150SAPE   C2216583   3.770   3.351  10.260  0.4468 -0.8172  0.4380
  150SAPE   H2R16584   3.855   3.310  10.318  1.5376 -0.5056 -0.9162
  150SAPE   H2S16585   3.726   3.263  10.210 -0.1064 -0.5022  0.3503
  150SAPE    C316586   3.720   3.724  10.531  0.5492 -0.1529 -0.3527
  150SAPE    HX16587   3.829   3.728  10.553  0.0257 -0.8621  2.9287
  150SAPE    HY16588   3.672   3.767  10.622  0.6537 -0.4906 -0.1356
  150SAPE   O3116589   3.675   3.805  10.424 -0.3257 -0.4767 -0.1155
  150SAPE   C3116590   3.759   3.826  10.320  0.1734  0.2019 -0.7320
  150SAPE   O3216591   3.876   3.793  10.324  0.0952 -0.4334 -0.3116
  150SAPE   C3216592   3.686   3.877  10.200 -1.0000 -0.3975  0.3210
  150SAPE   H2X16593   3.643   3.977  10.221  0.2280  0.1151  0.4515
  150SAPE   H2Y16594   3.589   3.825  10.178 -0.1351 -1.6154 -0.8190
  150SAPE   C2316595   3.818   3.452  10.151  0.3042 -0.4496 -0.5187
  150SAPE   H3R16596   3.856   3.545  10.199 -1.4663  0.0756 -0.0449
  150SAPE   H3S16597   3.726   3.485  10.096  1.0631 -0.4849 -1.8563
  150SAPE   C2416598   3.922   3.401  10.056  0.0753  0.6430 -0.3005
  150SAPE   H4R16599   3.876   3.327   9.988  0.3974  2.3472 -2.5059
  150SAPE   H4S16600   3.996   3.348  10.120 -1.2626  1.2975  1.9038
  150SAPE   C2516601   3.978   3.515   9.974  0.1266  0.4844  1.3759
  150SAPE   H5R16602   4.056   3.571  10.028 -0.1501  2.4432 -0.1541
  150SAPE   C2616603   3.949   3.538   9.844  0.3777  0.7554  0.4354
  150SAPE   H6R16604   4.005   3.614   9.788 -0.1370 -1.7674 -4.0542
  150SAPE   C2716605   3.842   3.457   9.769 -0.4852 -0.4208 -0.3822
  150SAPE   H7R16606   3.782   3.531   9.713 -1.6141 -0.4229  0.7980
  150SAPE   H7S16607   3.764   3.430   9.842  0.9310  1.0696  1.8001
  150SAPE   C2816608   3.894   3.346   9.681  0.3856  0.4001 -0.0040
  150SAPE   H8R16609   3.947   3.270   9.740  0.8812  2.0242  1.7845
  150SAPE   C2916610   3.890   3.340   9.542 -0.6244  0.3081  0.3241
  150SAPE   H9R16611   3.918   3.244   9.495  2.2390  0.7784  0.9054
  150SAPE  C21016612   3.827   3.440   9.453  0.4328  0.0795 -0.6473
  150SAPE  H10R16613   3.765   3.513   9.509  1.5054 -0.3432  1.1995
  150SAPE  H10S16614   3.765   3.395   9.373 -1.0577 -1.2146  1.1246
  150SAPE  C21116615   3.933   3.525   9.393  0.3769 -0.0775 -0.3674
  150SAPE  H11R16616   3.972   3.607   9.456  1.1718  1.8054 -3.1266
  150SAPE  C21216617   3.969   3.526   9.261 -0.1562  0.7223 -0.2252
  150SAPE  H12R16618   4.054   3.589   9.233  0.0956  0.7863  0.6383
  150SAPE  C21316619   3.909   3.451   9.144 -0.0335  0.7410 -0.7565
  150SAPE  H13R16620   3.841   3.373   9.183 -0.9337  1.2420 -1.2900
  150SAPE  H13S16621   3.999   3.403   9.098 -0.5329  0.1583 -1.1373
  150SAPE  C21416622   3.845   3.536   9.041  0.7762  0.4605 -0.2591
  150SAPE  H14R16623   3.896   3.632   9.025 -1.1567  2.3036  3.2778
  150SAPE  C21516624   3.738   3.501   8.969  0.7120 -0.2088  0.7231
  150SAPE  H15R16625   3.700   3.592   8.920 -1.2889  0.6544  3.6236
  150SAPE  C21616626   3.648   3.388   8.962 -0.2341  0.9031 -0.5755
  150SAPE  H16R16627   3.542   3.418   8.946 -0.8716 -1.0102 -0.1010
  150SAPE  H16S16628   3.659   3.332   9.056  0.2507  3.3703  0.9298
  150SAPE  C21716629   3.685   3.296   8.845 -0.1675  0.3214  0.0140
  150SAPE  H17R16630   3.791   3.264   8.848 -0.0557  0.3585 -1.8714
  150SAPE  H17S16631   3.650   3.328   8.744 -1.3692  1.7937  0.8694
  150SAPE  C21816632   3.614   3.154   8.863  0.2183 -0.4326  0.5047
  150SAPE  H18R16633   3.506   3.161   8.885  0.2811  1.7303  0.3452
  150SAPE  H18S16634   3.659   3.102   8.950 -2.4865 -0.4777  1.9724
  150SAPE  C21916635   3.623   3.067   8.739  0.3565  0.0720  0.4016
  150SAPE  H19R16636   3.729   3.051   8.709 -0.3324 -0.7133 -1.8334
  150SAPE  H19S16637   3.574   3.117   8.652 -2.1433 -3.4995 -0.4759
  150SAPE  C22016638   3.562   2.925   8.740 -0.6224  0.3510  0.1801
  150SAPE  H20R16639   3.452   2.928   8.729 -0.8620 -1.2037  1.6739
  150SAPE  H20S16640   3.589   2.865   8.829 -2.3784  1.0533  1.2288
  150SAPE  H20T16641   3.596   2.867   8.651  1.9286 -2.0473  2.4839
  150SAPE   C3316642   3.777   3.877  10.078  0.4170 -0.2053  0.2357
  150SAPE   H3X16643   3.811   3.773  10.058  1.2994  0.1938 -0.4136
  150SAPE   H3Y16644   3.870   3.933  10.100  0.1474 -0.4485  2.1345
  150SAPE   C3416645   3.721   3.920   9.945  0.4894  0.3685  0.7190
  150SAPE   H4X16646   3.710   4.028   9.922  2.0164  0.4404  0.2229
  150SAPE   H4Y16647   3.617   3.882   9.941  0.5991  0.1984 -1.8707
  150SAPE   C3516648   3.793   3.860   9.817  0.0337 -0.2672 -0.0006
  150SAPE   H5X16649   3.794   3.749   9.828 -1.2444 -0.5978 -2.5599
  150SAPE   H5Y16650   3.899   3.893   9.812 -0.1276  0.7519  2.2151
  150SAPE   C3616651   3.729   3.888   9.678  0.6409 -0.1495  0.7528
  150SAPE   H6X16652   3.680   3.988   9.680 -1.0074 -0.8550 -1.1168
  150SAPE   H6Y16653   3.643   3.817   9.669  0.0523  0.6156  0.2457
  150SAPE   C3716654   3.820   3.880   9.553 -0.0565 -0.8453 -0.2920
  150SAPE   H7X16655   3.870   3.782   9.569 -0.0289 -0.4832  2.3116
  150SAPE   H7Y16656   3.902   3.956   9.553 -0.0966 -0.7970  0.3372
  150SAPE   C3816657   3.745   3.884   9.428 -0.1086 -0.1294  1.2335
  150SAPE   H8X16658   3.681   3.975   9.420 -0.9833 -0.8162 -0.0013
  150SAPE   H8Y16659   3.679   3.796   9.414 -1.5838  0.7200  2.4483
  150SAPE   C3916660   3.841   3.888   9.307 -0.0866 -0.5070 -0.2324
  150SAPE   H9X16661   3.895   3.791   9.301 -0.7198 -0.9602  1.0758
  150SAPE   H9Y16662   3.917   3.968   9.322 -1.1602 -0.0072  3.5229
  150SAPE  C31016663   3.759   3.895   9.178  0.1817  0.1292 -0.7017
  150SAPE  H10X16664   3.667   3.956   9.195 -0.3369 -0.9301  0.4473
  150SAPE  H10Y16665   3.740   3.789   9.151  0.6649  0.1049 -0.9532
  150SAPE  C31116666   3.857   3.947   9.067 -0.4840  0.5492 -0.5478
  150SAPE  H11X16667   3.941   3.875   9.061 -1.0271 -0.1856  0.3916
  150SAPE  H11Y16668   3.887   4.054   9.079  1.0944 -0.0292  1.1771
  150SAPE  C31216669   3.795   3.935   8.929  0.6148  0.0211 -0.2010
  150SAPE  H12X16670   3.758   3.831   8.929  0.6080 -0.0634  3.0028
  150SAPE  H12Y16671   3.876   3.947   8.854 -0.5371  1.2527 -1.3102
  150SAPE  C31316672   3.675   4.028   8.882 -0.1015  0.2621 -0.1836
  150SAPE  H13X16673   3.711   4.130   8.859  0.1867 -0.4104 -3.0418
  150SAPE  H13Y16674   3.595   4.030   8.959 -1.0553 -1.8299 -1.0350
  150SAPE  C31416675   3.601   3.967   8.769  0.0683 -0.6849 -0.0409
  150SAPE  H14X16676   3.555   3.870   8.795  0.9609 -1.0237  0.3105
  150SAPE  H14Y16677   3.683   3.951   8.695  0.5138 -1.4884  0.6093
  150SAPE  C31516678   3.492   4.063   8.717  0.1164 -0.3214 -0.3085
  150SAPE  H15X16679   3.543   4.155   8.680  2.0080 -0.8054  0.9385
  150SAPE  H15Y16680   3.429   4.095   8.802  1.4896  3.6326 -0.5561
  150SAPE  C31616681   3.406   4.008   8.606 -0.1764 -0.3172 -0.3187
  150SAPE  H16X16682   3.355   3.913   8.634 -1.3223  0.7757  1.5119
  150SAPE  H16Y16683   3.477   3.978   8.526 -0.8540 -0.9961 -0.6765
  150SAPE  C31716684   3.294   4.111   8.565  0.2281 -0.2397  0.5265
  150SAPE  H17X16685   3.243   4.080   8.472 -0.6831  0.8870  0.6350
  150SAPE  H17Y16686   3.361   4.199   8.555 -0.8929  0.6637  0.8485
  150SAPE  C31816687   3.179   4.133   8.670 -0.0309 -0.7030 -0.3538
  150SAPE  H18X16688   3.209   4.168   8.771  1.9768 -0.1055 -1.1237
  150SAPE  H18Y16689   3.122   4.038   8.675 -0.0082 -0.6892  0.2741
  150SAPE  H18Z16690   3.109   4.207   8.626  1.0077  0.2265 -0.4764
  151SAPE     N16691   1.260   1.010  10.991  0.1601 -0.2834  0.7777
  151SAPE   HN116692   1.232   1.110  10.987  0.2978 -0.2879 -1.3627
  151SAPE   HN216693   1.210   0.951  11.061 -0.3566  1.2876  1.7944
  151SAPE   HN316694   1.361   1.005  11.016  0.3745 -1.6535 -0.2290
  151SAPE   C1216695   1.233   0.955  10.853  0.1252  0.4769  0.2974
  151SAPE  H12A16696   1.124   0.937  10.852  0.4835 -1.9285 -0.0241
  151SAPE  H12B16697   1.277   0.853  10.852 -2.2609 -0.6161 -0.7539
  151SAPE   C1116698   1.297   1.030  10.738  0.3534 -0.6347  0.0777
  151SAPE  H11A16699   1.407   1.042  10.733  0.3457 -0.1894 -5.5471
  151SAPE  H11B16700   1.266   1.136  10.738 -1.7975 -1.0675 -3.8336
  151SAPE     P16701   1.337   0.867  10.534  0.0590  0.1766 -0.2784
  151SAPE   O1316702   1.366   0.749  10.619 -0.5283  0.0097  0.0421
  151SAPE   O1416703   1.269   0.836  10.409  0.6946 -0.0258  0.4664
  151SAPE   O1216704   1.247   0.972  10.617  0.7519 -0.0426 -0.3156
  151SAPE   O1116705   1.469   0.954  10.514 -0.4163  0.6926  1.0792
  151SAPE    C116706   1.459   1.077  10.442 -0.6130 -0.0903  0.5083
  151SAPE    HA16707   1.353   1.104  10.422 -1.0235  0.0470  2.5908
  151SAPE    HB16708   1.498   1.163  10.501  1.4522  0.1690 -1.1480
  151SAPE    C216709   1.542   1.074  10.312 -0.4887  0.4551 -0.6014
  151SAPE    HS16710   1.544   1.174  10.264  2.0683  1.3776  1.2143
  151SAPE   O2116711   1.507   0.971  10.211 -0.2348  0.1907 -0.0976
  151SAPE   C2116712   1.392   0.988  10.145  0.2006 -0.1994 -0.3374
  151SAPE   O2216713   1.311   1.081  10.163  0.3042  0.1395  0.3890
  151SAPE   C2216714   1.377   0.870  10.041 -0.5181 -0.3800 -0.3602
  151SAPE   H2R16715   1.485   0.856  10.017  0.4228  3.2998  0.9769
  151SAPE   H2S16716   1.334   0.798  10.113  3.9796 -0.8991  2.2365
  151SAPE    C316717   1.700   1.046  10.345  0.4973 -0.3915 -0.5038
  151SAPE    HX16718   1.696   0.954  10.408  1.7687 -0.6423 -0.7763
  151SAPE    HY16719   1.729   1.130  10.412  2.0111 -1.8719  0.7900
  151SAPE   O3116720   1.797   1.028  10.239 -0.0527  0.7172  0.7800
  151SAPE   C3116721   1.812   1.132  10.159  0.3223  0.2829 -1.2085
  151SAPE   O3216722   1.754   1.238  10.172  0.3752  0.0087 -0.1471
  151SAPE   C3216723   1.904   1.100  10.045  0.5187  0.2519  0.2943
  151SAPE   H2X16724   1.962   1.006  10.058 -1.1714 -1.0429 -0.9488
  151SAPE   H2Y16725   1.974   1.184  10.029 -0.1821  0.5096 -1.7043
  151SAPE   C2316726   1.280   0.903   9.927  0.4093 -0.9305 -0.2962
  151SAPE   H3R16727   1.188   0.956   9.958 -0.2635 -2.5597  0.5901
  151SAPE   H3S16728   1.229   0.812   9.887 -1.9333  0.1089  0.1910
  151SAPE   C2416729   1.344   0.967   9.805  0.3130 -0.2809 -0.2824
  151SAPE   H4R16730   1.382   0.891   9.733 -2.6483 -0.1914 -2.0866
  151SAPE   H4S16731   1.421   1.034   9.850  0.5042 -1.0599  0.5911
  151SAPE   C2516732   1.255   1.060   9.730 -0.4181 -0.5062 -0.1391
  151SAPE   H5R16733   1.204   1.140   9.786 -2.3889 -0.1710 -2.2757
  151SAPE   C2616734   1.210   1.040   9.605  0.1420  0.2693 -0.0905
  151SAPE   H6R16735   1.139   1.111   9.561  0.3931  1.2386  1.0180
  151SAPE   C2716736   1.251   0.933   9.505 -0.6728 -0.5196 -0.2721
  151SAPE   H7R16737   1.353   0.896   9.531  0.6018  1.5006 -2.1180
  151SAPE   H7S16738   1.257   0.969   9.400  2.4158 -1.5886 -0.5635
  151SAPE   C2816739   1.169   0.803   9.508 -0.8611 -0.7380  0.0454
  151SAPE   H8R16740   1.183   0.764   9.610  1.0587  0.9589  0.5078
  151SAPE   C2916741   1.076   0.750   9.424 -0.4402  0.4083  0.3321
  151SAPE   H9R16742   1.028   0.656   9.454  1.1835 -1.1764 -1.6519
  151SAPE  C21016743   1.034   0.803   9.287  0.6374 -0.5903 -0.0157
  151SAPE  H10R16744   1.074   0.902   9.258  1.6248 -0.8287  0.4721
  151SAPE  H10S16745   0.927   0.830   9.280  1.0270  0.7935 -1.0757
  151SAPE  C21116746   1.068   0.697   9.184  0.4715 -0.4233 -0.8518
  151SAPE  H11R16747   1.045   0.595   9.221 -0.7592  0.0498 -0.2524
  151SAPE  C21216748   1.108   0.713   9.061 -0.4396 -0.4008  0.6119
  151SAPE  H12R16749   1.125   0.631   8.989  0.1901 -0.5375  0.9063
  151SAPE  C21316750   1.128   0.853   8.999 -0.5166  0.0420  0.0679
  151SAPE  H13R16751   1.209   0.892   9.064 -2.3546  0.7769  2.0143
  151SAPE  H13S16752   1.049   0.927   9.020 -2.0944 -1.3049 -0.8707
  151SAPE  C21416753   1.160   0.867   8.853  0.5223  0.0671  0.5054
  151SAPE  H14R16754   1.073   0.889   8.789 -0.7165 -1.6279  1.5114
  151SAPE  C21516755   1.286   0.857   8.804 -0.8890  0.1715  0.2992
  151SAPE  H15R16756   1.293   0.855   8.695  0.1537 -0.7174  0.3724
  151SAPE  C21616757   1.412   0.836   8.878 -0.4577 -0.0266  0.0942
  151SAPE  H16R16758   1.391   0.845   8.987  0.8088  1.8974  0.2288
  151SAPE  H16S16759   1.494   0.906   8.854  0.5288 -1.2729 -0.2731
  151SAPE  C21716760   1.471   0.701   8.849 -0.1051  0.3555  0.3577
  151SAPE  H17R16761   1.408   0.614   8.878  0.5633  0.1354  1.1866
  151SAPE  H17S16762   1.569   0.687   8.899  1.8445  4.0897 -1.9254
  151SAPE  C21816763   1.515   0.682   8.695  0.8548  0.5105  0.2056
  151SAPE  H18R16764   1.533   0.786   8.659 -0.5982  1.9300  3.1989
  151SAPE  H18S16765   1.425   0.643   8.644  0.8361  0.5946  0.1748
  151SAPE  C21916766   1.625   0.583   8.684 -0.1684  0.3830 -0.2135
  151SAPE  H19R16767   1.721   0.623   8.724 -0.2804 -0.0684  0.5230
  151SAPE  H19S16768   1.634   0.565   8.575 -1.9585 -1.4362 -0.0982
  151SAPE  C22016769   1.604   0.447   8.750  0.2787  0.4431 -0.2683
  151SAPE  H20R16770   1.670   0.370   8.705 -0.5979 -0.7230  0.3979
  151SAPE  H20S16771   1.502   0.407   8.733  1.4043 -2.7233 -0.1811
  151SAPE  H20T16772   1.617   0.458   8.860 -1.3862  1.5628 -0.1446
  151SAPE   C3316773   1.823   1.091   9.912 -1.0473  0.0831  0.0125
  151SAPE   H3X16774   1.905   1.092   9.837  0.3813  1.2185  1.5168
  151SAPE   H3Y16775   1.766   1.184   9.889  0.6754  1.2522  0.2572
  151SAPE   C3416776   1.724   0.981   9.903  0.2956 -0.3509 -0.3952
  151SAPE   H4X16777   1.626   1.026   9.930 -0.4750 -1.4381 -1.2862
  151SAPE   H4Y16778   1.745   0.893   9.967 -0.0694 -0.2339 -0.1092
  151SAPE   C3516779   1.696   0.925   9.765 -0.0098  0.2446 -0.2283
  151SAPE   H5X16780   1.604   0.864   9.776  0.3696 -0.1201  1.0635
  151SAPE   H5Y16781   1.790   0.877   9.729  1.3482  0.3546  2.8693
  151SAPE   C3616782   1.681   1.034   9.660 -0.4750  1.0737  0.4018
  151SAPE   H6X16783   1.771   1.098   9.645  0.0740  0.0222 -1.0951
  151SAPE   H6Y16784   1.603   1.101   9.702 -0.5229  0.9880  0.4496
  151SAPE   C3716785   1.645   0.978   9.518  0.1259  0.2622 -0.4987
  151SAPE   H7X16786   1.563   0.904   9.533  0.5323 -0.3667 -1.3201
  151SAPE   H7Y16787   1.740   0.940   9.476  0.5172  0.6004  0.0574
  151SAPE   C3816788   1.601   1.083   9.420  0.1009 -0.6686  0.4655
  151SAPE   H8X16789   1.673   1.164   9.395 -2.8954  1.6262 -1.4052
  151SAPE   H8Y16790   1.504   1.132   9.444  1.7344  2.3570  1.3491
  151SAPE   C3916791   1.564   1.003   9.293  1.0220  0.6602 -1.0798
  151SAPE   H9X16792   1.458   1.022   9.264  0.6217  0.4801  0.2257
  151SAPE   H9Y16793   1.557   0.893   9.309  1.1390  0.6195 -1.3017
  151SAPE  C31016794   1.660   1.020   9.175  0.3418  0.1940  0.0817
  151SAPE  H10X16795   1.663   1.127   9.145  0.1178  0.2497  0.2643
  151SAPE  H10Y16796   1.616   0.959   9.093  1.6401 -0.4483 -0.1732
  151SAPE  C31116797   1.800   0.962   9.202 -0.2400  0.6906  0.4256
  151SAPE  H11X16798   1.787   0.864   9.252 -0.6002  0.7241  0.3983
  151SAPE  H11Y16799   1.848   1.025   9.281 -0.6175  1.4221  0.0852
  151SAPE  C31216800   1.882   0.953   9.073  0.7051 -0.2014  0.7111
  151SAPE  H12X16801   1.880   1.057   9.033  1.9696 -0.5279 -0.2709
  151SAPE  H12Y16802   1.834   0.891   8.995  0.1175  2.1018 -0.8629
  151SAPE  C31316803   2.029   0.906   9.094 -0.2335  0.3958  0.0119
  151SAPE  H13X16804   2.033   0.809   9.147  0.5231  0.5327  0.2171
  151SAPE  H13Y16805   2.074   0.977   9.167 -1.2726 -1.2066  2.3171
  151SAPE  C31416806   2.113   0.896   8.967  0.5615  0.1509 -0.5165
  151SAPE  H14X16807   2.105   0.978   8.893  2.9338 -0.2596 -1.3103
  151SAPE  H14Y16808   2.091   0.800   8.916  3.8388 -1.9716  1.6679
  151SAPE  C31516809   2.266   0.893   8.995  0.0917  0.0758  0.3100
  151SAPE  H15X16810   2.286   0.796   9.046 -0.6062 -0.1964  0.0812
  151SAPE  H15Y16811   2.289   0.973   9.068  0.3372  0.5363 -0.2613
  151SAPE  C31616812   2.344   0.919   8.873  0.5342  0.3593  0.6827
  151SAPE  H16X16813   2.310   1.011   8.821  0.1379 -0.3692 -0.3977
  151SAPE  H16Y16814   2.335   0.836   8.799  1.6474  0.9267 -0.1184
  151SAPE  C31716815   2.495   0.934   8.901  0.2811  0.4842  0.4934
  151SAPE  H17X16816   2.541   0.849   8.956  0.0113  0.9097  1.3882
  151SAPE  H17Y16817   2.510   1.021   8.968 -0.6345  0.8741  0.2101
  151SAPE  C31816818   2.574   0.951   8.775 -0.5198 -0.5913  0.1168
  151SAPE  H18X16819   2.549   0.873   8.699  0.9753 -1.2252  0.2507
  151SAPE  H18Y16820   2.680   0.927   8.798 -0.4895  0.2764  0.9160
  151SAPE  H18Z16821   2.567   1.052   8.731  1.6574 -0.2522  0.4807
  152SAPE     N16822   2.581   0.193  10.763 -0.7460  0.9343 -0.3923
  152SAPE   HN116823   2.656   0.133  10.724  1.3164  0.9168  3.1467
  152SAPE   HN216824   2.620   0.288  10.779 -0.5287  0.8522 -0.4342
  152SAPE   HN316825   2.560   0.153  10.857 -0.5541  0.3783 -0.5836
  152SAPE   C1216826   2.459   0.177  10.670 -0.0388  0.4364  1.0397
  152SAPE  H12A16827   2.388   0.244  10.723 -0.3275  1.9308 -1.1150
  152SAPE  H12B16828   2.429   0.070  10.667  2.0482 -0.1966 -1.2147
  152SAPE   C1116829   2.476   0.231  10.519 -0.4214  0.0727  0.2796
  152SAPE  H11A16830   2.377   0.211  10.474 -0.5692  0.7307  0.2950
  152SAPE  H11B16831   2.554   0.170  10.468  0.2102 -1.5294  2.9264
  152SAPE     P16832   2.403   0.479  10.482  0.2240 -0.0740 -0.2447
  152SAPE   O1316833   2.274   0.450  10.539 -0.5619 -0.3445 -0.2084
  152SAPE   O1416834   2.462   0.609  10.518  0.2305 -0.3313 -0.5549
  152SAPE   O1216835   2.500   0.367  10.526  0.2069 -0.8719  0.3948
  152SAPE   O1116836   2.388   0.466  10.324  0.4610 -0.4091 -0.8113
  152SAPE    C116837   2.506   0.479  10.243 -0.1639 -0.5945  0.9718
  152SAPE    HA16838   2.531   0.586  10.231 -0.6778 -0.3692  1.8347
  152SAPE    HB16839   2.584   0.412  10.285 -1.5249 -2.8390  0.1005
  152SAPE    C216840   2.483   0.422  10.096 -0.0771  0.1732 -0.3220
  152SAPE    HS16841   2.575   0.442  10.037 -0.0207 -0.9606 -0.6283
  152SAPE   O2116842   2.369   0.472  10.029 -0.4641 -0.3215  0.1311
  152SAPE   C2116843   2.377   0.604   9.987  0.2009  0.8075  0.5204
  152SAPE   O2216844   2.478   0.670   9.988  0.1187  0.6248  0.6922
  152SAPE   C2216845   2.236   0.641   9.939 -0.3397 -0.0154  0.2281
  152SAPE   H2R16846   2.210   0.590   9.844 -1.0538 -0.4460  0.6508
  152SAPE   H2S16847   2.165   0.606  10.016 -0.7078  1.4018  0.5564
  152SAPE    C316848   2.478   0.265  10.113 -0.0241 -0.2362 -0.3322
  152SAPE    HX16849   2.428   0.237  10.208 -0.8921  1.0686 -0.3769
  152SAPE    HY16850   2.582   0.229  10.127 -1.2786 -3.6243  1.5681
  152SAPE   O3116851   2.424   0.191  10.004  0.1228 -0.0180 -0.3948
  152SAPE   C3116852   2.288   0.186   9.997  0.2097 -0.3718  0.7498
  152SAPE   O3216853   2.204   0.242  10.063  0.1334 -0.5090 -0.1945
  152SAPE   C3216854   2.247   0.097   9.873  0.1842  0.2842  0.3046
  152SAPE   H2X16855   2.266   0.155   9.780  0.2851 -0.2521 -0.0129
  152SAPE   H2Y16856   2.136   0.089   9.870  0.3357 -2.1271 -0.9379
  152SAPE   C2316857   2.224   0.791   9.916  0.3709 -0.3926 -0.4055
  152SAPE   H3R16858   2.236   0.857  10.004  1.0927 -0.7838 -0.1980
  152SAPE   H3S16859   2.117   0.791   9.889  0.1741 -0.7730  0.3366
  152SAPE   C2416860   2.297   0.850   9.800  1.0052  0.7918  0.4855
  152SAPE   H4R16861   2.287   0.784   9.711  1.0984  0.7598  0.4989
  152SAPE   H4S16862   2.405   0.856   9.822  0.8032 -0.8603  2.1473
  152SAPE   C2516863   2.248   0.989   9.763 -0.2357  0.7893  0.3938
  152SAPE   H5R16864   2.269   1.070   9.835 -0.8262  2.5742 -1.3388
  152SAPE   C2616865   2.167   1.014   9.652 -0.0962 -0.1358 -0.4812
  152SAPE   H6R16866   2.137   1.117   9.631 -0.2831 -0.3371 -1.2508
  152SAPE   C2716867   2.120   0.916   9.544 -0.2220 -0.3935  0.1553
  152SAPE   H7R16868   2.206   0.862   9.499  0.4363  0.6086  0.1939
  152SAPE   H7S16869   2.073   0.974   9.462  1.6697 -1.0416 -1.4590
  152SAPE   C2816870   2.021   0.821   9.607  0.0398  0.2457  0.5793
  152SAPE   H8R16871   1.960   0.851   9.693 -1.1702 -1.4089  0.3602
  152SAPE   C2916872   1.994   0.692   9.560 -1.0231 -0.0660  0.7886
  152SAPE   H9R16873   1.933   0.621   9.618 -0.6504 -1.0503  0.0043
  152SAPE  C21016874   2.074   0.635   9.441 -0.1836 -0.3232 -0.1474
  152SAPE  H10R16875   2.181   0.631   9.470 -0.1350 -0.8334 -0.3824
  152SAPE  H10S16876   2.070   0.690   9.345  1.8971  1.1551  0.5596
  152SAPE  C21116877   2.037   0.495   9.413  0.3082  0.7687  0.3505
  152SAPE  H11R16878   1.930   0.480   9.391  0.2222 -0.4340  1.4357
  152SAPE  C21216879   2.117   0.385   9.437  0.0410  0.3428 -0.2351
  152SAPE  H12R16880   2.073   0.293   9.396 -1.2430  0.9393 -0.2260
  152SAPE  C21316881   2.253   0.383   9.499 -0.0203  0.4176  1.0196
  152SAPE  H13R16882   2.240   0.305   9.578 -2.8168  0.4656  0.7068
  152SAPE  H13S16883   2.278   0.476   9.553  1.7887  0.8213 -0.4084
  152SAPE  C21416884   2.372   0.332   9.418 -0.0774 -1.1137 -0.0881
  152SAPE  H14R16885   2.441   0.284   9.488 -0.3312  0.2722  1.1748
  152SAPE  C21516886   2.389   0.343   9.281 -0.5328  0.5288  0.0176
  152SAPE  H15R16887   2.483   0.308   9.236 -1.1463 -0.5121 -0.4748
  152SAPE  C21616888   2.297   0.413   9.184 -0.1549 -0.1961  0.6805
  152SAPE  H16R16889   2.269   0.513   9.224 -2.7634 -1.0268  1.0700
  152SAPE  H16S16890   2.204   0.355   9.167 -0.1915  0.1869 -0.5353
  152SAPE  C21716891   2.363   0.433   9.041  0.8665 -0.4842  0.3680
  152SAPE  H17R16892   2.461   0.484   9.056 -0.0100  1.3435  0.1053
  152SAPE  H17S16893   2.301   0.512   8.994  2.3058  1.8007  2.0860
  152SAPE  C21816894   2.373   0.302   8.956 -0.2325 -0.1583 -0.5386
  152SAPE  H18R16895   2.273   0.275   8.914 -0.4505 -1.2941  0.6463
  152SAPE  H18S16896   2.382   0.230   9.039 -1.4361  2.0260  1.6258
  152SAPE  C21916897   2.494   0.278   8.867 -0.4333 -0.4146  0.5275
  152SAPE  H19R16898   2.508   0.354   8.787 -2.2882  1.5311  1.9586
  152SAPE  H19S16899   2.483   0.176   8.824 -3.3274  0.2614 -0.5523
  152SAPE  C22016900   2.625   0.282   8.942 -0.0405  0.2882 -0.1839
  152SAPE  H20R16901   2.662   0.386   8.951 -0.7658  0.4117  2.0892
  152SAPE  H20S16902   2.702   0.224   8.888 -0.7700  0.9520 -2.0271
  152SAPE  H20T16903   2.605   0.235   9.041  0.6698  3.8809  1.8418
  152SAPE   C3316904   2.311  -0.044   9.873 -0.1998  0.2374  0.6116
  152SAPE   H3X16905   2.341  -0.075   9.976 -0.3723 -0.4498  0.4538
  152SAPE   H3Y16906   2.399  -0.049   9.806 -0.6467 -2.5103  0.1235
  152SAPE   C3416907   2.218  -0.154   9.811 -0.2319  0.3435  0.3151
  152SAPE   H4X16908   2.120  -0.136   9.859  0.0489  1.1553  0.6072
  152SAPE   H4Y16909   2.254  -0.257   9.833 -0.2051  0.2001 -0.3669
  152SAPE   C3516910   2.196  -0.156   9.656 -0.4592 -0.5189  0.5597
  152SAPE   H5X16911   2.199  -0.054   9.613  0.7688 -1.3073 -1.3718
  152SAPE   H5Y16912   2.093  -0.197   9.645 -0.5798 -0.0905  0.0815
  152SAPE   C3616913   2.283  -0.248   9.575 -0.4112  0.8669 -0.8406
  152SAPE   H6X16914   2.278  -0.347   9.625  0.9252  0.1966 -1.9440
  152SAPE   H6Y16915   2.390  -0.218   9.568  0.1356 -0.9809 -1.2298
  152SAPE   C3716916   2.232  -0.266   9.437  0.4562 -0.0349 -0.0390
  152SAPE   H7X16917   2.216  -0.161   9.405  1.7962  1.1879  2.9268
  152SAPE   H7Y16918   2.137  -0.324   9.446 -1.3492  2.7112 -0.2618
  152SAPE   C3816919   2.323  -0.330   9.337  0.7257  0.7722  0.0221
  152SAPE   H8X16920   2.354  -0.426   9.382  2.6326  1.3728  0.1136
  152SAPE   H8Y16921   2.418  -0.274   9.322  0.5326  0.9151 -0.7179
  152SAPE   C3916922   2.266  -0.349   9.201  0.3617  0.0729 -0.3148
  152SAPE   H9X16923   2.246  -0.247   9.162  0.1801  0.8434  1.6857
  152SAPE   H9Y16924   2.173  -0.406   9.224  0.7060  0.8254  3.5375
  152SAPE  C31016925   2.356  -0.424   9.105  0.0119  0.3374  0.3352
  152SAPE  H10X16926   2.377  -0.528   9.140 -0.6936  0.0855  0.0338
  152SAPE  H10Y16927   2.451  -0.368   9.101  1.0969 -1.4461  0.2400
  152SAPE  C31116928   2.301  -0.421   8.964  0.0109  0.5554  0.4308
  152SAPE  H11X16929   2.367  -0.362   8.897 -1.7315 -0.3318 -2.1910
  152SAPE  H11Y16930   2.199  -0.380   8.945 -0.9073 -0.5471  2.6006
  152SAPE  C31216931   2.299  -0.563   8.913 -0.1847  0.3726  0.2235
  152SAPE  H12X16932   2.225  -0.575   8.831 -1.6368  3.9084  0.8114
  152SAPE  H12Y16933   2.269  -0.638   8.989  0.5712  0.4512  0.6054
  152SAPE  C31316934   2.431  -0.609   8.856  0.2481  0.7034 -0.1744
  152SAPE  H13X16935   2.517  -0.588   8.923 -0.1429  1.0263  0.2326
  152SAPE  H13Y16936   2.447  -0.551   8.763  1.4234 -1.4200 -1.3891
  152SAPE  C31416937   2.421  -0.757   8.812  0.0325 -0.1721  0.2421
  152SAPE  H14X16938   2.314  -0.766   8.782 -0.1099  1.0398  0.3226
  152SAPE  H14Y16939   2.441  -0.830   8.894  1.6054 -1.0883 -0.8880
  152SAPE  C31516940   2.498  -0.783   8.679 -0.5226 -0.1090 -0.1678
  152SAPE  H15X16941   2.603  -0.751   8.694 -1.2172  1.2514  2.4654
  152SAPE  H15Y16942   2.458  -0.735   8.587 -0.0414 -0.1269 -0.3865
  152SAPE  C31616943   2.508  -0.934   8.662  0.6352  0.1735 -0.9935
  152SAPE  H16X16944   2.404  -0.973   8.656  0.3282  0.1017  2.4891
  152SAPE  H16Y16945   2.552  -0.970   8.758  1.0792  1.0055 -0.8767
  152SAPE  C31716946   2.583  -0.972   8.534  0.1041  0.3293  0.4156
  152SAPE  H17X16947   2.686  -0.934   8.551 -0.0413  0.2553  1.4930
  152SAPE  H17Y16948   2.537  -0.927   8.443 -3.9004  0.1188  2.1152
  152SAPE  C31816949   2.580  -1.124   8.519  0.5121 -0.3473  0.3966
  152SAPE  H18X16950   2.606  -1.160   8.622 -0.2292  2.6981  1.7550
  152SAPE  H18Y16951   2.653  -1.153   8.441  1.4448 -0.4819  1.2941
  152SAPE  H18Z16952   2.481  -1.171   8.497  0.4177  1.1799 -2.8844
  153SAPE     N16953   3.668   2.464  10.965 -0.8370 -0.1172 -0.4546
  153SAPE   HN116954   3.654   2.564  10.940  2.8679  0.7169  0.1389
  153SAPE   HN216955   3.634   2.403  10.888  0.2073 -1.9637  0.4842
  153SAPE   HN316956   3.606   2.442  11.044 -1.5307  2.3785 -0.2122
  153SAPE   C1216957   3.812   2.445  11.003  0.4758 -0.5373 -0.2267
  153SAPE  H12A16958   3.823   2.335  11.019 -1.3110 -0.8767 -1.0555
  153SAPE  H12B16959   3.831   2.490  11.103 -1.0881  1.4721 -0.7833
  153SAPE   C1116960   3.917   2.509  10.906 -0.0620 -0.3541 -0.0522
  153SAPE  H11A16961   3.913   2.459  10.806 -1.8293  0.8743 -0.6576
  153SAPE  H11B16962   4.018   2.489  10.947  0.3550  0.2849 -0.7551
  153SAPE     P16963   3.981   2.728  10.791 -0.1942  0.2214 -0.0935
  153SAPE   O1316964   3.946   2.873  10.798 -0.3521 -0.1059  0.4590
  153SAPE   O1416965   4.123   2.700  10.815  0.1178  0.5003 -0.0941
  153SAPE   O1216966   3.896   2.644  10.899  0.2586 -0.9386  0.7650
  153SAPE   O1116967   3.928   2.666  10.656  0.0522 -0.4268  0.3181
  153SAPE    C116968   4.016   2.663  10.535 -0.3787 -0.3021 -0.3475
  153SAPE    HA16969   4.115   2.711  10.549 -0.5632  0.3672 -1.2518
  153SAPE    HB16970   4.033   2.557  10.507  0.3472  0.0561 -1.2961
  153SAPE    C216971   3.949   2.724  10.412  0.5546 -0.8572 -0.9884
  153SAPE    HS16972   3.915   2.825  10.445 -1.2769 -1.4137 -1.0298
  153SAPE   O2116973   3.832   2.645  10.379 -0.0876 -1.1808 -0.0911
  153SAPE   C2116974   3.751   2.703  10.287 -0.4854 -0.0940 -0.3752
  153SAPE   O2216975   3.769   2.798  10.211  0.2497  0.2019 -0.0238
  153SAPE   C2216976   3.617   2.625  10.299 -0.2440  0.1619 -0.5130
  153SAPE   H2R16977   3.645   2.524  10.335 -0.6823 -0.2652 -1.3544
  153SAPE   H2S16978   3.552   2.664  10.380 -0.0598  1.2301 -0.8529
  153SAPE    C316979   4.051   2.742  10.297  0.3798  0.3240 -0.1707
  153SAPE    HX16980   4.135   2.797  10.344  1.1520  0.8699 -2.0957
  153SAPE    HY16981   4.004   2.802  10.216  0.6162  0.4882 -0.1853
  153SAPE   O3116982   4.093   2.616  10.243 -0.3175 -0.3913  0.3211
  153SAPE   C3116983   4.224   2.598  10.229 -0.8382  0.1373 -0.3743
  153SAPE   O3216984   4.305   2.689  10.245  0.3968 -0.1974  0.0466
  153SAPE   C3216985   4.264   2.448  10.204  0.0194 -0.8335  0.6685
  153SAPE   H2X16986   4.181   2.382  10.169  0.4834 -0.0388 -2.1859
  153SAPE   H2Y16987   4.285   2.408  10.306  0.3752  0.5513  1.1539
  153SAPE   C2316988   3.538   2.610  10.165  0.2549  0.0147 -0.7380
  153SAPE   H3R16989   3.595   2.555  10.087  0.5487 -1.7211  0.6514
  153SAPE   H3S16990   3.523   2.714  10.129 -0.5751  0.6932  1.4155
  153SAPE   C2416991   3.398   2.551  10.183  0.3058  0.5460 -0.0363
  153SAPE   H4R16992   3.345   2.565  10.086 -0.9534 -2.8638  0.0089
  153SAPE   H4S16993   3.340   2.600  10.265  0.2400 -0.4409  0.5159
  153SAPE   C2516994   3.416   2.404  10.209  0.3719  0.4806 -0.3587
  153SAPE   H5R16995   3.467   2.377  10.303 -0.6073  0.2694  0.1297
  153SAPE   C2616996   3.378   2.308  10.123  0.8234 -0.0191  0.0126
  153SAPE   H6R16997   3.378   2.203  10.153 -0.7439  0.5393  2.2742
  153SAPE   C2716998   3.301   2.327   9.994 -0.4698  0.1618 -0.3100
  153SAPE   H7R16999   3.238   2.419   9.999 -0.8835 -0.0449 -1.4359
  153SAPE   H7S17000   3.232   2.240   9.986 -1.6365  0.8037  1.8769
  153SAPE   C2817001   3.397   2.320   9.874 -0.3283 -0.6540 -0.7120
  153SAPE   H8R17002   3.447   2.222   9.871  0.0878 -0.4750  0.0288
  153SAPE   C2917003   3.428   2.404   9.779 -0.2563 -0.7417  0.3389
  153SAPE   H9R17004   3.499   2.371   9.702 -1.8457 -0.9980 -1.0650
  153SAPE  C21017005   3.378   2.543   9.745 -0.1116 -0.4403  0.1825
  153SAPE  H10R17006   3.310   2.572   9.828  1.4339  0.1813  1.2879
  153SAPE  H10S17007   3.329   2.531   9.647  1.1296 -1.1606 -0.3726
  153SAPE  C21117008   3.489   2.647   9.741  0.7917 -0.1430  0.0277
  153SAPE  H11R17009   3.530   2.682   9.837  1.9367  1.0057 -0.8557
  153SAPE  C21217010   3.525   2.720   9.629  0.1155  0.3956  0.2802
  153SAPE  H12R17011   3.606   2.793   9.640  1.3843 -0.8166 -0.6676
  153SAPE  C21317012   3.472   2.715   9.487 -0.0262 -0.5475 -0.0160
  153SAPE  H13R17013   3.378   2.774   9.487  0.8786  1.0297  1.8706
  153SAPE  H13S17014   3.455   2.609   9.458  0.1644 -0.3905 -0.7222
  153SAPE  C21417015   3.567   2.770   9.382  0.1409 -0.1269  0.8917
  153SAPE  H14R17016   3.670   2.782   9.418  0.5414 -1.3735  0.2266
  153SAPE  C21517017   3.536   2.776   9.256  1.0375 -0.0436  0.6106
  153SAPE  H15R17018   3.616   2.802   9.186  0.4514 -1.0713 -0.4695
  153SAPE  C21617019   3.401   2.741   9.196 -0.7777  0.4161 -0.6058
  153SAPE  H16R17020   3.325   2.821   9.208  0.5124  1.6447 -0.4553
  153SAPE  H16S17021   3.358   2.646   9.235 -0.5220 -0.0558 -1.4436
  153SAPE  C21717022   3.408   2.710   9.044 -0.4679  0.2111 -0.9952
  153SAPE  H17R17023   3.469   2.793   9.002  1.2985 -1.3598 -1.6695
  153SAPE  H17S17024   3.304   2.701   9.006 -0.3269  0.5895 -1.4824
  153SAPE  C21817025   3.476   2.580   9.016  0.2604 -0.3504 -0.1379
  153SAPE  H18R17026   3.478   2.517   9.108  0.1403  0.7668  0.6525
  153SAPE  H18S17027   3.582   2.594   8.987  1.1330 -0.6989  2.5571
  153SAPE  C21917028   3.415   2.504   8.895 -0.4005 -0.7053 -0.5979
  153SAPE  H19R17029   3.308   2.492   8.922 -0.2706  0.8753  0.7568
  153SAPE  H19S17030   3.469   2.407   8.888  4.3166  1.7123 -1.6399
  153SAPE  C22017031   3.438   2.582   8.764  0.1738  0.3399  0.6802
  153SAPE  H20R17032   3.381   2.534   8.682 -0.9665  0.4575  1.3818
  153SAPE  H20S17033   3.545   2.597   8.737 -0.4390 -1.9172 -3.9827
  153SAPE  H20T17034   3.389   2.681   8.770  1.1106  0.8732 -0.1507
  153SAPE   C3317035   4.384   2.423  10.105 -0.7589  0.7573 -0.1158
  153SAPE   H3X17036   4.411   2.315  10.099  0.6911  1.1342 -0.7325
  153SAPE   H3Y17037   4.472   2.466  10.157 -0.1310 -1.0659  0.3895
  153SAPE   C3417038   4.362   2.481   9.964  0.2953  0.8831 -0.1622
  153SAPE   H4X17039   4.458   2.473   9.910  0.8016 -0.7802  0.9228
  153SAPE   H4Y17040   4.327   2.586   9.967  1.8493  1.4115  0.6301
  153SAPE   C3517041   4.271   2.373   9.890 -0.0621 -0.4664 -0.4982
  153SAPE   H5X17042   4.175   2.361   9.944 -0.0646  0.5251 -0.2569
  153SAPE   H5Y17043   4.310   2.270   9.901 -1.1811 -0.7485  1.1695
  153SAPE   C3617044   4.262   2.399   9.741  0.0905  0.4243  0.9627
  153SAPE   H6X17045   4.362   2.436   9.711 -0.0547  2.1498  2.4487
  153SAPE   H6Y17046   4.188   2.482   9.732 -0.6492 -0.2191  1.0548
  153SAPE   C3717047   4.219   2.285   9.653 -0.6646  0.0972  1.0919
  153SAPE   H7X17048   4.110   2.268   9.660 -0.2470 -3.3382  1.3533
  153SAPE   H7Y17049   4.278   2.194   9.679  3.7889  2.3145 -0.1438
  153SAPE   C3817050   4.244   2.312   9.507 -0.1634  0.3230 -0.2293
  153SAPE   H8X17051   4.353   2.330   9.498 -0.1687 -0.1548 -1.4021
  153SAPE   H8Y17052   4.198   2.413   9.493 -2.8258 -0.1971  3.3558
  153SAPE   C3917053   4.213   2.212   9.402  0.2258  0.1581  0.2104
  153SAPE   H9X17054   4.105   2.186   9.405 -0.0776  1.3012 -0.1414
  153SAPE   H9Y17055   4.275   2.122   9.419  0.1343  0.2303  0.9245
  153SAPE  C31017056   4.232   2.264   9.256 -0.3796  1.0672 -0.0940
  153SAPE  H10X17057   4.337   2.294   9.241  0.4010 -1.1984  0.3287
  153SAPE  H10Y17058   4.157   2.338   9.221 -0.1248  0.6161 -1.6643
  153SAPE  C31117059   4.218   2.145   9.150  0.3722 -0.0472 -0.4317
  153SAPE  H11X17060   4.112   2.115   9.136  0.3159 -0.5705  1.0023
  153SAPE  H11Y17061   4.282   2.058   9.177 -0.2728 -0.6612 -0.8367
  153SAPE  C31217062   4.274   2.190   9.012 -0.3624 -0.4807 -0.3482
  153SAPE  H12X17063   4.383   2.175   9.000 -0.3454  0.4782 -1.4941
  153SAPE  H12Y17064   4.260   2.299   8.997  2.1494 -0.1636 -0.7945
  153SAPE  C31317065   4.208   2.121   8.898 -0.4880  0.0612  0.7784
  153SAPE  H13X17066   4.097   2.119   8.905 -0.5390  1.2474  0.5489
  153SAPE  H13Y17067   4.232   2.012   8.903  0.2863  0.1701 -0.1877
  153SAPE  C31417068   4.248   2.182   8.762 -0.1200 -0.5238  0.3734
  153SAPE  H14X17069   4.236   2.292   8.769  1.7170 -0.1787 -1.0867
  153SAPE  H14Y17070   4.169   2.159   8.688 -0.0887  0.1097  0.1401
  153SAPE  C31517071   4.388   2.155   8.711  0.2589 -0.4719  0.3082
  153SAPE  H15X17072   4.413   2.049   8.731  1.5891  0.0040  1.3611
  153SAPE  H15Y17073   4.463   2.216   8.766  0.4865 -2.4758  2.3792
  153SAPE  C31617074   4.397   2.196   8.564 -0.3152 -0.0022  0.7930
  153SAPE  H16X17075   4.361   2.298   8.541 -0.8683 -0.2351  0.6012
  153SAPE  H16Y17076   4.331   2.122   8.513 -3.1366  2.4672  0.5820
  153SAPE  C31717077   4.542   2.171   8.505  0.7682  0.0586 -0.1022
  153SAPE  H17X17078   4.572   2.066   8.525  0.9521 -0.5547 -3.2067
  153SAPE  H17Y17079   4.604   2.247   8.557  0.4446  0.8611 -0.8742
  153SAPE  C31817080   4.543   2.201   8.358  0.1710 -0.4865 -0.2498
  153SAPE  H18X17081   4.641   2.171   8.313  0.1251 -1.8711  0.5297
  153SAPE  H18Y17082   4.527   2.311   8.348  2.4586  0.4324  3.8795
  153SAPE  H18Z17083   4.463   2.145   8.305 -0.9579 -0.0629  0.9558
  154SAPE     N17084   5.227   6.450  10.782 -0.4143  0.0258 -0.3166
  154SAPE   HN117085   5.276   6.402  10.704 -0.6977 -1.1190  0.1857
  154SAPE   HN217086   5.142   6.492  10.741  0.9646  1.6836 -1.6695
  154SAPE   HN317087   5.282   6.538  10.796 -1.5093  0.4713  1.4239
  154SAPE   C1217088   5.204   6.360  10.900 -0.2660 -0.0850  0.8110
  154SAPE  H12A17089   5.163   6.424  10.981 -0.2290  1.5541 -0.4092
  154SAPE  H12B17090   5.304   6.328  10.937 -0.4720 -0.1744  1.2896
  154SAPE   C1117091   5.100   6.259  10.876  0.1217 -0.1086 -0.0901
  154SAPE  H11A17092   5.070   6.201  10.966 -0.0261  2.2156  1.4405
  154SAPE  H11B17093   5.148   6.180  10.815  0.5758 -0.9129  1.2520
  154SAPE     P17094   4.882   6.221  10.726  0.3639  0.2922 -0.4217
  154SAPE   O1317095   4.868   6.102  10.813  0.4628  0.4400 -0.3768
  154SAPE   O1417096   4.767   6.297  10.685  0.3031  0.6053 -0.3923
  154SAPE   O1217097   4.994   6.309  10.794 -0.0334  0.3711 -0.0333
  154SAPE   O1117098   4.972   6.174  10.598 -0.6427 -0.3274  0.0581
  154SAPE    C117099   5.015   6.278  10.508  0.0604  0.2668  0.2673
  154SAPE    HA17100   4.941   6.360  10.507 -0.2730 -0.0268 -1.1072
  154SAPE    HB17101   5.107   6.333  10.538 -0.8572  1.1456  1.6023
  154SAPE    C217102   5.034   6.219  10.360 -0.0886  0.1568  0.6589
  154SAPE    HS17103   5.034   6.298  10.283  0.2694 -1.4150 -1.0051
  154SAPE   O2117104   4.927   6.122  10.327 -0.1909  0.4133 -0.1128
  154SAPE   C2117105   4.823   6.180  10.269  0.5448 -0.2015  0.4204
  154SAPE   O2217106   4.803   6.301  10.268  0.1095  0.1454  0.2408
  154SAPE   C2217107   4.729   6.074  10.214  0.0464 -0.1806  0.2295
  154SAPE   H2R17108   4.699   6.005  10.296 -2.0657  1.2278  0.7204
  154SAPE   H2S17109   4.634   6.126  10.191 -0.6586 -0.2301  2.7402
  154SAPE    C317110   5.167   6.140  10.348  0.3129 -1.1250  0.1844
  154SAPE    HX17111   5.161   6.056  10.420 -1.3223  0.4800  2.0047
  154SAPE    HY17112   5.254   6.199  10.385 -0.9430  0.3091  0.9458
  154SAPE   O3117113   5.183   6.100  10.207  0.0435  0.3307  0.1439
  154SAPE   C3117114   5.229   6.194  10.118 -0.5506  0.1177  0.5499
  154SAPE   O3217115   5.266   6.306  10.150  0.0061 -0.1157  0.0367
  154SAPE   C3217116   5.227   6.136   9.981 -0.4289  0.2896  0.3999
  154SAPE   H2X17117   5.131   6.081   9.968 -1.2399  1.7631 -0.1399
  154SAPE   H2Y17118   5.297   6.049   9.980 -0.9317 -0.2390 -3.1734
  154SAPE   C2317119   4.800   6.014  10.088 -0.2384  0.4867 -0.6750
  154SAPE   H3R17120   4.749   5.924  10.047  0.2009  0.6217 -1.5583
  154SAPE   H3S17121   4.899   5.980  10.125 -1.3632 -2.0509  0.2273
  154SAPE   C2417122   4.806   6.115   9.969  0.2906 -0.1186  0.1712
  154SAPE   H4R17123   4.876   6.071   9.895 -0.0759 -3.3059  1.5646
  154SAPE   H4S17124   4.855   6.209  10.003 -0.0653  0.1962 -0.1778
  154SAPE   C2517125   4.669   6.149   9.912  0.1210 -0.3243  0.4979
  154SAPE   H5R17126   4.584   6.149   9.981  0.8188  0.8623  1.3946
  154SAPE   C2617127   4.653   6.182   9.777  0.4548  0.4570 -0.8088
  154SAPE   H6R17128   4.551   6.198   9.739  0.3088  0.2006 -0.5288
  154SAPE   C2717129   4.763   6.171   9.670  0.2137 -0.2318 -0.2092
  154SAPE   H7R17130   4.866   6.180   9.710 -1.0523  1.0881  3.1091
  154SAPE   H7S17131   4.747   6.253   9.597  0.8045 -1.7578 -2.1355
  154SAPE   C2817132   4.758   6.045   9.590  0.4211  0.2370 -0.2029
  154SAPE   H8R17133   4.740   5.955   9.651 -1.6699  0.0101 -1.1029
  154SAPE   C2917134   4.786   6.022   9.457  0.3045 -0.3779 -0.1205
  154SAPE   H9R17135   4.798   5.917   9.426  1.0965 -0.5011  0.5541
  154SAPE  C21017136   4.824   6.113   9.353 -0.0323 -0.2862  0.5749
  154SAPE  H10R17137   4.919   6.082   9.303 -0.0208  0.2869  0.2248
  154SAPE  H10S17138   4.844   6.215   9.391 -0.0298  0.7541 -1.9881
  154SAPE  C21117139   4.720   6.131   9.250  0.8532 -0.0691 -0.0981
  154SAPE  H11R17140   4.622   6.161   9.290 -0.2580 -0.5468 -2.3310
  154SAPE  C21217141   4.734   6.126   9.111  0.8106 -0.0264 -0.0464
  154SAPE  H12R17142   4.648   6.135   9.044  0.9407  0.0936 -0.1980
  154SAPE  C21317143   4.853   6.094   9.025  0.3086 -0.0176 -0.4071
  154SAPE  H13R17144   4.941   6.066   9.087  0.2629 -0.0803 -0.3705
  154SAPE  H13S17145   4.902   6.180   8.976 -1.0155  0.6553 -0.5979
  154SAPE  C21417146   4.824   5.987   8.924 -0.2770 -0.4724 -0.4483
  154SAPE  H14R17147   4.854   5.883   8.948 -0.1444 -0.2568  0.3634
  154SAPE  C21517148   4.774   6.005   8.801 -0.2063  0.2296  0.8156
  154SAPE  H15R17149   4.752   5.909   8.752  2.3828 -0.9351  1.7349
  154SAPE  C21617150   4.738   6.143   8.745  0.1547 -0.3798 -0.4977
  154SAPE  H16R17151   4.817   6.172   8.672  1.2663  1.4864  1.3068
  154SAPE  H16S17152   4.753   6.210   8.832  0.7229 -2.9473  1.4940
  154SAPE  C21717153   4.601   6.144   8.685 -0.5480 -0.5336  0.5763
  154SAPE  H17R17154   4.560   6.051   8.640  1.3788 -0.6622 -1.0303
  154SAPE  H17S17155   4.583   6.227   8.613  2.3676  3.4159  3.9200
  154SAPE  C21817156   4.497   6.167   8.801 -0.6416 -0.1388 -0.0240
  154SAPE  H18R17157   4.511   6.272   8.837 -0.5526 -1.5652  4.8741
  154SAPE  H18S17158   4.521   6.102   8.888 -0.6428  0.7252  0.6460
  154SAPE  C21917159   4.353   6.150   8.758  0.3847  0.5083 -0.4641
  154SAPE  H19R17160   4.338   6.041   8.738 -1.0477  0.3034  1.4653
  154SAPE  H19S17161   4.337   6.223   8.676  2.7935  1.5834 -0.0582
  154SAPE  C22017162   4.246   6.188   8.860  0.1962  0.4290 -0.3235
  154SAPE  H20R17163   4.142   6.184   8.823 -0.3231  0.3554  1.0815
  154SAPE  H20S17164   4.263   6.294   8.891  1.2643 -0.3739  2.0248
  154SAPE  H20T17165   4.259   6.128   8.953  0.2169 -2.2201 -1.9408
  154SAPE   C3317166   5.263   6.237   9.878  0.3310 -0.4802 -0.0299
  154SAPE   H3X17167   5.372   6.257   9.877 -0.2114  3.3521  2.0338
  154SAPE   H3Y17168   5.221   6.338   9.894  1.8746 -0.3002  4.0597
  154SAPE   C3417169   5.217   6.180   9.743  0.0274  0.1246 -0.0102
  154SAPE   H4X17170   5.107   6.180   9.726  0.1950  1.7703 -1.2724
  154SAPE   H4Y17171   5.237   6.071   9.739 -1.6252 -0.1677 -1.2489
  154SAPE   C3517172   5.298   6.239   9.620 -0.1634 -0.5689 -0.0824
  154SAPE   H5X17173   5.403   6.204   9.633  0.5788  0.7611 -2.0718
  154SAPE   H5Y17174   5.304   6.350   9.612  1.3225 -0.6393 -0.1171
  154SAPE   C3617175   5.258   6.170   9.493 -0.5246  0.8078  0.2436
  154SAPE   H6X17176   5.152   6.201   9.481 -0.3861  1.4044  0.5101
  154SAPE   H6Y17177   5.259   6.059   9.498  0.4623  0.8419  1.4220
  154SAPE   C3717178   5.320   6.216   9.356 -0.4278 -0.0782  0.7318
  154SAPE   H7X17179   5.422   6.175   9.339 -1.1789 -1.7153 -0.0894
  154SAPE   H7Y17180   5.320   6.326   9.345  1.7952 -0.1791 -1.2124
  154SAPE   C3817181   5.245   6.152   9.233  0.0829  0.0421 -0.2503
  154SAPE   H8X17182   5.140   6.187   9.230  0.5323  1.3751 -1.4257
  154SAPE   H8Y17183   5.218   6.047   9.258  1.1092 -0.7281 -2.1959
  154SAPE   C3917184   5.324   6.159   9.101  0.1418 -0.1165 -0.3837
  154SAPE   H9X17185   5.419   6.105   9.122 -1.0013 -2.0055  0.1546
  154SAPE   H9Y17186   5.349   6.261   9.065  0.7558  0.3954  1.3621
  154SAPE  C31017187   5.254   6.076   8.992  0.8661  0.4448  0.7877
  154SAPE  H10X17188   5.155   6.116   8.962  0.4377 -1.5391 -0.6738
  154SAPE  H10Y17189   5.238   5.973   9.032 -1.8398  1.0025  1.3549
  154SAPE  C31117190   5.336   6.058   8.862 -0.4327 -0.5866 -0.1508
  154SAPE  H11X17191   5.431   6.008   8.888 -0.4808 -1.7006 -1.9529
  154SAPE  H11Y17192   5.358   6.166   8.845 -1.3020 -0.4322 -0.3827
  154SAPE  C31217193   5.263   5.987   8.747 -0.1564  0.3142  0.3807
  154SAPE  H12X17194   5.154   6.006   8.759 -0.1357 -0.5459  2.1992
  154SAPE  H12Y17195   5.275   5.877   8.753  1.5434  0.5149  1.4004
  154SAPE  C31317196   5.303   6.032   8.606  0.4249 -0.9506 -0.6187
  154SAPE  H13X17197   5.414   6.038   8.605  0.4018 -0.3603 -1.3294
  154SAPE  H13Y17198   5.273   6.137   8.583  0.9128 -0.6491  0.0847
  154SAPE  C31417199   5.274   5.926   8.504 -0.4933 -0.0109  0.2038
  154SAPE  H14X17200   5.164   5.926   8.485 -1.0159  0.0404  2.7899
  154SAPE  H14Y17201   5.299   5.826   8.544  1.0211  0.4807  0.5570
  154SAPE  C31517202   5.369   5.932   8.382 -0.4166  0.3644  0.2941
  154SAPE  H15X17203   5.356   5.836   8.328 -0.7571  0.7873 -0.3821
  154SAPE  H15Y17204   5.475   5.931   8.415  0.1666  3.1553 -1.2039
  154SAPE  C31617205   5.346   6.048   8.286  0.2358 -0.2277 -0.5095
  154SAPE  H16X17206   5.369   6.138   8.347  2.3944 -0.1677 -1.3380
  154SAPE  H16Y17207   5.238   6.051   8.258  0.3163  1.8858 -0.7144
  154SAPE  C31717208   5.417   6.045   8.148 -0.2735  0.0281  0.1690
  154SAPE  H17X17209   5.403   6.139   8.090  0.3384 -0.7407 -1.2988
  154SAPE  H17Y17210   5.369   5.965   8.088  1.2655 -1.9712  1.4976
  154SAPE  C31817211   5.566   6.015   8.147  1.0823  0.1346  0.0431
  154SAPE  H18X17212   5.628   6.085   8.207  2.1447 -1.0877  0.4081
  154SAPE  H18Y17213   5.598   6.025   8.041  1.2810  2.3728  0.2751
  154SAPE  H18Z17214   5.583   5.908   8.174 -2.1169  0.0434  2.3595
  155SAPE     N17215   3.222   0.268  10.840 -0.0685  0.2682  0.5702
  155SAPE   HN117216   3.269   0.226  10.758 -0.1977 -0.4895  0.8742
  155SAPE   HN217217   3.131   0.314  10.818  0.0735 -0.1993 -1.1380
  155SAPE   HN317218   3.278   0.338  10.894 -1.2642  0.8091  1.1427
  155SAPE   C1217219   3.191   0.153  10.929 -0.2355  0.3640  0.0898
  155SAPE  H12A17220   3.123   0.204  11.002  0.3894  2.4536 -0.7239
  155SAPE  H12B17221   3.278   0.111  10.984  0.0553  0.7301 -0.0841
  155SAPE   C1117222   3.116   0.042  10.850 -0.1981 -0.1765  0.2527
  155SAPE  H11A17223   3.101  -0.039  10.925  0.5746  0.5883  1.2628
  155SAPE  H11B17224   3.180   0.009  10.765  0.9197 -0.8259  1.3044
  155SAPE     P17225   2.914   0.004  10.702  0.1140  0.4903  0.2068
  155SAPE   O1317226   2.929  -0.130  10.750  0.2572  1.0941 -0.0359
  155SAPE   O1417227   2.776   0.050  10.671 -0.5344 -0.1615 -0.1477
  155SAPE   O1217228   2.999   0.096  10.804  0.5228  0.1658  0.0709
  155SAPE   O1117229   2.999   0.028  10.574  0.2310  0.2947  0.8589
  155SAPE    C117230   3.028   0.153  10.517  0.1844 -1.0530 -0.1529
  155SAPE    HA17231   3.011   0.237  10.587 -1.5244  0.0925 -1.8427
  155SAPE    HB17232   3.134   0.153  10.484  0.3761 -0.0341  0.4181
  155SAPE    C217233   2.944   0.188  10.394  0.1555  0.5406  0.5895
  155SAPE    HS17234   2.839   0.192  10.428 -0.5429 -2.9878 -0.7135
  155SAPE   O2117235   2.967   0.083  10.295  0.7009 -0.4955  0.2383
  155SAPE   C2117236   2.861   0.052  10.219  0.0340  0.0839  0.4196
  155SAPE   O2217237   2.748   0.092  10.230  0.2024  0.6995 -0.1141
  155SAPE   C2217238   2.911  -0.046  10.115  0.0880  0.0269 -0.0093
  155SAPE   H2R17239   3.004  -0.007  10.070  1.7907 -2.3051  1.2447
  155SAPE   H2S17240   2.930  -0.149  10.152  0.4284  0.4495  1.0435
  155SAPE    C317241   2.978   0.331  10.338 -0.2537  0.6637 -0.1390
  155SAPE    HX17242   3.085   0.350  10.362 -0.3047  0.4431  0.2622
  155SAPE    HY17243   2.910   0.406  10.382  1.6736  2.8036 -0.6312
  155SAPE   O3117244   2.978   0.328  10.194  0.4870  0.1241 -0.1509
  155SAPE   C3117245   2.974   0.460  10.154  0.0547 -0.1644 -0.2362
  155SAPE   O3217246   2.966   0.564  10.221 -0.3271  0.8167 -0.1031
  155SAPE   C3217247   2.984   0.450  10.002  0.5057 -0.0037 -0.1833
  155SAPE   H2X17248   2.904   0.376   9.979 -1.9631  2.1796  0.8183
  155SAPE   H2Y17249   3.091   0.421   9.993  0.9978  0.3670  3.1735
  155SAPE   C2317250   2.821  -0.046   9.993 -0.1062  0.1074 -0.1281
  155SAPE   H3R17251   2.717  -0.067  10.024 -0.7116  2.4484 -0.3441
  155SAPE   H3S17252   2.856  -0.116   9.914 -0.2614 -0.6569  0.4695
  155SAPE   C2417253   2.819   0.093   9.930  0.7365  0.1923  0.5200
  155SAPE   H4R17254   2.914   0.124   9.881  0.9566  0.4967  1.1307
  155SAPE   H4S17255   2.798   0.170  10.007  0.1064  0.7683 -0.2052
  155SAPE   C2517256   2.714   0.103   9.825  0.4522 -0.2630  0.9469
  155SAPE   H5R17257   2.617   0.062   9.857  1.0007 -2.0381  0.4793
  155SAPE   C2617258   2.739   0.149   9.697  0.2120  0.6702  1.2390
  155SAPE   H6R17259   2.652   0.137   9.631  0.4608 -2.4112  1.3592
  155SAPE   C2717260   2.875   0.200   9.639  0.1806  0.5994  0.8679
  155SAPE   H7R17261   2.944   0.113   9.632 -0.4244  0.2198 -1.0699
  155SAPE   H7S17262   2.943   0.267   9.695  2.1017  0.4483 -1.1315
  155SAPE   C2817263   2.863   0.245   9.499  1.5514  0.0686 -0.4752
  155SAPE   H8R17264   2.895   0.350   9.493 -2.1251  1.3066 -1.0176
  155SAPE   C2917265   2.833   0.180   9.380 -0.8016  0.0809 -0.0598
  155SAPE   H9R17266   2.834   0.238   9.287  1.3230  1.3834  0.7052
  155SAPE  C21017267   2.802   0.032   9.375  0.0551 -0.2731  0.5392
  155SAPE  H10R17268   2.846  -0.013   9.466  1.5664 -1.1214 -0.5648
  155SAPE  H10S17269   2.850  -0.015   9.286 -1.0922  3.0575 -2.0394
  155SAPE  C21117270   2.657  -0.005   9.363 -0.3190 -0.2864  0.2580
  155SAPE  H11R17271   2.602  -0.012   9.458 -2.1660  0.1948 -0.7241
  155SAPE  C21217272   2.585  -0.041   9.254  0.5234 -0.0586 -0.2246
  155SAPE  H12R17273   2.475  -0.043   9.262  0.5284  2.0202  1.4069
  155SAPE  C21317274   2.639  -0.042   9.110  0.4364  0.0025 -0.6279
  155SAPE  H13R17275   2.728  -0.108   9.104  2.0631  2.0984 -0.7586
  155SAPE  H13S17276   2.697   0.051   9.094  1.5780 -0.5168  0.2884
  155SAPE  C21417277   2.545  -0.059   8.990 -0.7881 -0.1452 -1.2053
  155SAPE  H14R17278   2.453   0.000   8.987 -0.8442 -0.0451  0.9152
  155SAPE  C21517279   2.568  -0.140   8.882  0.7185 -0.3452  0.0393
  155SAPE  H15R17280   2.495  -0.144   8.800  2.0884 -1.7562 -1.1675
  155SAPE  C21617281   2.696  -0.224   8.860 -0.6589 -0.1143  0.1888
  155SAPE  H16R17282   2.665  -0.331   8.864  1.4554 -0.8807 -1.8201
  155SAPE  H16S17283   2.774  -0.205   8.937 -0.1418 -1.5108  0.0367
  155SAPE  C21717284   2.763  -0.197   8.722 -0.5305 -0.8619 -0.0607
  155SAPE  H17R17285   2.861  -0.249   8.718  0.7087  1.3935 -0.6807
  155SAPE  H17S17286   2.794  -0.091   8.721  1.2920 -1.3442 -1.9786
  155SAPE  C21817287   2.683  -0.228   8.597  0.2300  0.1049 -0.3163
  155SAPE  H18R17288   2.739  -0.204   8.504 -1.3783  3.1244 -0.6344
  155SAPE  H18S17289   2.604  -0.151   8.584  0.6811  0.8737  1.2437
  155SAPE  C21917290   2.615  -0.366   8.587 -0.1758 -0.0133 -0.2771
  155SAPE  H19R17291   2.530  -0.360   8.660 -0.2705 -1.5784 -0.2162
  155SAPE  H19S17292   2.681  -0.448   8.621 -1.1475 -0.2436  1.1890
  155SAPE  C22017293   2.562  -0.392   8.446 -0.2201  1.1585 -0.0931
  155SAPE  H20R17294   2.504  -0.487   8.443 -0.8956  1.5241  1.0126
  155SAPE  H20S17295   2.649  -0.406   8.378  1.0739  1.4048  1.4556
  155SAPE  H20T17296   2.489  -0.317   8.409 -1.0923 -0.1090 -1.0206
  155SAPE   C3317297   2.948   0.578   9.922  0.1741  0.3711 -0.9478
  155SAPE   H3X17298   2.998   0.571   9.823 -2.4365 -0.0495 -2.3168
  155SAPE   H3Y17299   2.987   0.659   9.987 -1.5553 -0.4641  1.2553
  155SAPE   C3417300   2.807   0.607   9.896 -0.4289  0.0087 -0.5444
  155SAPE   H4X17301   2.798   0.717   9.887 -1.5397  0.0401  0.6803
  155SAPE   H4Y17302   2.736   0.589   9.980 -3.1038  1.9546 -2.2120
  155SAPE   C3517303   2.763   0.541   9.760  0.9013 -0.0429  0.4109
  155SAPE   H5X17304   2.752   0.431   9.768 -1.2697  0.1164  0.1905
  155SAPE   H5Y17305   2.846   0.574   9.694  0.6478  1.3738  0.7666
  155SAPE   C3617306   2.625   0.601   9.714 -0.1565 -0.2908 -0.2312
  155SAPE   H6X17307   2.623   0.710   9.739 -1.4404 -0.5390  0.9164
  155SAPE   H6Y17308   2.542   0.546   9.763  0.8172 -1.5423  0.0476
  155SAPE   C3717309   2.610   0.609   9.563 -0.6081 -0.4179  0.8491
  155SAPE   H7X17310   2.584   0.510   9.519  0.6524 -0.5005  0.2435
  155SAPE   H7Y17311   2.709   0.633   9.517  0.6908 -0.9114  3.2326
  155SAPE   C3817312   2.512   0.718   9.505 -0.3305  0.4432  0.5860
  155SAPE   H8X17313   2.538   0.813   9.557  0.7908 -0.0606  0.9613
  155SAPE   H8Y17314   2.413   0.675   9.533 -1.3846  1.9107 -0.6734
  155SAPE   C3917315   2.503   0.726   9.349  0.6177  0.0974 -0.0157
  155SAPE   H9X17316   2.424   0.800   9.324 -1.3458 -2.2438 -1.1436
  155SAPE   H9Y17317   2.481   0.624   9.310  1.2143 -0.1968  0.3970
  155SAPE  C31017318   2.628   0.781   9.276 -0.0951  0.0962  0.1715
  155SAPE  H10X17319   2.705   0.788   9.356  1.4753  0.2453 -1.2971
  155SAPE  H10Y17320   2.601   0.887   9.255 -1.4606 -0.0799  0.8927
  155SAPE  C31117321   2.679   0.691   9.167  0.1808 -0.7861 -1.0940
  155SAPE  H11X17322   2.601   0.681   9.088  0.1150  0.9857 -1.2879
  155SAPE  H11Y17323   2.687   0.591   9.214  1.6282  0.4751  1.5969
  155SAPE  C31217324   2.812   0.723   9.105 -0.3074  0.6951  0.0591
  155SAPE  H12X17325   2.887   0.721   9.187 -0.1902  0.6280 -0.0494
  155SAPE  H12Y17326   2.820   0.824   9.058  0.4723  0.1723 -0.9792
  155SAPE  C31317327   2.862   0.631   8.988  0.1252  0.8752 -0.1423
  155SAPE  H13X17328   2.836   0.524   9.001 -1.5734  1.3852  0.9716
  155SAPE  H13Y17329   2.973   0.626   8.994  0.1111 -0.9901 -0.9831
  155SAPE  C31417330   2.812   0.678   8.855  0.3535 -0.1862 -0.0108
  155SAPE  H14X17331   2.858   0.777   8.835 -0.4481  0.3282  0.6176
  155SAPE  H14Y17332   2.702   0.676   8.873  0.6999 -1.2386  2.4909
  155SAPE  C31517333   2.859   0.578   8.754  0.5523 -0.7589 -0.5342
  155SAPE  H15X17334   2.825   0.480   8.794 -0.3278 -0.9502 -1.6801
  155SAPE  H15Y17335   2.968   0.581   8.733  0.2300 -0.0234 -2.3146
  155SAPE  C31617336   2.789   0.604   8.623  0.6793  0.4196 -0.8947
  155SAPE  H16X17337   2.857   0.569   8.542  1.7134 -0.9008  0.4678
  155SAPE  H16Y17338   2.768   0.713   8.619 -2.0407 -0.0249 -0.4374
  155SAPE  C31717339   2.651   0.546   8.619  0.8860  0.4833  0.1327
  155SAPE  H17X17340   2.602   0.559   8.718  0.5414  1.0472 -0.1075
  155SAPE  H17Y17341   2.643   0.440   8.585  1.1738  0.8046 -0.9808
  155SAPE  C31817342   2.556   0.606   8.508  0.0623 -0.0351 -0.0854
  155SAPE  H18X17343   2.544   0.715   8.525  2.5265  0.4915 -1.3054
  155SAPE  H18Y17344   2.460   0.551   8.524  0.0701  0.5565  2.4549
  155SAPE  H18Z17345   2.594   0.591   8.405 -0.6391 -0.1376 -0.3347
  156SAPE     N17346   1.733   0.382  10.713  0.4310  0.5654  0.4849
  156SAPE   HN117347   1.733   0.438  10.625  6.2312 -0.2431 -0.4618
  156SAPE   HN217348   1.644   0.379  10.767  0.4524  2.7210  0.7346
  156SAPE   HN317349   1.805   0.425  10.774  0.6105  0.7587  0.1395
  156SAPE   C1217350   1.790   0.247  10.680 -0.0909  0.2848 -0.3725
  156SAPE  H12A17351   1.777   0.180  10.768  1.9196 -0.9130 -0.9109
  156SAPE  H12B17352   1.900   0.258  10.672  0.1341 -0.1971  1.4977
  156SAPE   C1117353   1.736   0.185  10.547 -0.0429 -0.3167  0.3171
  156SAPE  H11A17354   1.783   0.084  10.535  2.9942  1.1202 -0.9264
  156SAPE  H11B17355   1.790   0.248  10.473  0.6258 -0.9293  0.2620
  156SAPE     P17356   1.501   0.253  10.445  0.0997 -0.2063  0.2883
  156SAPE   O1317357   1.370   0.183  10.454  0.1441  0.2139  0.5893
  156SAPE   O1417358   1.500   0.396  10.486 -0.1790 -0.3420 -0.1341
  156SAPE   O1217359   1.589   0.176  10.541 -0.1157 -0.4755  0.3578
  156SAPE   O1117360   1.565   0.229  10.302 -0.4017  0.1339 -0.0338
  156SAPE    C117361   1.651   0.119  10.271  0.3620  0.0595  0.2325
  156SAPE    HA17362   1.754   0.159  10.260 -0.0782  1.3406  0.5865
  156SAPE    HB17363   1.659   0.041  10.349  2.2519 -0.0254 -0.0127
  156SAPE    C217364   1.602   0.050  10.139  0.0887 -1.2163  0.0187
  156SAPE    HS17365   1.657  -0.045  10.123 -0.6030 -2.0240  2.0567
  156SAPE   O2117366   1.608   0.126  10.023 -0.1771 -0.2799  0.0633
  156SAPE   C2117367   1.729   0.160   9.978 -0.5307  0.6292 -0.6331
  156SAPE   O2217368   1.837   0.121  10.025 -0.1994  0.7033  0.1864
  156SAPE   C2217369   1.710   0.250   9.866 -0.5241 -0.2222 -0.1267
  156SAPE   H2R17370   1.657   0.200   9.783 -0.4552  1.2403 -1.0750
  156SAPE   H2S17371   1.647   0.337   9.896 -0.1579  0.0433 -0.1093
  156SAPE    C317372   1.457   0.006  10.165  0.1584  0.1418 -0.4841
  156SAPE    HX17373   1.386   0.072  10.219 -0.5361  0.3929 -1.6715
  156SAPE    HY17374   1.470  -0.079  10.236  0.8462  1.7644  1.4513
  156SAPE   O3117375   1.390  -0.048  10.050  0.2705  0.3540  0.0528
  156SAPE   C3117376   1.269  -0.016  10.029  0.9328 -0.2307  0.0795
  156SAPE   O3217377   1.198   0.060  10.097  0.1220  0.5531 -0.0373
  156SAPE   C3217378   1.217  -0.096   9.907 -0.0342  0.5902 -0.7794
  156SAPE   H2X17379   1.109  -0.109   9.926  0.5064  0.4001  2.8065
  156SAPE   H2Y17380   1.269  -0.193   9.894  0.6658  0.7410  0.7378
  156SAPE   C2317381   1.853   0.307   9.813  0.4092  0.3401 -0.1026
  156SAPE   H3R17382   1.922   0.338   9.895  0.2025  1.8361 -0.4670
  156SAPE   H3S17383   1.822   0.400   9.760 -0.8131  0.3534  0.5884
  156SAPE   C2417384   1.911   0.221   9.706 -0.4397  0.3040  0.4427
  156SAPE   H4R17385   1.926   0.118   9.745 -1.1760 -0.2824 -0.7743
  156SAPE   H4S17386   2.016   0.251   9.685 -0.4067 -0.3953 -0.4285
  156SAPE   C2517387   1.835   0.228   9.578 -0.4457 -0.3445 -0.3203
  156SAPE   H5R17388   1.736   0.277   9.578 -0.4957 -0.4331 -1.0995
  156SAPE   C2617389   1.855   0.146   9.467 -0.0452 -0.7095  1.0271
  156SAPE   H6R17390   1.789   0.163   9.381  2.0014  0.9597 -0.2951
  156SAPE   C2717391   1.957   0.038   9.466 -0.4833 -0.1880 -0.0443
  156SAPE   H7R17392   1.978  -0.008   9.565  0.6516 -0.0432 -0.2069
  156SAPE   H7S17393   2.056   0.072   9.429  0.4114 -0.2849  2.1107
  156SAPE   C2817394   1.932  -0.085   9.382 -0.4806 -0.4844 -0.0143
  156SAPE   H8R17395   1.881  -0.168   9.433  1.0151  0.0653  2.5834
  156SAPE   C2917396   1.978  -0.100   9.255  0.3402 -0.5391  0.2909
  156SAPE   H9R17397   1.974  -0.202   9.214  1.7465  0.3756 -2.4348
  156SAPE  C21017398   2.056  -0.004   9.174 -0.2596  0.1338  0.5330
  156SAPE  H10R17399   2.141  -0.061   9.130 -0.2342 -1.0055  2.0039
  156SAPE  H10S17400   2.106   0.076   9.233  0.1300  0.5142 -0.2866
  156SAPE  C21117401   1.977   0.049   9.061  0.1194  0.4323  0.4226
  156SAPE  H11R17402   1.884   0.096   9.098 -0.1350  0.2243  0.0454
  156SAPE  C21217403   2.008   0.041   8.926  0.3752 -0.0187 -0.1157
  156SAPE  H12R17404   1.938   0.082   8.852 -2.0992  1.5522  2.8517
  156SAPE  C21317405   2.129  -0.032   8.873  0.9180  0.5600 -0.2516
  156SAPE  H13R17406   2.125  -0.136   8.913 -5.5510 -0.0843 -1.4563
  156SAPE  H13S17407   2.212   0.039   8.895 -0.4430  2.2017 -0.2560
  156SAPE  C21417408   2.109  -0.054   8.730  0.5020 -0.3938 -0.1798
  156SAPE  H14R17409   2.031  -0.129   8.708 -1.8684  1.3821  1.6354
  156SAPE  C21517410   2.178  -0.010   8.631 -0.3291  0.5108  0.9561
  156SAPE  H15R17411   2.144  -0.047   8.533 -2.5331 -2.5132  2.6691
  156SAPE  C21617412   2.308   0.071   8.637 -0.4701 -0.5565  0.1888
  156SAPE  H16R17413   2.377   0.038   8.717  0.0075 -2.0666 -0.7974
  156SAPE  H16S17414   2.297   0.181   8.649  3.7326  0.1287 -0.4617
  156SAPE  C21717415   2.393   0.057   8.497 -0.2144 -0.0447 -0.2876
  156SAPE  H17R17416   2.340   0.102   8.410 -0.3233 -0.0284 -0.2137
  156SAPE  H17S17417   2.411  -0.053   8.489  1.5341  0.1185  0.8540
  156SAPE  C21817418   2.529   0.128   8.504 -0.4296  0.4963  0.2395
  156SAPE  H18R17419   2.573   0.098   8.602 -1.5309 -0.4466  0.4667
  156SAPE  H18S17420   2.519   0.239   8.510  2.6017  1.0690 -2.4239
  156SAPE  C21917421   2.623   0.085   8.388 -0.1694  0.8922  0.5486
  156SAPE  H19R17422   2.577   0.118   8.293  0.9468  1.3005  0.1355
  156SAPE  H19S17423   2.636  -0.025   8.381 -1.5490  0.7765 -0.4527
  156SAPE  C22017424   2.764   0.145   8.393 -0.5947 -0.0022 -0.4367
  156SAPE  H20R17425   2.767   0.254   8.371 -1.0162  0.0613 -0.2029
  156SAPE  H20S17426   2.838   0.095   8.327  0.3631  1.8032 -0.7872
  156SAPE  H20T17427   2.807   0.132   8.495  0.5561  0.1495 -0.8954
  156SAPE   C3317428   1.237  -0.005   9.784 -0.2919 -0.2885  0.2167
  156SAPE   H3X17429   1.196   0.097   9.801  0.0387 -0.2368  0.7070
  156SAPE   H3Y17430   1.174  -0.038   9.698 -2.5613  2.0438  0.8372
  156SAPE   C3417431   1.384  -0.001   9.741  0.1856 -0.1079 -0.1706
  156SAPE   H4X17432   1.419  -0.105   9.724  0.8143 -0.1695  1.3129
  156SAPE   H4Y17433   1.441   0.041   9.827  1.5818  1.6025 -1.8438
  156SAPE   C3517434   1.402   0.071   9.605  0.6153  0.4512  0.1104
  156SAPE   H5X17435   1.509   0.102   9.604  0.8042 -0.1695  0.4313
  156SAPE   H5Y17436   1.345   0.166   9.600 -2.7388 -1.4335 -0.0936
  156SAPE   C3617437   1.378  -0.020   9.485  0.2969  0.1963 -0.5428
  156SAPE   H6X17438   1.275  -0.004   9.447 -1.7285  0.1678  4.2109
  156SAPE   H6Y17439   1.380  -0.123   9.528 -0.1403  0.8745  1.1903
  156SAPE   C3717440   1.494  -0.020   9.383 -0.0469 -0.4474 -0.1892
  156SAPE   H7X17441   1.588  -0.042   9.438 -0.3308 -0.8745  0.1328
  156SAPE   H7Y17442   1.508   0.081   9.338  2.0003 -0.5969  0.0192
  156SAPE   C3817443   1.480  -0.131   9.284  0.6249 -0.1735  0.5757
  156SAPE   H8X17444   1.378  -0.123   9.239  0.2334  2.2744  1.7778
  156SAPE   H8Y17445   1.480  -0.230   9.335 -4.1377  0.2281  1.8050
  156SAPE   C3917446   1.585  -0.132   9.176  0.6642  0.2046  0.5905
  156SAPE   H9X17447   1.587  -0.235   9.135 -0.7958 -0.1887  1.4468
  156SAPE   H9Y17448   1.688  -0.128   9.218  0.6617 -3.4022  1.2121
  156SAPE  C31017449   1.563  -0.026   9.064  0.2052 -0.6917  0.3434
  156SAPE  H10X17450   1.598   0.072   9.102 -0.5275  0.5354 -1.9999
  156SAPE  H10Y17451   1.453  -0.037   9.050 -0.0014 -3.3923  2.9329
  156SAPE  C31117452   1.635  -0.041   8.931 -0.1908  0.4605 -0.4126
  156SAPE  H11X17453   1.645  -0.151   8.918 -4.1923 -0.0682 -0.4182
  156SAPE  H11Y17454   1.734   0.009   8.926  0.4004 -0.7936 -2.2843
  156SAPE  C31217455   1.562   0.012   8.810 -0.4992  0.0389  0.3283
  156SAPE  H12X17456   1.560   0.122   8.828 -1.8961  0.0125  0.4377
  156SAPE  H12Y17457   1.458  -0.025   8.808 -0.8929  0.9136  2.3483
  156SAPE  C31317458   1.635  -0.016   8.673  0.1029  0.1809  0.4150
  156SAPE  H13X17459   1.621  -0.122   8.643 -0.0281  0.0951  0.7758
  156SAPE  H13Y17460   1.744   0.004   8.683 -0.2837  2.5771  0.2768
  156SAPE  C31417461   1.581   0.073   8.559 -0.1085  0.2054  0.4486
  156SAPE  H14X17462   1.643   0.063   8.467  1.2227  0.7906  1.2492
  156SAPE  H14Y17463   1.588   0.180   8.586 -0.1209 -0.0312  1.4044
  156SAPE  C31517464   1.436   0.040   8.527 -0.1637 -0.3387  0.1573
  156SAPE  H15X17465   1.365   0.061   8.610 -0.0612 -0.3689  0.2517
  156SAPE  H15Y17466   1.448  -0.065   8.491 -0.4958  0.0743 -1.2250
  156SAPE  C31617467   1.381   0.113   8.407  0.3788 -0.1507 -0.4784
  156SAPE  H16X17468   1.443   0.099   8.316 -0.6426 -1.5017 -0.9997
  156SAPE  H16Y17469   1.375   0.222   8.428  0.7341 -0.3632  0.8333
  156SAPE  C31717470   1.243   0.079   8.375 -0.2516  0.5999 -0.0412
  156SAPE  H17X17471   1.178   0.077   8.465  0.4108 -0.5504  0.4337
  156SAPE  H17Y17472   1.235  -0.017   8.319 -2.0395 -0.1690  1.4287
  156SAPE  C31817473   1.162   0.174   8.286  0.1993 -0.6437  1.1330
  156SAPE  H18X17474   1.061   0.133   8.265  0.9853 -1.5082 -1.4960
  156SAPE  H18Y17475   1.211   0.193   8.188  0.1308  1.5801  1.4866
  156SAPE  H18Z17476   1.158   0.274   8.333 -0.0613 -1.3430  2.6266
  157SAPE     N17477   2.399   5.947  10.577  0.2782 -0.5495  0.1952
  157SAPE   HN117478   2.337   6.017  10.623  2.5868  1.5916  0.2633
  157SAPE   HN217479   2.353   5.856  10.557  0.3815 -0.2259 -1.6502
  157SAPE   HN317480   2.475   5.951  10.648  0.2398  1.7166  0.1800
  157SAPE   C1217481   2.461   5.996  10.448  0.1692  0.5029 -0.2897
  157SAPE  H12A17482   2.439   5.918  10.373 -0.7745  1.5390 -1.1294
  157SAPE  H12B17483   2.565   6.022  10.476 -0.6647  0.4142  3.4947
  157SAPE   C1117484   2.381   6.121  10.412  0.4957 -0.6565  0.4043
  157SAPE  H11A17485   2.272   6.098  10.408  0.1777  0.6466  0.8873
  157SAPE  H11B17486   2.403   6.148  10.306 -0.4426  0.3388  0.4349
  157SAPE     P17487   2.283   6.280  10.598  0.0519 -0.2686 -0.0132
  157SAPE   O1317488   2.258   6.166  10.690 -0.3077 -0.0939  0.1938
  157SAPE   O1417489   2.323   6.406  10.667 -0.3606  0.8719 -0.1789
  157SAPE   O1217490   2.396   6.237  10.500 -0.2321  0.4867  0.0962
  157SAPE   O1117491   2.159   6.316  10.520  0.4675 -1.0771 -0.0860
  157SAPE    C117492   2.157   6.418  10.424  0.0743  0.6015  0.5667
  157SAPE    HA17493   2.115   6.511  10.467  0.7015  1.0913  0.1444
  157SAPE    HB17494   2.257   6.450  10.386  0.7604 -2.9231 -1.0090
  157SAPE    C217495   2.067   6.385  10.305 -0.4817 -0.4151 -0.3512
  157SAPE    HS17496   1.964   6.368  10.344  0.6613  0.2818  3.4116
  157SAPE   O2117497   2.130   6.263  10.247 -0.1498 -0.8358 -0.3084
  157SAPE   C2117498   2.042   6.194  10.181 -0.8370  0.2544 -0.6711
  157SAPE   O2217499   1.922   6.209  10.172  0.2709  0.1507 -0.2983
  157SAPE   C2217500   2.119   6.069  10.137  0.1341  0.5642  0.1270
  157SAPE   H2R17501   2.224   6.098  10.113  0.1733  1.5954  1.4374
  157SAPE   H2S17502   2.119   6.002  10.225  0.6438 -1.8180 -1.5710
  157SAPE    C317503   2.067   6.502  10.200  0.2745  0.1398  0.2770
  157SAPE    HX17504   2.172   6.518  10.169 -0.5372  0.6202 -2.5360
  157SAPE    HY17505   2.022   6.587  10.255  0.2343  0.5618 -0.3967
  157SAPE   O3117506   1.999   6.463  10.081  0.2398 -0.4129 -0.0720
  157SAPE   C3117507   1.871   6.486  10.088 -0.7814 -0.2443 -0.0642
  157SAPE   O3217508   1.812   6.537  10.178  0.5061  0.1590  0.3034
  157SAPE   C3217509   1.806   6.450   9.949  0.3408 -0.5418 -0.1321
  157SAPE   H2X17510   1.741   6.366   9.981 -1.9106  0.8840 -0.7965
  157SAPE   H2Y17511   1.892   6.419   9.886 -0.1767 -0.6277 -0.8043
  157SAPE   C2317512   2.042   5.991  10.030  0.8916  0.5407  0.8984
  157SAPE   H3R17513   1.942   5.960  10.067 -0.4255  1.2987 -1.7328
  157SAPE   H3S17514   2.089   5.899   9.987 -0.2609  0.9928 -1.5226
  157SAPE   C2417515   2.017   6.083   9.902  0.1778 -0.2744 -0.4803
  157SAPE   H4R17516   1.952   6.167   9.937  0.9320 -0.1069  0.5537
  157SAPE   H4S17517   1.954   6.026   9.829  0.9116 -0.0504 -1.3008
  157SAPE   C2517518   2.141   6.136   9.832  0.1214  0.1488 -0.0856
  157SAPE   H5R17519   2.197   6.202   9.899 -0.3067  0.3660  0.0605
  157SAPE   C2617520   2.183   6.120   9.703 -0.4099  0.4800  0.0943
  157SAPE   H6R17521   2.275   6.169   9.667 -0.8688  0.1244 -1.6514
  157SAPE   C2717522   2.115   6.037   9.597 -0.5684  0.2071 -0.3541
  157SAPE   H7R17523   2.030   5.974   9.632 -1.6109  0.4570 -2.3110
  157SAPE   H7S17524   2.183   5.960   9.555 -0.5270 -0.2639  0.5370
  157SAPE   C2817525   2.059   6.128   9.495 -0.7140 -0.6101  0.0719
  157SAPE   H8R17526   2.020   6.219   9.543 -1.3547 -1.3491  1.0037
  157SAPE   C2917527   2.069   6.118   9.360 -0.3998  0.2550  0.7153
  157SAPE   H9R17528   2.021   6.186   9.288 -1.3210 -1.3937 -0.2915
  157SAPE  C21017529   2.143   6.010   9.290  0.0794 -0.0212  0.3625
  157SAPE  H10R17530   2.228   5.977   9.354 -0.1615 -0.2556  0.5625
  157SAPE  H10S17531   2.185   6.051   9.195 -0.1339 -0.7402 -0.0505
  157SAPE  C21117532   2.060   5.887   9.246 -0.0183 -0.0100  0.2940
  157SAPE  H11R17533   1.974   5.858   9.308 -0.7356  0.4709 -0.4622
  157SAPE  C21217534   2.071   5.835   9.123  0.0774  0.2215 -0.0927
  157SAPE  H12R17535   1.998   5.756   9.097 -0.2487  0.9664 -1.5280
  157SAPE  C21317536   2.156   5.882   9.010  0.9790  0.2766  0.0783
  157SAPE  H13R17537   2.188   5.791   8.955 -3.0556 -1.4979  0.3229
  157SAPE  H13S17538   2.249   5.930   9.047  0.6465  0.5286  0.6002
  157SAPE  C21417539   2.083   5.971   8.915  0.1161 -0.0929  0.5241
  157SAPE  H14R17540   2.072   6.076   8.945  2.2089  0.7043 -1.2542
  157SAPE  C21517541   2.054   5.955   8.783  0.1453  0.4015 -0.2290
  157SAPE  H15R17542   2.002   6.039   8.734 -2.5933 -1.4193 -0.6704
  157SAPE  C21617543   2.074   5.842   8.688 -0.4151 -0.0122  0.3700
  157SAPE  H16R17544   1.978   5.790   8.670 -1.0705  1.8832 -2.0953
  157SAPE  H16S17545   2.154   5.771   8.719 -0.6293 -1.1532 -1.5671
  157SAPE  C21717546   2.110   5.908   8.555 -0.3818 -0.2158 -0.0379
  157SAPE  H17R17547   2.190   5.982   8.576  0.4374 -1.4182  1.3250
  157SAPE  H17S17548   2.029   5.974   8.520  0.0760  0.3457 -0.0536
  157SAPE  C21817549   2.156   5.811   8.450  0.4191 -0.4278 -0.1512
  157SAPE  H18R17550   2.070   5.744   8.426  0.2372 -0.6803  1.1182
  157SAPE  H18S17551   2.240   5.749   8.487  1.4155  0.6390 -0.5835
  157SAPE  C21917552   2.202   5.874   8.317  0.1876 -0.5653  0.3805
  157SAPE  H19R17553   2.303   5.916   8.333 -0.0287  0.2623 -0.3267
  157SAPE  H19S17554   2.147   5.967   8.294  1.1498 -0.6549 -2.7526
  157SAPE  C22017555   2.213   5.778   8.199  0.0222 -1.2881  0.3189
  157SAPE  H20R17556   2.299   5.709   8.210  0.6180 -0.4805  0.8848
  157SAPE  H20S17557   2.228   5.825   8.099  2.2406 -1.3194  0.5774
  157SAPE  H20T17558   2.121   5.716   8.193 -0.9424  0.0752  0.6120
  157SAPE   C3317559   1.751   6.570   9.885 -0.3177  0.3992  0.6799
  157SAPE   H3X17560   1.806   6.664   9.909  0.7494  0.0342 -0.2666
  157SAPE   H3Y17561   1.643   6.585   9.908 -1.0127  0.1328 -1.9996
  157SAPE   C3417562   1.764   6.563   9.725 -0.9377 -0.0917 -0.0034
  157SAPE   H4X17563   1.872   6.549   9.705 -0.3430  3.8750 -0.2177
  157SAPE   H4Y17564   1.729   6.663   9.692 -0.6894 -0.0233 -0.0604
  157SAPE   C3517565   1.685   6.449   9.665  0.4121 -0.2890  1.0666
  157SAPE   H5X17566   1.578   6.464   9.694 -0.4610 -1.1707 -1.4757
  157SAPE   H5Y17567   1.719   6.347   9.692  1.0443 -0.6818 -1.0311
  157SAPE   C3617568   1.686   6.465   9.510 -0.3012 -0.1589  0.5881
  157SAPE   H6X17569   1.693   6.573   9.484  0.6431 -0.5113 -0.7557
  157SAPE   H6Y17570   1.584   6.441   9.474 -0.0333 -0.1594 -0.2130
  157SAPE   C3717571   1.778   6.361   9.443 -0.5799 -0.4636 -0.3928
  157SAPE   H7X17572   1.747   6.258   9.472 -2.3766  0.2570  0.4054
  157SAPE   H7Y17573   1.876   6.382   9.492 -0.3780  1.9785 -1.7139
  157SAPE   C3817574   1.800   6.378   9.290 -0.3613 -0.4561 -0.5988
  157SAPE   H8X17575   1.902   6.339   9.271 -0.2416 -1.5394  1.7954
  157SAPE   H8Y17576   1.794   6.483   9.256 -0.0379 -0.2922 -0.1603
  157SAPE   C3917577   1.707   6.288   9.216 -0.6515 -0.2381 -0.0995
  157SAPE   H9X17578   1.609   6.305   9.266 -0.3841  0.6004  0.1681
  157SAPE   H9Y17579   1.726   6.181   9.239 -0.7097  0.1222  1.7227
  157SAPE  C31017580   1.691   6.310   9.064 -0.1664 -0.1195 -0.4319
  157SAPE  H10X17581   1.670   6.415   9.035  0.3300 -0.1866 -1.0714
  157SAPE  H10Y17582   1.610   6.255   9.012 -0.8857  1.1453 -0.6812
  157SAPE  C31117583   1.824   6.281   8.984 -0.0847 -0.0039 -0.1856
  157SAPE  H11X17584   1.870   6.189   9.025  0.9366 -0.0502 -1.3957
  157SAPE  H11Y17585   1.897   6.362   9.004  0.8005 -0.8124 -0.0897
  157SAPE  C31217586   1.819   6.289   8.836  0.0039 -0.4636  0.1121
  157SAPE  H12X17587   1.921   6.297   8.794 -0.7813  1.0948 -1.7012
  157SAPE  H12Y17588   1.774   6.385   8.803 -0.5684 -0.8787 -0.3460
  157SAPE  C31317589   1.741   6.174   8.773  0.3570  0.1468 -0.0687
  157SAPE  H13X17590   1.633   6.200   8.778  0.7230  1.8688 -0.5006
  157SAPE  H13Y17591   1.774   6.080   8.822  0.0382 -1.6688 -3.0701
  157SAPE  C31417592   1.759   6.140   8.622  0.1161  0.1971  0.1370
  157SAPE  H14X17593   1.867   6.120   8.608  0.3290  1.9639 -0.9662
  157SAPE  H14Y17594   1.730   6.229   8.563  0.1478  0.9947  1.2851
  157SAPE  C31517595   1.692   6.009   8.574 -0.3878  0.8212  0.3378
  157SAPE  H15X17596   1.746   5.921   8.614  0.5550  1.1582 -0.1657
  157SAPE  H15Y17597   1.706   6.005   8.464 -0.1996  2.3007  0.2878
  157SAPE  C31617598   1.548   5.994   8.618 -0.2698  0.2764 -0.5224
  157SAPE  H16X17599   1.500   6.095   8.620 -1.5467 -0.3298  0.7655
  157SAPE  H16Y17600   1.558   5.956   8.721 -1.1222 -1.9618 -1.2236
  157SAPE  C31717601   1.471   5.895   8.535 -0.3120  0.2487 -0.6232
  157SAPE  H17X17602   1.537   5.808   8.515  0.5421  1.1282 -1.7534
  157SAPE  H17Y17603   1.456   5.948   8.438  1.6132  0.5525 -0.7956
  157SAPE  C31817604   1.348   5.850   8.604  0.1997  0.1265  0.2519
  157SAPE  H18X17605   1.284   5.940   8.611 -0.3151 -0.0233 -1.8638
  157SAPE  H18Y17606   1.369   5.817   8.708 -0.1389 -0.3863  0.1616
  157SAPE  H18Z17607   1.307   5.773   8.536 -1.7686  0.6396  0.8082
  158SAPE     N17608   3.793   0.123  10.691  0.7740 -0.3067  0.0873
  158SAPE   HN117609   3.805   0.224  10.666 -1.5544 -0.3763 -1.6036
  158SAPE   HN217610   3.693   0.097  10.686 -0.2602  3.3966 -2.4293
  158SAPE   HN317611   3.834   0.091  10.781  1.0414  0.3973  0.2231
  158SAPE   C1217612   3.853   0.032  10.585  0.3779 -0.5222  0.4445
  158SAPE  H12A17613   3.811   0.064  10.487  1.3904  1.3661  0.5746
  158SAPE  H12B17614   3.811  -0.063  10.623 -0.2219  1.2377  4.8298
  158SAPE   C1117615   4.006   0.028  10.596  0.8055 -0.3360 -0.9125
  158SAPE  H11A17616   4.054   0.109  10.536  0.7687  0.0018 -0.4921
  158SAPE  H11B17617   4.035  -0.063  10.540  2.7676 -0.1592 -0.2589
  158SAPE     P17618   4.199   0.092  10.773  0.0465 -0.3287  0.0609
  158SAPE   O1317619   4.158   0.208  10.860 -0.1925 -0.6130 -0.5223
  158SAPE   O1417620   4.297  -0.009  10.827 -0.3869 -0.5421  0.4201
  158SAPE   O1217621   4.063   0.023  10.732 -0.5029 -0.1826 -0.2822
  158SAPE   O1117622   4.256   0.150  10.640 -0.3642  0.5939  0.1519
  158SAPE    C117623   4.397   0.178  10.618 -0.0147 -0.5739  0.4367
  158SAPE    HA17624   4.414   0.288  10.617  3.1159 -0.9465  0.6819
  158SAPE    HB17625   4.450   0.133  10.705  0.7502 -0.3656  0.0845
  158SAPE    C217626   4.458   0.118  10.486  0.1158  0.4895 -0.7968
  158SAPE    HS17627   4.558   0.159  10.463 -0.6598  1.8632 -1.8640
  158SAPE   O2117628   4.384   0.160  10.373  0.3612  0.1573  0.4123
  158SAPE   C2117629   4.386   0.283  10.341 -0.1578  0.2572 -0.6662
  158SAPE   O2217630   4.448   0.373  10.399 -0.1536  0.4682  0.2299
  158SAPE   C2217631   4.292   0.302  10.227 -0.1729 -0.5296 -0.2711
  158SAPE   H2R17632   4.191   0.311  10.273  0.4696  1.4859  0.8580
  158SAPE   H2S17633   4.298   0.399  10.173 -1.1218  0.2392  0.9521
  158SAPE    C317634   4.467  -0.036  10.496 -0.2014 -0.4028 -0.0755
  158SAPE    HX17635   4.369  -0.072  10.533 -0.6979  1.7611  0.8355
  158SAPE    HY17636   4.547  -0.075  10.562 -0.8044 -1.9015 -0.1997
  158SAPE   O3117637   4.511  -0.095  10.368 -0.2059 -0.2451 -0.7655
  158SAPE   C3117638   4.444  -0.204  10.333 -0.1160  0.3630 -0.0560
  158SAPE   O3217639   4.368  -0.264  10.406 -0.1079 -0.0580  0.3846
  158SAPE   C3217640   4.500  -0.251  10.201  0.0575 -0.0623 -0.4126
  158SAPE   H2X17641   4.563  -0.341  10.218 -0.5286 -0.5260 -0.6958
  158SAPE   H2Y17642   4.560  -0.167  10.158 -1.3674  1.4284  0.3865
  158SAPE   C2317643   4.301   0.180  10.123 -0.4801 -0.6395  0.4481
  158SAPE   H3R17644   4.211   0.171  10.060 -0.3851 -2.8568  0.5575
  158SAPE   H3S17645   4.313   0.078  10.164 -1.3710 -0.6196  0.7823
  158SAPE   C2417646   4.420   0.205  10.020  0.0843  0.1055 -0.0228
  158SAPE   H4R17647   4.515   0.206  10.078  0.7502  1.2913 -1.0647
  158SAPE   H4S17648   4.411   0.288   9.946  0.1688  0.4938  0.3999
  158SAPE   C2517649   4.428   0.094   9.917  0.3607  0.6961  0.2996
  158SAPE   H5R17650   4.467   0.002   9.962  0.0282  0.8542  0.9326
  158SAPE   C2617651   4.387   0.084   9.788  0.4744  0.1223  0.1684
  158SAPE   H6R17652   4.397  -0.010   9.732 -1.5110 -1.5595  2.4173
  158SAPE   C2717653   4.311   0.181   9.702  0.0865  0.0018 -0.1452
  158SAPE   H7R17654   4.359   0.178   9.602  2.3994  0.7517  0.8461
  158SAPE   H7S17655   4.312   0.288   9.735 -1.1475 -0.3828  1.2486
  158SAPE   C2817656   4.170   0.136   9.696 -0.1590 -0.3293  0.4387
  158SAPE   H8R17657   4.134   0.091   9.789 -0.3924  2.3282  1.7158
  158SAPE   C2917658   4.079   0.158   9.600  0.2712  0.5112  0.1164
  158SAPE   H9R17659   3.979   0.113   9.609  0.8273 -1.0053 -0.9139
  158SAPE  C21017660   4.112   0.240   9.477 -0.5980 -0.2963  0.0440
  158SAPE  H10R17661   4.222   0.234   9.463 -0.8174 -1.1179 -1.4634
  158SAPE  H10S17662   4.090   0.347   9.498 -1.3590 -0.4761  0.1830
  158SAPE  C21117663   4.035   0.213   9.359 -0.1024 -0.4933  0.2135
  158SAPE  H11R17664   3.928   0.212   9.386 -0.3195  0.3122 -0.5840
  158SAPE  C21217665   4.076   0.180   9.234  0.4527 -0.3062 -0.6405
  158SAPE  H12R17666   4.003   0.171   9.153 -0.0672 -0.1514 -0.1943
  158SAPE  C21317667   4.219   0.179   9.196 -0.4459  1.2543  0.3607
  158SAPE  H13R17668   4.266   0.108   9.266 -1.8896 -0.4536 -0.3246
  158SAPE  H13S17669   4.255   0.280   9.226 -0.5594  1.1664  0.7888
  158SAPE  C21417670   4.273   0.147   9.056  0.1318 -0.5853  0.0761
  158SAPE  H14R17671   4.327   0.052   9.049 -0.0416 -0.9430  2.5737
  158SAPE  C21517672   4.251   0.227   8.951 -0.0425 -0.5211 -0.1560
  158SAPE  H15R17673   4.279   0.191   8.851 -1.2368 -0.6889 -0.4465
  158SAPE  C21617674   4.168   0.356   8.950  0.3058 -0.2025  0.0346
  158SAPE  H16R17675   4.228   0.447   8.932  1.1200 -0.2070  2.4446
  158SAPE  H16S17676   4.133   0.382   9.052  0.7664  1.1922 -0.1471
  158SAPE  C21717677   4.056   0.366   8.845 -0.6759 -0.2856 -0.1257
  158SAPE  H17R17678   3.985   0.281   8.854  0.3836 -1.3140 -1.0775
  158SAPE  H17S17679   4.107   0.358   8.746  0.4779  0.3842  0.3891
  158SAPE  C21817680   3.985   0.499   8.866 -0.1411  0.2421  0.0186
  158SAPE  H18R17681   4.058   0.581   8.848 -1.6867  1.7904  0.4285
  158SAPE  H18S17682   3.959   0.501   8.975  0.6259 -1.5170  0.2617
  158SAPE  C21917683   3.858   0.531   8.791 -0.1791 -0.3185 -0.8522
  158SAPE  H19R17684   3.822   0.630   8.825  2.7953  1.2028 -1.7704
  158SAPE  H19S17685   3.774   0.462   8.814 -1.2685  0.9369 -0.9524
  158SAPE  C22017686   3.874   0.537   8.638  0.6324  0.0062 -0.2188
  158SAPE  H20R17687   3.773   0.550   8.595 -0.0510  2.7710  1.9357
  158SAPE  H20S17688   3.923   0.445   8.600  0.7977 -0.1795  0.4368
  158SAPE  H20T17689   3.930   0.627   8.606  0.5995 -0.3256 -1.2382
  158SAPE   C3317690   4.397  -0.294  10.096 -0.1971  0.0989 -0.1847
  158SAPE   H3X17691   4.305  -0.232  10.094  1.2444  2.3237 -0.8401
  158SAPE   H3Y17692   4.370  -0.398  10.124  1.9700 -0.5668 -0.3729
  158SAPE   C3417693   4.459  -0.282   9.953 -0.5182 -0.1957 -0.7975
  158SAPE   H4X17694   4.544  -0.353   9.951  0.2126  0.6237  0.2997
  158SAPE   H4Y17695   4.502  -0.183   9.930 -1.5869  0.1479 -1.3657
  158SAPE   C3517696   4.351  -0.300   9.843  0.7862 -0.1045 -0.1443
  158SAPE   H5X17697   4.302  -0.201   9.834 -2.4258 -1.4697  0.7365
  158SAPE   H5Y17698   4.269  -0.365   9.880  0.1494  2.5492  3.6902
  158SAPE   C3617699   4.413  -0.336   9.702  1.0492 -0.7003 -0.5548
  158SAPE   H6X17700   4.434  -0.445   9.693 -0.4985 -1.2877  2.0654
  158SAPE   H6Y17701   4.504  -0.273   9.689  0.9541 -0.2817  0.6798
  158SAPE   C3717702   4.315  -0.313   9.587 -0.8755 -0.2873  0.0472
  158SAPE   H7X17703   4.268  -0.214   9.606  0.5999  0.5093 -0.3350
  158SAPE   H7Y17704   4.237  -0.390   9.570 -1.0681 -0.7348  2.5118
  158SAPE   C3817705   4.396  -0.296   9.447 -0.1881  0.2435 -0.4417
  158SAPE   H8X17706   4.456  -0.389   9.437 -0.4787 -0.1191  0.9516
  158SAPE   H8Y17707   4.451  -0.201   9.465  1.7431 -1.1012  1.2077
  158SAPE   C3917708   4.297  -0.288   9.330  0.1068 -0.0978 -0.3557
  158SAPE   H9X17709   4.263  -0.183   9.317 -0.7280 -0.4679 -1.2734
  158SAPE   H9Y17710   4.213  -0.351   9.366 -0.2160 -0.4276 -1.6628
  158SAPE  C31017711   4.360  -0.342   9.199 -0.4462  0.5581  0.3868
  158SAPE  H10X17712   4.272  -0.379   9.141  0.0304  0.2891 -0.1803
  158SAPE  H10Y17713   4.420  -0.434   9.217 -0.4607 -0.4236 -3.5671
  158SAPE  C31117714   4.445  -0.243   9.126  0.3003 -0.1481  0.5495
  158SAPE  H11X17715   4.530  -0.211   9.190 -0.8595  2.3044  0.9967
  158SAPE  H11Y17716   4.384  -0.155   9.098  1.4202  0.2941 -0.6134
  158SAPE  C31217717   4.494  -0.303   8.993 -0.2070 -0.2378  0.3301
  158SAPE  H12X17718   4.408  -0.337   8.931  1.0105 -0.4251 -1.3458
  158SAPE  H12Y17719   4.566  -0.385   9.012  0.1227 -0.2918 -1.0029
  158SAPE  C31317720   4.564  -0.198   8.908 -0.1019 -0.0775  0.4245
  158SAPE  H13X17721   4.655  -0.150   8.949  0.2902 -0.0574 -0.4657
  158SAPE  H13Y17722   4.497  -0.111   8.889  1.5092  0.9851 -0.6776
  158SAPE  C31417723   4.603  -0.258   8.766  0.2551  0.5597  0.2264
  158SAPE  H14X17724   4.501  -0.268   8.722  0.3693 -1.9795  0.4063
  158SAPE  H14Y17725   4.652  -0.358   8.762 -2.6061 -1.0365  1.2853
  158SAPE  C31517726   4.684  -0.160   8.681 -0.3875  0.0780  0.0545
  158SAPE  H15X17727   4.752  -0.107   8.751 -2.1085 -1.0088  2.6905
  158SAPE  H15Y17728   4.609  -0.085   8.648 -2.7476 -1.1718  2.2060
  158SAPE  C31617729   4.769  -0.225   8.564 -0.0715  0.1696  0.6169
  158SAPE  H16X17730   4.712  -0.245   8.471  1.1035  0.4121 -0.1701
  158SAPE  H16Y17731   4.795  -0.328   8.597  0.2358  0.8515  2.6678
  158SAPE  C31717732   4.892  -0.140   8.541  0.5349 -0.3049  0.7382
  158SAPE  H17X17733   4.966  -0.204   8.488  2.2367  0.2536  2.3048
  158SAPE  H17Y17734   4.948  -0.118   8.634 -1.1509 -1.9975  2.2078
  158SAPE  C31817735   4.848  -0.021   8.448 -0.9849 -0.6750 -0.6837
  158SAPE  H18X17736   4.751  -0.047   8.402 -0.1835 -0.6589 -2.4659
  158SAPE  H18Y17737   4.921   0.014   8.372  0.0845 -0.6853  0.3166
  158SAPE  H18Z17738   4.829   0.071   8.508 -1.2759 -0.2301 -1.4375
  159SAPE     N17739   2.768   3.358   6.513  0.4949  0.2489  0.7270
  159SAPE   HN117740   2.865   3.321   6.505 -0.2557 -1.3972 -1.4540
  159SAPE   HN217741   2.711   3.275   6.488  0.1833  1.2255 -2.1280
  159SAPE   HN317742   2.758   3.423   6.432 -1.7977 -1.0187 -0.0907
  159SAPE   C1217743   2.728   3.438   6.637 -0.0066  0.1549  0.1153
  159SAPE  H12A17744   2.733   3.365   6.721 -2.7602 -1.2128 -0.8197
  159SAPE  H12B17745   2.622   3.469   6.628  0.2682  1.8951  2.0844
  159SAPE   C1117746   2.811   3.567   6.668  0.9076 -0.3422  0.4501
  159SAPE  H11A17747   2.918   3.545   6.648  0.4418 -1.3782 -1.1211
  159SAPE  H11B17748   2.798   3.593   6.775  0.7240  0.4178  0.2462
  159SAPE     P17749   2.793   3.735   6.456  0.0604  0.2754 -0.3106
  159SAPE   O1317750   2.938   3.722   6.432 -0.2273 -0.1727  0.2847
  159SAPE   O1417751   2.703   3.666   6.359  0.9479 -0.7314 -0.1050
  159SAPE   O1217752   2.759   3.678   6.601 -0.2493  0.0106  0.2650
  159SAPE   O1117753   2.755   3.891   6.473  0.5337 -0.2813  0.5357
  159SAPE    C117754   2.720   3.946   6.606  0.0173 -0.2458 -0.1987
  159SAPE    HA17755   2.762   3.888   6.690 -1.2937  1.9932  2.1419
  159SAPE    HB17756   2.770   4.045   6.617 -1.4810  0.7601 -1.8645
  159SAPE    C217757   2.575   3.959   6.614  1.0657 -0.0529 -0.0708
  159SAPE    HS17758   2.535   3.855   6.609  0.6436  0.0928  0.2361
  159SAPE   O2117759   2.519   4.050   6.519  0.1778  0.0995 -0.0832
  159SAPE   C2117760   2.442   3.993   6.422  0.4595 -0.1552  0.4360
  159SAPE   O2217761   2.441   3.872   6.397  0.4069  0.2041 -0.3527
  159SAPE   C2217762   2.361   4.099   6.352 -0.2856 -0.1206  0.8603
  159SAPE   H2R17763   2.404   4.202   6.357  0.2386 -0.2119 -0.9442
  159SAPE   H2S17764   2.368   4.081   6.242 -5.5769  1.5089 -0.0158
  159SAPE    C317765   2.536   4.033   6.749 -0.6420  0.2354  0.2345
  159SAPE    HX17766   2.426   4.041   6.751 -0.8453 -1.1579 -2.0091
  159SAPE    HY17767   2.574   4.137   6.748 -2.2707  0.8857  1.6788
  159SAPE   O3117768   2.584   3.957   6.862 -0.3730 -0.1217 -0.6087
  159SAPE   C3117769   2.676   4.010   6.944 -0.3582  0.5906  0.5488
  159SAPE   O3217770   2.730   4.122   6.931  0.0044 -0.2299  0.2905
  159SAPE   C3217771   2.700   3.915   7.060  0.4905  0.3907  0.0645
  159SAPE   H2X17772   2.807   3.933   7.084  0.6087  1.0646 -0.9208
  159SAPE   H2Y17773   2.691   3.812   7.020 -2.2240  0.7585 -0.4221
  159SAPE   C2317774   2.216   4.088   6.393  0.0461  0.2414 -0.3187
  159SAPE   H3R17775   2.186   3.985   6.362  2.0789  0.4184 -3.2494
  159SAPE   H3S17776   2.155   4.151   6.325  2.3702  0.6731 -2.1304
  159SAPE   C2417777   2.190   4.121   6.538  0.5310  0.6339  0.3728
  159SAPE   H4R17778   2.242   4.219   6.548  1.8176 -0.1656  1.8930
  159SAPE   H4S17779   2.238   4.057   6.615 -1.5257 -0.3224  0.9018
  159SAPE   C2517780   2.044   4.144   6.570  0.0079 -0.5454 -0.0584
  159SAPE   H5R17781   1.979   4.085   6.503 -0.3834 -0.0792 -0.0865
  159SAPE   C2617782   1.990   4.219   6.664 -0.0831 -0.3475 -0.3567
  159SAPE   H6R17783   1.882   4.238   6.660 -0.0399 -0.2504 -1.3551
  159SAPE   C2717784   2.050   4.297   6.778 -0.1729  0.3252  0.3397
  159SAPE   H7R17785   2.156   4.316   6.751  0.2997  1.1528  2.5174
  159SAPE   H7S17786   2.046   4.238   6.872  2.2339  0.6254  0.7171
  159SAPE   C2817787   1.971   4.419   6.801  0.6505  0.6363  0.0963
  159SAPE   H8R17788   1.972   4.493   6.720 -2.2290  2.3567  1.4822
  159SAPE   C2917789   1.900   4.447   6.909  0.0943 -0.2176 -0.0095
  159SAPE   H9R17790   1.849   4.545   6.910  1.1517  0.3643 -0.6643
  159SAPE  C21017791   1.902   4.374   7.044  0.8664 -0.4898  0.6373
  159SAPE  H10R17792   1.970   4.416   7.121  1.0948 -0.4338  0.4067
  159SAPE  H10S17793   1.927   4.266   7.037 -1.7528 -1.1428  0.2552
  159SAPE  C21117794   1.756   4.382   7.092 -0.2465  0.5467 -0.1081
  159SAPE  H11R17795   1.679   4.427   7.028  0.4957  0.9346 -0.7333
  159SAPE  C21217796   1.711   4.315   7.201 -0.3184  0.1523  0.5076
  159SAPE  H12R17797   1.607   4.332   7.233 -0.8552 -0.8157 -0.6321
  159SAPE  C21317798   1.800   4.231   7.291  0.3566  0.4412 -1.1160
  159SAPE  H13R17799   1.875   4.181   7.225  1.3556  1.7783 -1.0438
  159SAPE  H13S17800   1.738   4.148   7.331  1.2153  0.8487  1.2319
  159SAPE  C21417801   1.863   4.297   7.408  0.0204  0.9063  0.5053
  159SAPE  H14R17802   1.962   4.340   7.387  1.1271 -1.7113 -0.0738
  159SAPE  C21517803   1.802   4.310   7.526  0.3316  0.4906 -0.5663
  159SAPE  H15R17804   1.851   4.372   7.602 -1.0679  1.0532 -0.0825
  159SAPE  C21617805   1.668   4.254   7.570 -0.8804  0.9766  0.5966
  159SAPE  H16R17806   1.635   4.166   7.511  0.2252 -0.3293  1.8410
  159SAPE  H16S17807   1.589   4.333   7.574 -2.7596 -0.7022 -1.0557
  159SAPE  C21717808   1.696   4.211   7.718  0.0135  0.4239 -0.8358
  159SAPE  H17R17809   1.596   4.194   7.762  1.2504 -0.3000  1.9002
  159SAPE  H17S17810   1.735   4.287   7.790 -1.1317  0.4518 -0.2252
  159SAPE  C21817811   1.785   4.088   7.738 -0.0984  0.5500  0.0218
  159SAPE  H18R17812   1.892   4.108   7.718  0.0964 -0.2329  0.2691
  159SAPE  H18S17813   1.744   4.012   7.668  0.4265 -0.1347  0.4463
  159SAPE  C21917814   1.783   4.030   7.885  0.1804 -0.3866  0.3628
  159SAPE  H19R17815   1.677   4.004   7.903 -0.0803  1.0001  0.9908
  159SAPE  H19S17816   1.804   4.113   7.956 -1.2732 -0.7376  1.2479
  159SAPE  C22017817   1.876   3.912   7.920 -0.1930  0.1376 -0.2554
  159SAPE  H20R17818   1.836   3.823   7.865  0.3102 -1.6386  2.0917
  159SAPE  H20S17819   1.883   3.893   8.029 -2.6280 -0.7293 -0.1888
  159SAPE  H20T17820   1.975   3.932   7.875  0.6744 -2.0132  0.5366
  159SAPE   C3317821   2.621   3.941   7.180  0.2069 -0.0840 -1.1797
  159SAPE   H3X17822   2.512   3.942   7.160  0.0222 -3.9402 -1.1111
  159SAPE   H3Y17823   2.661   4.034   7.226 -0.6145  0.0895 -0.7908
  159SAPE   C3417824   2.639   3.840   7.299 -0.2239 -0.0700  0.2660
  159SAPE   H4X17825   2.748   3.836   7.317 -0.3387 -1.2663  0.7711
  159SAPE   H4Y17826   2.598   3.739   7.280  0.3037 -0.0998 -0.7227
  159SAPE   C3517827   2.559   3.895   7.420  0.4228 -0.6918 -0.5029
  159SAPE   H5X17828   2.459   3.847   7.420 -0.1778  0.5079  0.4757
  159SAPE   H5Y17829   2.561   4.006   7.423  0.4368 -0.7203  1.2415
  159SAPE   C3617830   2.625   3.851   7.553 -0.0854 -0.3512 -1.4902
  159SAPE   H6X17831   2.732   3.880   7.549  0.2917 -1.7618 -2.4458
  159SAPE   H6Y17832   2.631   3.740   7.550  4.5012 -0.2973 -1.4543
  159SAPE   C3717833   2.546   3.896   7.687 -0.1250 -0.2169  0.1283
  159SAPE   H7X17834   2.440   3.866   7.674 -0.3555  1.7716 -4.1370
  159SAPE   H7Y17835   2.558   4.006   7.680  0.4656 -0.3370 -0.9989
  159SAPE   C3817836   2.619   3.840   7.808 -0.0879 -0.1586  0.3438
  159SAPE   H8X17837   2.728   3.845   7.788 -0.1543 -0.3129 -0.0684
  159SAPE   H8Y17838   2.591   3.733   7.812 -1.3872  0.1664  0.6558
  159SAPE   C3917839   2.598   3.928   7.930  0.1423 -0.1764 -0.3514
  159SAPE   H9X17840   2.655   4.022   7.916 -2.5501  1.3869 -1.7125
  159SAPE   H9Y17841   2.658   3.889   8.014 -0.7862 -1.5067 -0.2687
  159SAPE  C31017842   2.459   3.954   7.997  0.2162 -0.4170  0.9403
  159SAPE  H10X17843   2.413   3.859   8.033  0.5206 -1.2984 -0.8593
  159SAPE  H10Y17844   2.390   3.983   7.914  1.0915 -1.2923 -0.1323
  159SAPE  C31117845   2.465   4.056   8.120  0.3252  0.2922  0.5299
  159SAPE  H11X17846   2.508   4.153   8.089  2.2570 -0.0937  1.8281
  159SAPE  H11Y17847   2.536   4.015   8.194 -0.3141  0.8910  1.4933
  159SAPE  C31217848   2.329   4.087   8.191  0.2809 -0.1459  0.4359
  159SAPE  H12X17849   2.268   4.159   8.134 -1.8358 -2.0578  0.1751
  159SAPE  H12Y17850   2.360   4.151   8.277  1.1617 -0.9369  0.7281
  159SAPE  C31317851   2.262   3.957   8.245  0.3592  0.4324  0.4698
  159SAPE  H13X17852   2.346   3.889   8.270  1.8781  1.6757 -1.0120
  159SAPE  H13Y17853   2.208   3.911   8.160  1.9660 -1.8100  0.5748
  159SAPE  C31417854   2.165   3.980   8.363  0.0448  0.0327 -0.1253
  159SAPE  H14X17855   2.084   4.052   8.339  0.0267 -0.0531 -0.3244
  159SAPE  H14Y17856   2.222   4.039   8.439  0.8004  0.0138 -0.6640
  159SAPE  C31517857   2.123   3.841   8.420  0.5745 -0.1446  0.9490
  159SAPE  H15X17858   2.076   3.878   8.514  1.7350 -0.2407  1.5857
  159SAPE  H15Y17859   2.208   3.778   8.452  1.4869  1.5528  2.0356
  159SAPE  C31617860   2.031   3.756   8.330  0.4099 -0.2767 -0.6495
  159SAPE  H16X17861   2.088   3.699   8.254  0.3098  0.4262 -1.2662
  159SAPE  H16Y17862   1.962   3.813   8.264  1.0652  0.9055 -0.3497
  159SAPE  C31717863   1.945   3.642   8.404  0.1363 -0.6381  0.2207
  159SAPE  H17X17864   1.884   3.589   8.329  1.3161 -2.3871  0.4343
  159SAPE  H17Y17865   1.870   3.685   8.473  1.3820  3.4805 -0.6829
  159SAPE  C31817866   2.028   3.533   8.478  0.4115  0.0394  0.3579
  159SAPE  H18X17867   2.077   3.576   8.568  1.8559  1.0186 -0.8670
  159SAPE  H18Y17868   2.104   3.483   8.415 -1.0233 -3.4771  1.1674
  159SAPE  H18Z17869   1.966   3.447   8.510  2.5117 -1.8411 -0.3886
  160SAPE     N17870   6.779   5.267   6.473 -0.2542  0.4900 -1.1262
  160SAPE   HN117871   6.689   5.307   6.439 -0.5917 -0.3052 -1.1972
  160SAPE   HN217872   6.786   5.300   6.571  1.5710 -0.2241 -0.9838
  160SAPE   HN317873   6.854   5.299   6.410  0.3751 -1.4216 -1.4308
  160SAPE   C1217874   6.763   5.116   6.480  0.2652  0.2801 -0.0331
  160SAPE  H12A17875   6.854   5.068   6.522 -0.2893 -0.3117  0.4992
  160SAPE  H12B17876   6.745   5.084   6.375  0.4107 -1.7348  0.5230
  160SAPE   C1117877   6.645   5.062   6.564 -0.3634  0.1219 -0.2923
  160SAPE  H11A17878   6.669   5.077   6.671  1.9606  0.2246 -0.7763
  160SAPE  H11B17879   6.644   4.953   6.543 -2.4734 -0.4957  2.3931
  160SAPE     P17880   6.460   5.239   6.622  0.0951 -0.1836 -0.1283
  160SAPE   O1317881   6.557   5.349   6.607 -0.2316  0.3316 -1.5549
  160SAPE   O1417882   6.330   5.276   6.565  0.0302 -0.0096  0.4719
  160SAPE   O1217883   6.519   5.127   6.533  0.4628 -0.1762  0.2190
  160SAPE   O1117884   6.457   5.175   6.767  0.0366  0.1547 -0.4526
  160SAPE    C117885   6.391   5.046   6.796 -0.2565  0.0738  0.3994
  160SAPE    HA17886   6.333   5.008   6.709 -0.4066  4.3514 -1.6285
  160SAPE    HB17887   6.469   4.972   6.824 -1.3292 -1.3418 -0.2058
  160SAPE    C217888   6.305   5.050   6.921 -0.4444  0.5257 -0.3717
  160SAPE    HS17889   6.251   4.954   6.932 -0.0092  0.3087 -0.1232
  160SAPE   O2117890   6.216   5.159   6.918  0.0920 -0.3034 -0.1734
  160SAPE   C2117891   6.134   5.171   6.818  0.8419  0.2701  0.5490
  160SAPE   O2217892   6.100   5.083   6.740  0.4290 -0.2890 -0.0368
  160SAPE   C2217893   6.076   5.308   6.819 -0.1573 -0.9294 -0.0016
  160SAPE   H2R17894   6.155   5.385   6.807 -1.4491  0.8847  2.2904
  160SAPE   H2S17895   6.015   5.301   6.726  0.8584 -1.3461 -0.6487
  160SAPE    C317896   6.403   5.083   7.038  0.2174  0.1119  0.4176
  160SAPE    HX17897   6.485   5.150   7.004 -2.9556  3.8446 -0.6792
  160SAPE    HY17898   6.441   4.981   7.062 -0.7404 -1.0194 -2.5036
  160SAPE   O3117899   6.340   5.133   7.158 -0.7307 -0.1858  0.4757
  160SAPE   C3117900   6.358   5.256   7.188  0.9681 -0.5994 -0.4533
  160SAPE   O3217901   6.417   5.337   7.120 -0.0656  0.1295  0.3268
  160SAPE   C3217902   6.293   5.290   7.328 -0.2589 -0.6151 -0.2330
  160SAPE   H2X17903   6.373   5.248   7.393  0.0941 -0.0512 -0.2938
  160SAPE   H2Y17904   6.193   5.244   7.328 -1.2072  1.3122 -0.9516
  160SAPE   C2317905   5.996   5.343   6.949 -0.3413 -0.4454  0.2061
  160SAPE   H3R17906   6.040   5.295   7.039  1.1175 -3.1822 -1.8255
  160SAPE   H3S17907   5.891   5.310   6.932 -0.4768  0.1103 -0.0790
  160SAPE   C2417908   5.993   5.494   6.966  0.0693 -0.4473  0.0534
  160SAPE   H4R17909   6.093   5.538   6.985  0.3802 -0.1410 -1.9981
  160SAPE   H4S17910   5.944   5.512   7.064  1.3801  0.0379  0.6466
  160SAPE   C2517911   5.921   5.571   6.851 -0.2176 -0.5466  0.0142
  160SAPE   H5R17912   5.890   5.517   6.760  1.4976  1.6935 -2.0431
  160SAPE   C2617913   5.875   5.701   6.844 -0.0738 -0.1722  0.0389
  160SAPE   H6R17914   5.831   5.751   6.757 -2.5910 -0.2065  1.2048
  160SAPE   C2717915   5.885   5.796   6.964 -0.0463 -0.3215  0.0006
  160SAPE   H7R17916   5.827   5.758   7.050  1.7283  0.7033  1.7258
  160SAPE   H7S17917   5.828   5.888   6.942 -0.5370 -0.8234 -0.9105
  160SAPE   C2817918   6.023   5.829   7.027 -0.1278  0.1301  0.1562
  160SAPE   H8R17919   6.108   5.763   7.004 -0.7516  0.4645 -3.6147
  160SAPE   C2917920   6.048   5.934   7.104 -0.5400  0.3699  0.1249
  160SAPE   H9R17921   6.145   5.944   7.156 -0.6333 -2.1681  0.9222
  160SAPE  C21017922   5.953   6.041   7.156  0.0566  0.5240  0.1080
  160SAPE  H10R17923   5.849   6.013   7.129  1.6009 -4.6225 -1.7926
  160SAPE  H10S17924   5.975   6.135   7.100  0.2215  0.3066 -0.1974
  160SAPE  C21117925   5.968   6.049   7.307  0.2037 -0.8223  0.6082
  160SAPE  H11R17926   5.937   5.954   7.354 -0.2291 -1.4097 -0.8139
  160SAPE  C21217927   5.987   6.165   7.375 -0.0546  0.0800  0.3271
  160SAPE  H12R17928   5.985   6.167   7.485 -1.3150  3.8616  0.4049
  160SAPE  C21317929   6.011   6.301   7.316 -0.3053 -0.5739  0.3233
  160SAPE  H13R17930   5.980   6.305   7.210 -0.5613  3.3304  0.3819
  160SAPE  H13S17931   6.119   6.326   7.316 -0.6249  1.1138 -1.8791
  160SAPE  C21417932   5.936   6.404   7.399  0.0928 -0.3098  0.3548
  160SAPE  H14R17933   5.832   6.383   7.429 -0.4765  0.4906 -0.9470
  160SAPE  C21517934   5.973   6.531   7.439 -0.3274 -0.1046  0.0799
  160SAPE  H15R17935   5.910   6.608   7.486  1.6645  1.5914  0.1104
  160SAPE  C21617936   6.108   6.593   7.405  0.4698 -0.2345 -0.5041
  160SAPE  H16R17937   6.182   6.510   7.399 -0.6770 -1.1922 -2.6979
  160SAPE  H16S17938   6.130   6.662   7.490 -0.8501  0.1518 -0.4640
  160SAPE  C21717939   6.110   6.693   7.281 -0.5047  0.2364 -0.5244
  160SAPE  H17R17940   6.212   6.735   7.267 -0.3890 -0.0274 -0.4779
  160SAPE  H17S17941   6.048   6.783   7.301  0.3383  0.6916  0.0866
  160SAPE  C21817942   6.065   6.614   7.159 -0.3395  0.3642 -1.2331
  160SAPE  H18R17943   5.954   6.612   7.161 -0.4031  2.1885  0.3524
  160SAPE  H18S17944   6.093   6.508   7.177 -2.4515  0.1576  1.6041
  160SAPE  C21917945   6.129   6.658   7.029  0.0798  0.4632 -0.0956
  160SAPE  H19R17946   6.094   6.600   6.940  1.2591  0.0117 -0.2848
  160SAPE  H19S17947   6.236   6.635   7.045  0.2931  0.1665 -1.7612
  160SAPE  C22017948   6.129   6.808   7.003 -0.1597  0.2436  0.0054
  160SAPE  H20R17949   6.217   6.840   6.944 -0.9310  4.4015  0.8095
  160SAPE  H20S17950   6.137   6.860   7.101 -3.7083 -0.9458  1.0835
  160SAPE  H20T17951   6.041   6.842   6.945 -1.5255 -1.5911  0.8888
  160SAPE   C3317952   6.274   5.441   7.346  0.6281 -0.9397 -0.4058
  160SAPE   H3X17953   6.370   5.494   7.334 -0.5803  1.6256  0.4616
  160SAPE   H3Y17954   6.249   5.459   7.453  1.2693  1.3103 -0.5809
  160SAPE   C3417955   6.169   5.504   7.255 -0.1923 -0.3726  1.1792
  160SAPE   H4X17956   6.095   5.425   7.229 -0.7218  0.3796  0.3513
  160SAPE   H4Y17957   6.213   5.535   7.159 -0.4908 -1.3454  0.7121
  160SAPE   C3517958   6.080   5.609   7.325 -0.0993  0.5095  0.4753
  160SAPE   H5X17959   6.037   5.677   7.249  0.8027 -0.4733 -0.9493
  160SAPE   H5Y17960   6.151   5.663   7.392  1.2481 -0.9813  0.3100
  160SAPE   C3617961   5.983   5.543   7.423  0.0595  0.4697  0.9491
  160SAPE   H6X17962   6.041   5.462   7.473 -0.4034 -0.9602 -0.7305
  160SAPE   H6Y17963   5.898   5.503   7.364 -0.0444 -0.2613  1.5707
  160SAPE   C3717964   5.932   5.635   7.534  0.1276 -0.1648  0.8960
  160SAPE   H7X17965   5.875   5.724   7.497  1.8991  0.9532  0.7627
  160SAPE   H7Y17966   6.022   5.675   7.585  1.3335  0.4681 -1.5772
  160SAPE   C3817967   5.838   5.556   7.629 -0.2284  0.5987 -0.0163
  160SAPE   H8X17968   5.881   5.461   7.665 -2.0862 -0.1162  0.4404
  160SAPE   H8Y17969   5.743   5.524   7.581  0.2027 -4.3330  1.9217
  160SAPE   C3917970   5.813   5.621   7.764 -0.4343 -0.2492  0.7371
  160SAPE   H9X17971   5.773   5.721   7.738  0.1655 -0.4998 -1.3224
  160SAPE   H9Y17972   5.909   5.643   7.814  0.6073 -2.0576 -0.3688
  160SAPE  C31017973   5.722   5.529   7.856 -0.2075 -0.2352  0.7833
  160SAPE  H10X17974   5.783   5.442   7.891  2.2370  0.9229 -0.3062
  160SAPE  H10Y17975   5.642   5.506   7.783 -0.1372  0.9518  0.3169
  160SAPE  C31117976   5.671   5.603   7.973  0.3715 -0.2834 -0.6338
  160SAPE  H11X17977   5.610   5.691   7.944 -0.2101 -0.6015 -0.4009
  160SAPE  H11Y17978   5.765   5.647   8.011  1.2641 -1.9237 -0.8564
  160SAPE  C31217979   5.603   5.520   8.082 -0.9160 -0.0224  0.3633
  160SAPE  H12X17980   5.680   5.458   8.134  1.4088  1.6970 -0.8145
  160SAPE  H12Y17981   5.521   5.454   8.046 -1.7796  1.7487 -1.0578
  160SAPE  C31317982   5.532   5.619   8.179 -0.3776  0.2343  0.0398
  160SAPE  H13X17983   5.454   5.679   8.129 -1.4545  0.0160  1.3780
  160SAPE  H13Y17984   5.609   5.693   8.210 -0.2557  1.0788 -2.1805
  160SAPE  C31417985   5.461   5.544   8.303  0.0335  0.2763  0.3848
  160SAPE  H14X17986   5.375   5.481   8.271  2.5500 -2.6467 -1.1221
  160SAPE  H14Y17987   5.421   5.628   8.364 -0.8815  1.8124 -2.1485
  160SAPE  C31517988   5.547   5.453   8.391  0.0202 -0.8718 -0.6187
  160SAPE  H15X17989   5.599   5.525   8.457 -0.4241 -2.5959  1.7360
  160SAPE  H15Y17990   5.624   5.405   8.327 -0.8519  0.2334 -2.6167
  160SAPE  C31617991   5.469   5.350   8.470  0.1938 -0.7855 -0.0622
  160SAPE  H16X17992   5.410   5.292   8.396 -0.3276 -2.1436  1.3496
  160SAPE  H16Y17993   5.396   5.382   8.548 -1.0530 -3.1231 -0.1935
  160SAPE  C31717994   5.562   5.247   8.542  0.8204  0.1725  0.1581
  160SAPE  H17X17995   5.613   5.183   8.467  2.7216  2.9364 -1.0869
  160SAPE  H17Y17996   5.511   5.186   8.620 -0.2272  0.1781 -0.4988
  160SAPE  C31817997   5.678   5.314   8.620 -0.4199  0.1792 -0.1352
  160SAPE  H18X17998   5.738   5.365   8.541 -1.8170  1.0117 -0.6942
  160SAPE  H18Y17999   5.744   5.252   8.684  2.0831  3.4556  0.7519
  160SAPE  H18Z18000   5.636   5.387   8.692 -0.9435 -0.8745  0.6664
  161SAPE     N18001   3.640   4.966   6.303  0.0743 -0.4448 -0.6006
  161SAPE   HN118002   3.700   4.991   6.384  0.4647  0.8863 -1.2678
  161SAPE   HN218003   3.568   5.039   6.285  0.0759 -0.7813 -2.0628
  161SAPE   HN318004   3.587   4.880   6.327 -0.5843  0.3395  0.9165
  161SAPE   C1218005   3.722   4.939   6.179 -0.0208 -0.1791  0.1088
  161SAPE  H12A18006   3.771   5.035   6.151  0.8811 -0.8730 -0.7584
  161SAPE  H12B18007   3.661   4.911   6.091  1.6825  1.4872 -1.7060
  161SAPE   C1118008   3.835   4.847   6.218  0.7986  0.5569  0.1279
  161SAPE  H11A18009   3.902   4.887   6.297 -1.1245  1.7883  1.1817
  161SAPE  H11B18010   3.903   4.829   6.131 -0.1040 -1.7787 -0.1681
  161SAPE     P18011   3.838   4.583   6.238  0.0408 -0.2256 -0.4353
  161SAPE   O1318012   3.735   4.528   6.146 -0.2463 -0.4524  0.4266
  161SAPE   O1418013   3.981   4.594   6.197  0.0733 -0.3616  0.3135
  161SAPE   O1218014   3.785   4.726   6.267  0.5872  1.0241 -0.7414
  161SAPE   O1118015   3.840   4.499   6.374  0.2215  0.6887 -0.6673
  161SAPE    C118016   3.757   4.543   6.482 -0.0864  0.6863 -0.0179
  161SAPE    HA18017   3.664   4.596   6.453  0.6658  2.4429  0.6696
  161SAPE    HB18018   3.728   4.459   6.548  3.0044  0.5626  1.3694
  161SAPE    C218019   3.829   4.636   6.586  0.0971  0.0806  0.8059
  161SAPE    HS18020   3.871   4.722   6.530 -1.3087  0.6857  0.6272
  161SAPE   O2118021   3.935   4.554   6.644  0.5256  0.2018 -0.1024
  161SAPE   C2118022   4.041   4.629   6.674  0.4187 -0.0908 -0.2390
  161SAPE   O2218023   4.062   4.740   6.642 -0.2887 -0.7532  0.0445
  161SAPE   C2218024   4.134   4.543   6.754 -0.2655  0.2580 -0.3754
  161SAPE   H2R18025   4.130   4.591   6.854  0.5947  1.9524 -1.1186
  161SAPE   H2S18026   4.087   4.443   6.764 -0.0235  0.2091  0.2922
  161SAPE    C318027   3.725   4.672   6.698 -0.0782  0.1946  0.4262
  161SAPE    HX18028   3.678   4.574   6.721  1.1719 -0.4213  0.4699
  161SAPE    HY18029   3.646   4.740   6.661  0.2352  0.1360 -0.3611
  161SAPE   O3118030   3.788   4.731   6.815  0.8452 -0.5539 -0.1554
  161SAPE   C3118031   3.781   4.658   6.924 -1.1553  0.1636 -0.5155
  161SAPE   O3218032   3.715   4.557   6.946  0.2911 -0.5372  0.3863
  161SAPE   C3218033   3.890   4.716   7.020 -0.3488  0.4493  0.1418
  161SAPE   H2X18034   3.851   4.810   7.067 -1.5469  0.0455 -0.0133
  161SAPE   H2Y18035   3.980   4.745   6.963 -0.6863 -0.0416 -0.6490
  161SAPE   C2318036   4.278   4.522   6.693  0.2744 -0.4108  0.4501
  161SAPE   H3R18037   4.322   4.616   6.655 -2.5418  0.8991  0.1343
  161SAPE   H3S18038   4.267   4.452   6.607 -0.9398  0.4426 -0.1124
  161SAPE   C2418039   4.377   4.458   6.792  0.1380  0.2193  0.4504
  161SAPE   H4R18040   4.470   4.426   6.740  1.7868  1.3002  2.5683
  161SAPE   H4S18041   4.332   4.370   6.844  2.0789 -0.9963  0.1856
  161SAPE   C2518042   4.437   4.559   6.892  0.0790  0.5916  0.4120
  161SAPE   H5R18043   4.512   4.626   6.849 -0.2526  0.6510 -0.0766
  161SAPE   C2618044   4.407   4.568   7.022 -0.9125 -0.1201 -0.4043
  161SAPE   H6R18045   4.449   4.654   7.076  1.1336 -0.2584 -1.6419
  161SAPE   C2718046   4.302   4.491   7.095 -0.2732 -0.1008  0.3484
  161SAPE   H7R18047   4.311   4.380   7.092 -1.1169 -0.1635 -0.4236
  161SAPE   H7S18048   4.203   4.509   7.048 -0.4887 -2.4400 -0.2418
  161SAPE   C2818049   4.272   4.535   7.235  0.0892  0.4571  0.5563
  161SAPE   H8R18050   4.265   4.643   7.255 -2.6454  0.7372 -1.3099
  161SAPE   C2918051   4.261   4.456   7.347 -0.2832  0.6414 -0.5916
  161SAPE   H9R18052   4.262   4.509   7.444 -1.2260 -0.6217  0.1393
  161SAPE  C21018053   4.276   4.310   7.364  0.0643 -0.2402 -0.0011
  161SAPE  H10R18054   4.324   4.262   7.275  2.5039 -0.1353  1.1734
  161SAPE  H10S18055   4.172   4.271   7.369  0.0885 -0.6183 -1.7852
  161SAPE  C21118056   4.353   4.273   7.495  0.3995  0.0475  1.1274
  161SAPE  H11R18057   4.453   4.234   7.471 -0.2212 -0.7184 -0.3309
  161SAPE  C21218058   4.312   4.283   7.624 -0.7169  0.1428  1.0537
  161SAPE  H12R18059   4.375   4.254   7.709  0.3958  0.5770  0.4050
  161SAPE  C21318060   4.183   4.331   7.673  0.1192 -0.2800  0.8018
  161SAPE  H13R18061   4.137   4.253   7.737 -2.4764  0.1376 -0.3995
  161SAPE  H13S18062   4.100   4.340   7.599  0.4728 -1.4212  0.2508
  161SAPE  C21418063   4.194   4.464   7.746 -0.4523 -1.0219 -0.4427
  161SAPE  H14R18064   4.236   4.542   7.681  2.7034 -3.9781 -2.3486
  161SAPE  C21518065   4.197   4.478   7.879  0.4643  0.3899 -0.2504
  161SAPE  H15R18066   4.201   4.582   7.915 -1.6124  0.2365  0.5836
  161SAPE  C21618067   4.188   4.379   7.993 -0.2338 -0.6474  0.6557
  161SAPE  H16R18068   4.290   4.345   8.021  0.7151  0.8880 -0.7898
  161SAPE  H16S18069   4.125   4.288   7.983 -1.8289  0.1298  2.8067
  161SAPE  C21718070   4.130   4.454   8.118 -0.4631 -0.6763  0.7634
  161SAPE  H17R18071   4.025   4.482   8.094 -0.0665  1.3152  1.1538
  161SAPE  H17S18072   4.182   4.550   8.137  1.1167 -1.4458  0.4480
  161SAPE  C21818073   4.154   4.373   8.249  0.0783  0.7244 -0.1821
  161SAPE  H18R18074   4.261   4.341   8.251  0.1120  0.6892 -1.4922
  161SAPE  H18S18075   4.091   4.281   8.244 -1.0432  1.3878  1.2033
  161SAPE  C21918076   4.125   4.454   8.373 -0.7720 -0.2072  0.3840
  161SAPE  H19R18077   4.037   4.519   8.354  0.3268  1.0462 -0.6406
  161SAPE  H19S18078   4.211   4.519   8.401 -1.8312  0.2118  3.0305
  161SAPE  C22018079   4.088   4.380   8.503  0.2373  0.3324  0.1994
  161SAPE  H20R18080   4.039   4.453   8.571  1.2524 -0.8248  2.2649
  161SAPE  H20S18081   4.176   4.332   8.550  0.4961  0.3244 -0.2876
  161SAPE  H20T18082   4.015   4.301   8.473  0.6255 -0.0450  0.2392
  161SAPE   C3318083   3.927   4.605   7.123 -0.5011 -0.0712 -0.0111
  161SAPE   H3X18084   4.015   4.646   7.178 -0.4640  2.7459 -1.9461
  161SAPE   H3Y18085   3.966   4.510   7.081  0.8117  0.3015  0.3286
  161SAPE   C3418086   3.827   4.577   7.232  0.3348  0.1865 -0.4973
  161SAPE   H4X18087   3.730   4.533   7.201 -0.6976  0.6777  1.8067
  161SAPE   H4Y18088   3.799   4.679   7.268  0.0664 -0.0449 -0.0398
  161SAPE   C3518089   3.878   4.509   7.358 -0.5172  0.4678  0.0523
  161SAPE   H5X18090   3.963   4.570   7.395 -0.3713  1.5933 -2.0192
  161SAPE   H5Y18091   3.927   4.419   7.317 -0.5200  1.4880 -2.3612
  161SAPE   C3618092   3.767   4.484   7.456 -0.3070 -0.0842 -0.2156
  161SAPE   H6X18093   3.699   4.409   7.410  0.0813 -0.3651 -0.3405
  161SAPE   H6Y18094   3.700   4.573   7.453 -0.7007 -0.3338  0.7969
  161SAPE   C3718095   3.800   4.442   7.598 -0.3851 -0.9006  0.3004
  161SAPE   H7X18096   3.900   4.484   7.621  0.2337 -1.2898 -1.5418
  161SAPE   H7Y18097   3.808   4.332   7.595 -0.9395 -0.9158 -1.5840
  161SAPE   C3818098   3.698   4.484   7.694 -0.9245  1.1415 -0.5401
  161SAPE   H8X18099   3.602   4.470   7.638 -1.0118 -0.4857 -0.0338
  161SAPE   H8Y18100   3.708   4.589   7.729 -1.0202  0.6161  1.1080
  161SAPE   C3918101   3.692   4.383   7.815  0.0233 -0.0394  0.0584
  161SAPE   H9X18102   3.660   4.281   7.783 -2.4774  0.2245  1.4585
  161SAPE   H9Y18103   3.604   4.413   7.876 -1.5297 -0.1068 -2.0084
  161SAPE  C31018104   3.818   4.379   7.908 -0.2716 -0.4490 -0.3129
  161SAPE  H10X18105   3.826   4.475   7.964  1.4430 -1.5622  1.4885
  161SAPE  H10Y18106   3.907   4.365   7.843 -0.7378 -0.5336 -0.9467
  161SAPE  C31118107   3.812   4.273   8.020  0.2918 -0.6667 -0.0894
  161SAPE  H11X18108   3.716   4.282   8.075  0.6672  1.7510  0.2808
  161SAPE  H11Y18109   3.887   4.306   8.095 -0.7515  0.9487  0.3006
  161SAPE  C31218110   3.846   4.133   7.968  0.6565 -0.2693 -0.1091
  161SAPE  H12X18111   3.950   4.135   7.927  1.4950  1.0742  1.9380
  161SAPE  H12Y18112   3.780   4.107   7.883  1.4290  0.4946 -0.9646
  161SAPE  C31318113   3.839   4.016   8.072  0.5447  0.2048 -0.5965
  161SAPE  H13X18114   3.858   3.916   8.027 -3.9809 -0.0914 -2.3528
  161SAPE  H13Y18115   3.732   4.007   8.098  0.5548  1.2806 -0.1217
  161SAPE  C31418116   3.917   4.047   8.200  0.2220 -0.7346  0.1449
  161SAPE  H14X18117   3.866   4.130   8.255 -0.8411 -0.9579 -0.4708
  161SAPE  H14Y18118   4.018   4.068   8.160  0.1554 -0.5117  0.0903
  161SAPE  C31518119   3.919   3.929   8.297 -0.6040 -0.1911 -0.2210
  161SAPE  H15X18120   3.993   3.854   8.260  0.1416  0.1226  0.6117
  161SAPE  H15Y18121   3.818   3.883   8.292 -1.2568  1.1270  0.4620
  161SAPE  C31618122   3.950   3.965   8.448  0.4702  0.0766 -0.3153
  161SAPE  H16X18123   3.926   3.874   8.508 -0.2333  0.2372 -0.3374
  161SAPE  H16Y18124   3.875   4.042   8.478 -0.4995 -0.3979 -1.4199
  161SAPE  C31718125   4.091   4.010   8.496  0.3014 -0.7361 -0.7197
  161SAPE  H17X18126   4.127   4.105   8.452  1.3194 -0.0504  1.4523
  161SAPE  H17Y18127   4.172   3.935   8.484  2.1547  1.1299 -0.2122
  161SAPE  C31818128   4.088   4.034   8.652 -0.0032 -0.4850 -0.1729
  161SAPE  H18X18129   4.193   4.025   8.688 -0.2439 -4.1745  0.0218
  161SAPE  H18Y18130   4.036   3.957   8.713 -0.9094  0.5081  0.3466
  161SAPE  H18Z18131   4.049   4.135   8.675 -1.2658 -0.9017 -0.3598
  162SAPE     N18132   2.182   6.811   6.170  0.3346 -0.1384 -0.0872
  162SAPE   HN118133   2.259   6.857   6.222  2.1085 -1.4892 -1.3925
  162SAPE   HN218134   2.223   6.730   6.119  0.2507 -0.3386  0.1594
  162SAPE   HN318135   2.166   6.885   6.098  2.7044  2.3438  1.7098
  162SAPE   C1218136   2.069   6.761   6.262 -0.1330  0.1392  0.2892
  162SAPE  H12A18137   2.116   6.679   6.320  0.5253 -0.2608 -0.7812
  162SAPE  H12B18138   1.979   6.716   6.214 -1.8843  1.0581  2.5089
  162SAPE   C1118139   2.014   6.866   6.366  0.1917  0.1150 -0.1241
  162SAPE  H11A18140   2.105   6.899   6.421  0.6601  0.4003 -1.0374
  162SAPE  H11B18141   1.943   6.809   6.430  0.0139 -0.2536 -0.6445
  162SAPE     P18142   1.813   6.969   6.233 -0.2240 -0.0001 -0.0066
  162SAPE   O1318143   1.739   7.097   6.239  0.5800 -0.0879  0.0127
  162SAPE   O1418144   1.853   6.913   6.102 -0.1348 -0.2321 -0.0855
  162SAPE   O1218145   1.945   6.979   6.312 -0.2558  0.0220 -0.0664
  162SAPE   O1118146   1.727   6.859   6.307 -0.1007  0.2729 -0.4583
  162SAPE    C118147   1.648   6.893   6.418 -0.4751  0.0758  0.2887
  162SAPE    HA18148   1.697   6.977   6.472 -0.1804 -0.9000  1.5552
  162SAPE    HB18149   1.543   6.922   6.394 -1.0376 -1.3609  0.9279
  162SAPE    C218150   1.631   6.778   6.516  0.1800 -0.4698 -0.7761
  162SAPE    HS18151   1.528   6.781   6.559  0.3150 -2.4355 -0.1869
  162SAPE   O2118152   1.747   6.759   6.606  0.2304 -0.7461  0.3996
  162SAPE   C2118153   1.727   6.838   6.722  0.2441  0.3078  0.3919
  162SAPE   O2218154   1.637   6.913   6.736 -0.0566  0.0702 -0.4467
  162SAPE   C2218155   1.852   6.818   6.806  0.2912  0.7140 -0.5031
  162SAPE   H2R18156   1.850   6.723   6.864 -0.8828  0.7360 -0.4846
  162SAPE   H2S18157   1.940   6.818   6.738  1.9745  2.5561  1.5360
  162SAPE    C318158   1.625   6.642   6.433  0.6673 -0.0034 -0.3807
  162SAPE    HX18159   1.727   6.637   6.390  1.5164  0.5670  1.4721
  162SAPE    HY18160   1.540   6.644   6.361  0.1717 -2.2898  0.0707
  162SAPE   O3118161   1.607   6.534   6.526 -0.3261 -0.2705  0.1143
  162SAPE   C3118162   1.491   6.506   6.564 -0.1384  0.4634  0.1004
  162SAPE   O3218163   1.388   6.569   6.535 -0.3337 -0.3341  0.1617
  162SAPE   C3218164   1.502   6.410   6.675 -0.2485  1.2580  0.2245
  162SAPE   H2X18165   1.577   6.448   6.747  1.4247 -0.2334 -0.6117
  162SAPE   H2Y18166   1.556   6.323   6.629  3.2704  3.1179  0.4970
  162SAPE   C2318167   1.866   6.933   6.899 -0.2927  0.6484 -1.3149
  162SAPE   H3R18168   1.845   7.033   6.854 -0.1376  0.6413 -1.4033
  162SAPE   H3S18169   1.972   6.939   6.932 -0.1656 -0.9375 -1.3756
  162SAPE   C2418170   1.787   6.905   7.031  0.7118 -0.1149 -1.1490
  162SAPE   H4R18171   1.808   6.798   7.053  1.4513  0.5947  2.1135
  162SAPE   H4S18172   1.678   6.916   7.019  0.8455  0.6776 -1.6825
  162SAPE   C2518173   1.839   6.998   7.138 -0.0910  0.0208 -0.2407
  162SAPE   H5R18174   1.786   7.093   7.149 -1.0600 -0.6133  0.7446
  162SAPE   C2618175   1.937   6.972   7.227 -0.4241  0.6550  0.5642
  162SAPE   H6R18176   1.936   7.047   7.307 -1.2186 -0.1857  1.3667
  162SAPE   C2718177   2.034   6.858   7.240  0.1742  0.1421 -0.1402
  162SAPE   H7R18178   2.112   6.881   7.164 -0.2387  1.7174 -0.1225
  162SAPE   H7S18179   1.989   6.760   7.215  1.3710 -0.4569 -0.0570
  162SAPE   C2818180   2.106   6.860   7.367  0.1283  0.8148  0.6965
  162SAPE   H8R18181   2.206   6.906   7.358 -0.0576  1.1468  0.3362
  162SAPE   C2918182   2.083   6.796   7.481  0.0058  0.3942  0.3708
  162SAPE   H9R18183   2.155   6.808   7.563 -0.0179 -3.5701  1.1734
  162SAPE  C21018184   1.950   6.721   7.516 -0.2116  0.1819  0.2553
  162SAPE  H10R18185   1.888   6.713   7.424  1.5369  0.7522 -1.0253
  162SAPE  H10S18186   1.897   6.778   7.595  0.7708 -1.7210  2.3801
  162SAPE  C21118187   1.980   6.579   7.554  0.6405 -0.0789  0.1850
  162SAPE  H11R18188   2.025   6.568   7.653  0.7687  2.7281  0.5198
  162SAPE  C21218189   1.955   6.467   7.480  0.2985  0.2626  0.4169
  162SAPE  H12R18190   1.997   6.372   7.515 -0.2202  0.1263  0.6779
  162SAPE  C21318191   1.893   6.467   7.339  0.2026  0.2761  0.0604
  162SAPE  H13R18192   1.819   6.548   7.324 -1.7962 -1.5796 -0.6369
  162SAPE  H13S18193   1.837   6.372   7.324  2.9081 -2.0638  3.2761
  162SAPE  C21418194   1.997   6.459   7.230  0.7269 -0.0262  0.6859
  162SAPE  H14R18195   2.099   6.437   7.265 -0.1290 -3.0475  1.5826
  162SAPE  C21518196   1.970   6.456   7.097 -1.2133 -0.4564 -0.2244
  162SAPE  H15R18197   2.051   6.433   7.026 -1.1030  0.6710 -0.4876
  162SAPE  C21618198   1.839   6.469   7.019 -0.2457 -0.5397  0.5512
  162SAPE  H16R18199   1.852   6.519   6.921 -5.7610  1.1545  0.3539
  162SAPE  H16S18200   1.773   6.532   7.083 -1.2949 -0.9692 -0.0969
  162SAPE  C21718201   1.771   6.334   7.012 -0.7043 -0.2297  1.5044
  162SAPE  H17R18202   1.668   6.352   6.974 -0.3004  0.6698  0.8094
  162SAPE  H17S18203   1.759   6.292   7.114 -1.3162  0.5807  1.7809
  162SAPE  C21818204   1.834   6.242   6.902 -0.7212 -0.1967 -0.5484
  162SAPE  H18R18205   1.931   6.202   6.938 -0.6838 -0.5372 -1.0164
  162SAPE  H18S18206   1.842   6.280   6.798  2.2515  1.9746  0.3198
  162SAPE  C21918207   1.738   6.121   6.902 -0.0803  0.1547  0.4661
  162SAPE  H19R18208   1.629   6.137   6.913  0.3783  2.9175  2.0699
  162SAPE  H19S18209   1.758   6.054   6.988 -2.2400 -0.8653  0.2239
  162SAPE  C22018210   1.763   6.036   6.779 -0.0884 -0.3501  0.0635
  162SAPE  H20R18211   1.853   5.978   6.808 -0.7646 -0.4885  2.0225
  162SAPE  H20S18212   1.781   6.085   6.681 -1.8695 -0.4823 -0.3708
  162SAPE  H20T18213   1.687   5.955   6.771  0.0183 -0.2410 -2.8990
  162SAPE   C3318214   1.365   6.370   6.737  0.0317 -0.9358  0.0590
  162SAPE   H3X18215   1.387   6.294   6.816  0.4250  0.7167  1.6074
  162SAPE   H3Y18216   1.295   6.327   6.662  0.2164  1.8395 -1.8267
  162SAPE   C3418217   1.289   6.485   6.814 -0.3506 -0.2192 -0.1523
  162SAPE   H4X18218   1.208   6.436   6.871  1.5294 -0.5289  2.3964
  162SAPE   H4Y18219   1.247   6.564   6.748 -0.8560  1.5817  2.2119
  162SAPE   C3518220   1.374   6.561   6.916  0.0779  0.1615  0.2360
  162SAPE   H5X18221   1.309   6.646   6.945 -1.2935 -1.0516  0.8607
  162SAPE   H5Y18222   1.467   6.609   6.879  0.9956 -1.4400  0.3723
  162SAPE   C3618223   1.399   6.481   7.044  0.2076 -0.1864 -0.0913
  162SAPE   H6X18224   1.465   6.396   7.015  0.8004  0.4342 -0.5847
  162SAPE   H6Y18225   1.303   6.432   7.072 -0.5697  1.1017 -0.4315
  162SAPE   C3718226   1.446   6.574   7.151  0.0195 -0.0771  0.4555
  162SAPE   H7X18227   1.361   6.646   7.162  0.1783  0.5083 -1.6910
  162SAPE   H7Y18228   1.534   6.628   7.111 -0.1819 -1.2655 -1.7079
  162SAPE   C3818229   1.460   6.505   7.286  0.1663  0.9695 -0.1795
  162SAPE   H8X18230   1.519   6.412   7.273 -0.7645  0.4714 -0.9531
  162SAPE   H8Y18231   1.363   6.469   7.327 -0.0822  1.5319 -0.2634
  162SAPE   C3918232   1.536   6.592   7.397 -0.2682 -0.6129 -0.6551
  162SAPE   H9X18233   1.482   6.689   7.404  0.9777 -0.0510  3.3055
  162SAPE   H9Y18234   1.640   6.615   7.365  0.1097  0.0840  0.9992
  162SAPE  C31018235   1.529   6.519   7.532 -0.6435  0.4214  0.4719
  162SAPE  H10X18236   1.557   6.414   7.509 -0.6400  0.7000 -0.9059
  162SAPE  H10Y18237   1.420   6.516   7.553 -0.9610  1.0954 -0.9181
  162SAPE  C31118238   1.612   6.584   7.644 -0.2809  0.3192  0.4999
  162SAPE  H11X18239   1.706   6.618   7.596 -0.1960  0.4964  0.7917
  162SAPE  H11Y18240   1.634   6.513   7.726 -0.6962 -2.6087 -1.7638
  162SAPE  C31218241   1.535   6.709   7.690 -0.0557  0.1329 -0.6903
  162SAPE  H12X18242   1.432   6.674   7.712  0.3527 -0.7473 -0.1413
  162SAPE  H12Y18243   1.535   6.790   7.613  1.0871  0.8568  0.0450
  162SAPE  C31318244   1.591   6.779   7.810 -0.7293 -0.1508 -0.1630
  162SAPE  H13X18245   1.534   6.872   7.828 -1.3033 -0.3619 -0.8284
  162SAPE  H13Y18246   1.691   6.819   7.783 -0.3656 -0.5285  0.6083
  162SAPE  C31418247   1.585   6.703   7.944 -0.2985  0.3833 -0.4532
  162SAPE  H14X18248   1.574   6.595   7.920 -0.4501  0.2669  0.1211
  162SAPE  H14Y18249   1.500   6.747   8.000  0.1315 -1.6445  1.9649
  162SAPE  C31518250   1.712   6.717   8.033  0.6135 -0.0758 -0.2931
  162SAPE  H15X18251   1.709   6.822   8.071 -0.0546 -0.3203  0.3743
  162SAPE  H15Y18252   1.808   6.699   7.981  1.5085 -1.2843  1.6979
  162SAPE  C31618253   1.710   6.624   8.152  0.1019 -0.0437 -0.2863
  162SAPE  H16X18254   1.811   6.636   8.198  0.2752 -0.0956 -0.6548
  162SAPE  H16Y18255   1.703   6.516   8.129 -0.4856  0.0869 -0.7189
  162SAPE  C31718256   1.596   6.641   8.256  0.1500 -0.8714  0.1266
  162SAPE  H17X18257   1.490   6.638   8.221  1.0830  2.3981 -3.6075
  162SAPE  H17Y18258   1.608   6.742   8.300  1.7997 -0.7140 -0.6461
  162SAPE  C31818259   1.633   6.543   8.368  0.3641  0.3423 -0.3436
  162SAPE  H18X18260   1.621   6.449   8.309  2.9315  0.9458 -1.9745
  162SAPE  H18Y18261   1.558   6.569   8.445  0.9410  0.4653  0.1817
  162SAPE  H18Z18262   1.734   6.548   8.413 -0.7189  0.1326  2.2559
  163SAPE     N18263   1.634   4.381   6.645  0.5030  0.1983 -0.1141
  163SAPE   HN118264   1.609   4.466   6.699 -0.8356 -0.3443  0.1502
  163SAPE   HN218265   1.636   4.290   6.695 -1.8137 -0.3512 -0.9119
  163SAPE   HN318266   1.726   4.401   6.599  1.1916 -1.9422  0.2259
  163SAPE   C1218267   1.526   4.374   6.543 -0.0638 -0.2379 -0.1709
  163SAPE  H12A18268   1.548   4.293   6.471 -1.8004  0.1365 -1.1730
  163SAPE  H12B18269   1.522   4.466   6.481  0.6736 -0.6542 -0.8430
  163SAPE   C1118270   1.381   4.349   6.598  0.1569 -0.2106  0.2512
  163SAPE  H11A18271   1.326   4.295   6.518 -0.2535  0.7482 -0.1277
  163SAPE  H11B18272   1.333   4.449   6.609  1.1606  0.3835 -0.6014
  163SAPE     P18273   1.298   4.150   6.735  0.3448 -0.2367  0.0059
  163SAPE   O1318274   1.194   4.147   6.633  0.1851 -0.4038 -0.2309
  163SAPE   O1418275   1.396   4.041   6.731 -0.1746 -0.7074 -0.2835
  163SAPE   O1218276   1.388   4.280   6.719 -0.1453 -0.7696 -0.1874
  163SAPE   O1118277   1.234   4.166   6.876  0.0549 -0.0166  0.0833
  163SAPE    C118278   1.170   4.284   6.927 -0.6257  0.1525 -0.0888
  163SAPE    HA18279   1.106   4.332   6.850 -2.1435  1.5076  1.9423
  163SAPE    HB18280   1.112   4.253   7.016 -1.8344  0.7963 -0.6329
  163SAPE    C218281   1.273   4.384   6.992  0.0201 -0.3707 -0.9180
  163SAPE    HS18282   1.367   4.366   6.934  0.1054  3.3262 -2.1665
  163SAPE   O2118283   1.285   4.363   7.130  0.0128 -0.0542  0.1394
  163SAPE   C2118284   1.336   4.245   7.165  0.7437  0.1563 -0.6600
  163SAPE   O2218285   1.397   4.166   7.100 -0.3933  0.1830 -0.3970
  163SAPE   C2218286   1.308   4.230   7.319 -0.0721  0.5461  0.0992
  163SAPE   H2R18287   1.367   4.300   7.383  0.8149 -0.6093  0.5692
  163SAPE   H2S18288   1.198   4.233   7.332 -0.3329  0.6556 -1.8431
  163SAPE    C318289   1.237   4.532   6.974 -0.2657  0.6976  0.5981
  163SAPE    HX18290   1.134   4.552   7.012 -1.0570  0.7311 -1.4315
  163SAPE    HY18291   1.221   4.546   6.865 -4.1932 -0.1257  0.8980
  163SAPE   O3118292   1.328   4.624   7.037 -0.6287 -0.3275 -0.3361
  163SAPE   C3118293   1.431   4.655   6.962 -0.2466  0.1610  0.3752
  163SAPE   O3218294   1.475   4.595   6.860  0.0290  0.2453 -0.6893
  163SAPE   C3218295   1.493   4.788   7.015 -0.1780  0.4135 -0.0947
  163SAPE   H2X18296   1.445   4.881   6.977 -0.0911 -0.0296 -1.3186
  163SAPE   H2Y18297   1.586   4.795   6.954 -0.5716 -1.6926 -1.0343
  163SAPE   C2318298   1.343   4.082   7.361  0.3297 -0.8907  1.2968
  163SAPE   H3R18299   1.444   4.068   7.317 -0.5555 -2.3998 -0.4327
  163SAPE   H3S18300   1.275   4.006   7.315 -2.7863  1.2641  2.0218
  163SAPE   C2418301   1.352   4.059   7.515  0.4387 -0.0038  1.0839
  163SAPE   H4R18302   1.428   4.130   7.554 -0.6617  2.1186 -0.4317
  163SAPE   H4S18303   1.382   3.956   7.543 -0.0487 -0.1318  1.1314
  163SAPE   C2518304   1.214   4.081   7.579  0.0901 -0.1680 -0.2308
  163SAPE   H5R18305   1.141   4.007   7.544  0.4474 -1.0999  0.8935
  163SAPE   C2618306   1.172   4.183   7.662  0.0716  0.1760 -0.8640
  163SAPE   H6R18307   1.065   4.177   7.687  0.2971 -2.3288 -0.2071
  163SAPE   C2718308   1.254   4.301   7.703 -0.5645 -0.5205  0.5111
  163SAPE   H7R18309   1.281   4.361   7.613  0.3204  0.0945  1.1730
  163SAPE   H7S18310   1.350   4.266   7.746 -0.4325 -1.9750 -0.8333
  163SAPE   C2818311   1.194   4.400   7.795  0.4273 -0.0383 -0.3004
  163SAPE   H8R18312   1.137   4.480   7.745  1.0228  0.2259 -0.5548
  163SAPE   C2918313   1.202   4.403   7.929 -0.0994 -0.3172  0.2943
  163SAPE   H9R18314   1.144   4.481   7.980  0.3186  0.1903 -0.0003
  163SAPE  C21018315   1.279   4.307   8.014  0.4149  0.5528  0.2833
  163SAPE  H10R18316   1.388   4.326   8.015  0.8166 -0.9403 -2.6289
  163SAPE  H10S18317   1.274   4.210   7.959  0.5617  0.4836  0.3901
  163SAPE  C21118318   1.240   4.288   8.161  0.4747  0.2807  0.6166
  163SAPE  H11R18319   1.321   4.303   8.234  1.6679 -0.7167 -0.4470
  163SAPE  C21218320   1.118   4.248   8.204  0.0167 -0.0355  0.3094
  163SAPE  H12R18321   1.110   4.242   8.314  0.1453 -2.1306  0.2366
  163SAPE  C21318322   0.993   4.219   8.124  0.2573 -0.0689  1.1282
  163SAPE  H13R18323   1.020   4.220   8.017  0.6493  0.0518  1.2280
  163SAPE  H13S18324   0.924   4.305   8.139  0.4392  0.0318  1.3973
  163SAPE  C21418325   0.920   4.087   8.142  0.1036  0.5236  0.2860
  163SAPE  H14R18326   0.939   4.013   8.062 -0.1211  0.5000  0.2552
  163SAPE  C21518327   0.863   4.033   8.254  0.1151 -0.1693  0.8309
  163SAPE  H15R18328   0.822   3.933   8.235  0.6804 -0.2600 -0.0061
  163SAPE  C21618329   0.838   4.098   8.386 -0.3274 -0.2130 -0.4969
  163SAPE  H16R18330   0.732   4.073   8.410 -0.8599 -0.5314 -2.9357
  163SAPE  H16S18331   0.839   4.209   8.386 -1.8753 -0.1442  1.0100
  163SAPE  C21718332   0.927   4.036   8.501 -0.2938 -0.4833  0.3143
  163SAPE  H17R18333   1.016   4.098   8.523 -1.0004 -0.3181  3.0031
  163SAPE  H17S18334   0.962   3.936   8.467  0.4162  0.1250 -0.7996
  163SAPE  C21818335   0.846   4.016   8.625 -0.1754 -0.3622  0.0254
  163SAPE  H18R18336   0.909   3.951   8.688  0.1020  0.0338  0.1659
  163SAPE  H18S18337   0.751   3.965   8.599 -0.8026 -0.3861  2.1888
  163SAPE  C21918338   0.831   4.141   8.712 -0.2219  0.3271  0.8654
  163SAPE  H19R18339   0.763   4.211   8.658  0.9147 -0.9418 -2.4405
  163SAPE  H19S18340   0.931   4.188   8.723 -0.5600  1.5920 -1.0238
  163SAPE  C22018341   0.761   4.124   8.848  0.3787 -0.0168  0.5361
  163SAPE  H20R18342   0.654   4.109   8.823  0.3482 -1.3991  1.3827
  163SAPE  H20S18343   0.769   4.215   8.912  2.4353  1.3734 -1.5480
  163SAPE  H20T18344   0.794   4.038   8.910 -2.3449 -0.7060  1.1579
  163SAPE   C3318345   1.512   4.788   7.172  0.1846 -0.1483  0.1373
  163SAPE   H3X18346   1.426   4.744   7.227 -0.9683 -1.4309 -2.5242
  163SAPE   H3Y18347   1.537   4.892   7.203  0.2135 -0.0001 -0.3660
  163SAPE   C3418348   1.631   4.696   7.202  0.0879 -0.2552  0.7195
  163SAPE   H4X18349   1.720   4.725   7.142 -0.8868  2.3927  0.4298
  163SAPE   H4Y18350   1.589   4.601   7.162 -0.2334  0.2461 -0.1742
  163SAPE   C3518351   1.676   4.698   7.349  0.7340 -0.7335  0.0133
  163SAPE   H5X18352   1.743   4.785   7.366  0.8252 -1.0154  1.1840
  163SAPE   H5Y18353   1.739   4.607   7.351  0.4681 -0.9392 -0.6854
  163SAPE   C3618354   1.575   4.700   7.459  0.2295  0.0622 -0.2207
  163SAPE   H6X18355   1.499   4.620   7.444 -1.3005  0.9541  2.2610
  163SAPE   H6Y18356   1.536   4.803   7.471  1.9502  0.7201  0.0186
  163SAPE   C3718357   1.642   4.664   7.593  0.1716  0.8372 -0.0698
  163SAPE   H7X18358   1.720   4.742   7.611  0.9109 -0.0006  0.4591
  163SAPE   H7Y18359   1.708   4.579   7.569  0.3932  0.6693  1.0740
  163SAPE   C3818360   1.548   4.642   7.715 -0.0973  0.3144  0.1550
  163SAPE   H8X18361   1.469   4.567   7.691  0.6801 -1.0216  1.5481
  163SAPE   H8Y18362   1.504   4.743   7.728 -3.7757 -0.8374 -1.9263
  163SAPE   C3918363   1.629   4.603   7.830 -0.6305  0.5170  0.4453
  163SAPE   H9X18364   1.731   4.647   7.819  0.5848 -2.3853 -1.3312
  163SAPE   H9Y18365   1.650   4.494   7.840  3.0508  1.0662  0.1433
  163SAPE  C31018366   1.570   4.648   7.960  0.2164  0.1388  0.0216
  163SAPE  H10X18367   1.489   4.578   7.990  1.6340 -1.3707  0.4186
  163SAPE  H10Y18368   1.522   4.748   7.953  0.1531  0.1703  0.8274
  163SAPE  C31118369   1.669   4.637   8.078  0.8970 -0.0302 -0.1050
  163SAPE  H11X18370   1.762   4.693   8.054 -0.8081  2.4762 -1.3510
  163SAPE  H11Y18371   1.701   4.532   8.089  3.1163  0.7299  1.5901
  163SAPE  C31218372   1.602   4.689   8.212  0.2843  1.3100 -0.5241
  163SAPE  H12X18373   1.509   4.629   8.219  1.0820  0.0674 -0.0727
  163SAPE  H12Y18374   1.585   4.798   8.223 -0.4424  0.9651  3.4221
  163SAPE  C31318375   1.678   4.656   8.345  0.4283 -0.3139  0.6750
  163SAPE  H13X18376   1.605   4.668   8.428 -1.5299 -0.9957 -0.8653
  163SAPE  H13Y18377   1.766   4.722   8.361  0.3884 -0.0648 -0.1062
  163SAPE  C31418378   1.729   4.513   8.357 -0.2305  0.0753  0.4700
  163SAPE  H14X18379   1.789   4.495   8.449  0.6131  2.1023  0.3633
  163SAPE  H14Y18380   1.802   4.506   8.275 -1.3226  0.5715 -0.5732
  163SAPE  C31518381   1.619   4.410   8.350  0.5610 -0.8849  0.1638
  163SAPE  H15X18382   1.569   4.409   8.250 -0.0249  0.0434  0.4364
  163SAPE  H15Y18383   1.546   4.444   8.427 -1.2868  0.3595 -1.9653
  163SAPE  C31618384   1.658   4.267   8.370 -0.0078 -0.7413 -0.1889
  163SAPE  H16X18385   1.573   4.204   8.406 -1.1743  1.2586  0.6986
  163SAPE  H16Y18386   1.732   4.264   8.453  2.0674  1.9760 -1.7919
  163SAPE  C31718387   1.722   4.202   8.245  0.0649 -0.7589  0.0876
  163SAPE  H17X18388   1.819   4.255   8.238 -1.5766  2.2449 -4.0360
  163SAPE  H17Y18389   1.679   4.226   8.145  0.3586  2.8106  0.7166
  163SAPE  C31818390   1.750   4.054   8.271 -0.5025 -0.0636  0.1638
  163SAPE  H18X18391   1.854   4.039   8.307 -0.9807 -1.6270  0.9745
  163SAPE  H18Y18392   1.731   3.987   8.185  1.0516  0.7937 -0.9118
  163SAPE  H18Z18393   1.693   4.022   8.361 -1.9990 -0.0481 -0.7482
  164SAPE     N18394   3.301   0.936   6.058  0.1997 -0.2298 -0.0201
  164SAPE   HN118395   3.353   0.974   5.977  1.0027  0.9510  0.9998
  164SAPE   HN218396   3.232   1.007   6.088  0.7900  1.7979 -3.0123
  164SAPE   HN318397   3.359   0.923   6.144 -1.5468  2.0126  1.6100
  164SAPE   C1218398   3.234   0.807   6.035  0.4143 -0.1741  0.0951
  164SAPE  H12A18399   3.178   0.811   5.939 -0.2947 -0.3880  0.4927
  164SAPE  H12B18400   3.164   0.784   6.118  1.5927 -0.0068  1.1550
  164SAPE   C1118401   3.334   0.693   6.002 -0.3997  0.2475  0.3232
  164SAPE  H11A18402   3.395   0.715   5.912 -0.8535 -2.8993 -0.8483
  164SAPE  H11B18403   3.277   0.598   5.998 -1.4947  0.8218  1.4357
  164SAPE     P18404   3.543   0.571   6.095 -0.3140 -0.4300 -0.1678
  164SAPE   O1318405   3.529   0.504   5.965  0.0812  0.6203  0.4859
  164SAPE   O1418406   3.670   0.635   6.126 -0.0986  0.0474  0.0248
  164SAPE   O1218407   3.430   0.681   6.115 -0.4253 -0.4626 -0.2525
  164SAPE   O1118408   3.509   0.459   6.201 -0.4520  0.0841 -0.5076
  164SAPE    C118409   3.372   0.435   6.253 -0.4417 -0.4377 -0.2604
  164SAPE    HA18410   3.298   0.428   6.170  0.8221 -2.9648 -1.2717
  164SAPE    HB18411   3.381   0.332   6.293  0.4575 -0.2004  0.1728
  164SAPE    C218412   3.332   0.531   6.361  0.1525  0.5599 -0.8985
  164SAPE    HS18413   3.335   0.636   6.323 -0.2546  0.4005 -1.3703
  164SAPE   O2118414   3.433   0.515   6.466  1.1018 -0.0161 -0.1615
  164SAPE   C2118415   3.445   0.609   6.557 -0.2458 -0.5333  0.4426
  164SAPE   O2218416   3.392   0.718   6.553  0.1166  0.0727  0.1078
  164SAPE   C2218417   3.537   0.556   6.665 -1.0168 -0.2824 -0.4395
  164SAPE   H2R18418   3.482   0.477   6.720 -2.1492 -0.6708 -2.0671
  164SAPE   H2S18419   3.634   0.512   6.633  1.0753  1.4900  2.8508
  164SAPE    C318420   3.190   0.514   6.426 -0.5373  0.1360  0.8518
  164SAPE    HX18421   3.122   0.532   6.340  1.2858 -2.3952 -1.2556
  164SAPE    HY18422   3.187   0.587   6.511  0.7264  0.1506  0.8981
  164SAPE   O3118423   3.158   0.379   6.463  0.1662 -0.0520  0.6432
  164SAPE   C3118424   3.169   0.356   6.589 -0.3270 -0.3212  0.7054
  164SAPE   O3218425   3.156   0.439   6.679 -0.3056  0.3745 -0.3461
  164SAPE   C3218426   3.193   0.211   6.604  0.4162 -0.5678  0.3320
  164SAPE   H2X18427   3.287   0.176   6.557  0.4797 -0.9633  0.7442
  164SAPE   H2Y18428   3.118   0.157   6.543  2.2713  0.1709 -2.7764
  164SAPE   C2318429   3.570   0.673   6.768  0.2459  0.2335 -0.0858
  164SAPE   H3R18430   3.604   0.760   6.709  0.4116  1.2632  1.4739
  164SAPE   H3S18431   3.654   0.644   6.835 -0.1250 -0.2153  0.1972
  164SAPE   C2418432   3.453   0.715   6.865  0.2881 -0.6066 -0.2530
  164SAPE   H4R18433   3.363   0.746   6.807 -0.0198 -1.6404 -0.3509
  164SAPE   H4S18434   3.496   0.796   6.928  1.8842 -1.2733 -0.4315
  164SAPE   C2518435   3.402   0.609   6.963  0.1544 -0.0722  0.2082
  164SAPE   H5R18436   3.314   0.558   6.921  1.2573 -1.1713 -0.8869
  164SAPE   C2618437   3.440   0.571   7.087 -0.0310  0.2477 -0.0744
  164SAPE   H6R18438   3.392   0.479   7.124  0.3579 -0.1238 -0.4734
  164SAPE   C2718439   3.554   0.629   7.173 -0.0669  0.0403 -0.2455
  164SAPE   H7R18440   3.576   0.728   7.127  2.5622  0.6573  2.0747
  164SAPE   H7S18441   3.653   0.579   7.169  0.1699  0.3765  0.9248
  164SAPE   C2818442   3.522   0.660   7.318 -0.1498  0.1163  0.1869
  164SAPE   H8R18443   3.495   0.766   7.333 -0.2083  0.0803  0.3426
  164SAPE   C2918444   3.535   0.584   7.429  0.1779  0.6378 -0.0876
  164SAPE   H9R18445   3.512   0.626   7.528  0.8258 -0.8026  0.6963
  164SAPE  C21018446   3.586   0.439   7.428 -0.1042 -0.0156  0.0938
  164SAPE  H10R18447   3.563   0.384   7.334  0.0464  1.7675 -1.0422
  164SAPE  H10S18448   3.527   0.392   7.510  0.5187 -0.4139  0.3210
  164SAPE  C21118449   3.735   0.453   7.468  0.4910  0.2725 -0.1847
  164SAPE  H11R18450   3.807   0.464   7.386  0.2496 -0.7112 -0.5445
  164SAPE  C21218451   3.773   0.471   7.591 -0.3212  0.6786 -0.1973
  164SAPE  H12R18452   3.882   0.471   7.610 -0.2694 -3.0315  0.2416
  164SAPE  C21318453   3.683   0.469   7.713 -0.5245  0.3899  0.5222
  164SAPE  H13R18454   3.720   0.379   7.767  0.8327  0.6364  0.0587
  164SAPE  H13S18455   3.574   0.468   7.692 -0.1067 -0.6594 -1.8668
  164SAPE  C21418456   3.716   0.597   7.794  0.3335  0.8589  0.9468
  164SAPE  H14R18457   3.698   0.685   7.731 -3.6538 -0.9659 -0.7832
  164SAPE  C21518458   3.755   0.604   7.920  0.1368  0.2179  0.0148
  164SAPE  H15R18459   3.787   0.702   7.958  1.0717  0.0205 -0.2351
  164SAPE  C21618460   3.777   0.496   8.023 -0.0192 -0.3587 -0.8284
  164SAPE  H16R18461   3.866   0.535   8.078  1.0460 -0.1352 -2.6135
  164SAPE  H16S18462   3.803   0.400   7.975 -0.1845 -0.3340 -0.9650
  164SAPE  C21718463   3.656   0.481   8.122  0.2347 -0.0233 -0.9650
  164SAPE  H17R18464   3.563   0.472   8.063 -0.5195  1.2424 -0.0072
  164SAPE  H17S18465   3.643   0.572   8.184  1.5425  0.0629 -0.7748
  164SAPE  C21818466   3.653   0.363   8.216 -0.0737  0.3326 -0.0717
  164SAPE  H18R18467   3.743   0.353   8.281 -1.3597 -1.1955  1.5726
  164SAPE  H18S18468   3.641   0.280   8.144  0.2099  0.3052 -0.0906
  164SAPE  C21918469   3.534   0.356   8.319 -0.5366  0.2605 -0.6699
  164SAPE  H19R18470   3.437   0.351   8.265  0.2299  0.0991 -2.0785
  164SAPE  H19S18471   3.530   0.441   8.390 -0.7934  0.3905 -0.8364
  164SAPE  C22018472   3.538   0.227   8.408  0.2583 -0.7754  0.3737
  164SAPE  H20R18473   3.606   0.246   8.494 -0.4911  1.5721  0.5065
  164SAPE  H20S18474   3.591   0.148   8.351  1.8650  0.4032  0.1685
  164SAPE  H20T18475   3.438   0.203   8.451  0.0552  0.2863  0.5080
  164SAPE   C3318476   3.185   0.174   6.756 -0.5315 -0.1756  0.0687
  164SAPE   H3X18477   3.138   0.073   6.752  2.5686 -1.7665  0.6806
  164SAPE   H3Y18478   3.121   0.247   6.809 -0.8813  1.6585 -2.6971
  164SAPE   C3418479   3.322   0.159   6.824 -0.2816 -0.1487  0.5990
  164SAPE   H4X18480   3.357   0.264   6.830 -1.7479  0.4434 -0.4470
  164SAPE   H4Y18481   3.393   0.094   6.768 -0.7506 -0.3120  0.1791
  164SAPE   C3518482   3.312   0.117   6.978 -0.6202  0.4048 -0.7774
  164SAPE   H5X18483   3.412   0.094   7.021 -0.4919 -0.0278 -1.2867
  164SAPE   H5Y18484   3.260   0.019   6.987  0.7703 -0.4051 -1.1498
  164SAPE   C3618485   3.245   0.224   7.063 -0.8311  0.4038 -0.7358
  164SAPE   H6X18486   3.135   0.240   7.050 -1.2003  0.0983  1.5049
  164SAPE   H6Y18487   3.311   0.313   7.057  1.0335 -0.7140  1.4495
  164SAPE   C3718488   3.268   0.196   7.219 -0.3173 -0.3925 -0.3703
  164SAPE   H7X18489   3.377   0.192   7.242 -0.3786  1.1669  0.2937
  164SAPE   H7Y18490   3.238   0.091   7.241  2.3516 -1.3389 -0.8872
  164SAPE   C3818491   3.189   0.295   7.306 -0.5709  0.0882  0.3072
  164SAPE   H8X18492   3.078   0.292   7.295 -0.5185 -1.8304 -0.0934
  164SAPE   H8Y18493   3.237   0.393   7.283 -0.0784 -0.2316 -0.0449
  164SAPE   C3918494   3.233   0.272   7.453 -0.0616  0.3299  0.5072
  164SAPE   H9X18495   3.343   0.282   7.458 -0.1121  1.0810  0.1552
  164SAPE   H9Y18496   3.211   0.167   7.483  1.5978  0.2528  1.5677
  164SAPE  C31018497   3.152   0.358   7.546  1.3221 -0.3259 -0.2262
  164SAPE  H10X18498   3.145   0.459   7.501 -0.4034  0.2051  1.1032
  164SAPE  H10Y18499   3.201   0.362   7.646  1.2409 -1.8880 -0.0977
  164SAPE  C31118500   3.008   0.307   7.584 -0.4719 -0.0756  0.0735
  164SAPE  H11X18501   2.952   0.258   7.502  0.4179 -0.3343 -0.3938
  164SAPE  H11Y18502   2.946   0.395   7.611  1.5439  1.3818  0.2089
  164SAPE  C31218503   3.007   0.215   7.705  0.5535 -0.1391 -0.3446
  164SAPE  H12X18504   3.050   0.269   7.792 -2.8608 -0.8789  1.9976
  164SAPE  H12Y18505   3.048   0.112   7.690 -0.1120 -0.3922 -0.4586
  164SAPE  C31318506   2.855   0.210   7.750  0.3327 -0.4983 -0.1697
  164SAPE  H13X18507   2.796   0.172   7.664 -2.7467  1.5822  0.8755
  164SAPE  H13Y18508   2.809   0.308   7.771  0.5084 -0.6749  1.1536
  164SAPE  C31418509   2.819   0.137   7.878 -0.3923 -0.6749  0.0183
  164SAPE  H14X18510   2.708   0.141   7.887 -0.3712  3.1860 -0.0569
  164SAPE  H14Y18511   2.871   0.195   7.957  1.4044 -1.6342 -0.4123
  164SAPE  C31518512   2.871  -0.014   7.878  0.1202 -0.6025 -0.1519
  164SAPE  H15X18513   2.981  -0.026   7.870  0.2095 -0.1450  0.3104
  164SAPE  H15Y18514   2.815  -0.049   7.789 -2.5023  1.5765  0.5211
  164SAPE  C31618515   2.816  -0.075   8.004  0.4469 -0.0807  0.1565
  164SAPE  H16X18516   2.705  -0.067   8.003  0.4753  0.2953 -0.6828
  164SAPE  H16Y18517   2.863  -0.025   8.092 -0.9247  1.2256  0.1817
  164SAPE  C31718518   2.859  -0.221   8.009  0.3685 -0.0152  0.5235
  164SAPE  H17X18519   2.968  -0.229   8.028  0.4472  2.5506  1.4822
  164SAPE  H17Y18520   2.827  -0.277   7.918 -0.3044  0.5792  0.3817
  164SAPE  C31818521   2.789  -0.294   8.122 -0.1249 -0.0749 -0.3098
  164SAPE  H18X18522   2.682  -0.264   8.131 -1.0185 -2.2053 -2.4233
  164SAPE  H18Y18523   2.830  -0.278   8.223  0.9514 -2.6131 -0.2753
  164SAPE  H18Z18524   2.803  -0.401   8.095  0.5853 -0.0346 -0.1168
  165SAPE     N18525   3.211   2.952   6.139  0.0550  0.4529 -0.4316
  165SAPE   HN118526   3.187   2.877   6.208  0.8928  1.2115  0.7239
  165SAPE   HN218527   3.129   3.016   6.139  0.1636  0.7673  2.7671
  165SAPE   HN318528   3.224   2.892   6.055 -0.2238 -3.7540  2.2108
  165SAPE   C1218529   3.327   3.028   6.181  0.5243  0.5633 -0.1739
  165SAPE  H12A18530   3.355   3.105   6.106  0.7239 -0.3218 -1.0292
  165SAPE  H12B18531   3.408   2.952   6.183 -0.4665 -0.5144  0.7823
  165SAPE   C1118532   3.312   3.074   6.326  0.6414  0.3259  0.8756
  165SAPE  H11A18533   3.414   3.108   6.357  1.6916 -0.7426 -1.2030
  165SAPE  H11B18534   3.283   2.988   6.391  0.0476  0.8279  1.2846
  165SAPE     P18535   3.062   3.160   6.364  0.0092  0.2643  0.2788
  165SAPE   O1318536   3.006   3.276   6.436  0.4417  0.4769 -0.1429
  165SAPE   O1418537   3.007   3.123   6.237  0.0985 -0.4662 -0.1179
  165SAPE   O1218538   3.222   3.181   6.345  0.2743 -0.3859 -0.0317
  165SAPE   O1118539   3.061   3.033   6.452 -0.6051 -0.2266 -0.4411
  165SAPE    C118540   2.966   2.992   6.546  0.5116 -0.5051 -0.6827
  165SAPE    HA18541   2.886   3.068   6.554  0.2517 -0.8965  0.8683
  165SAPE    HB18542   2.916   2.903   6.502 -0.6254 -0.0142 -0.4136
  165SAPE    C218543   3.032   2.976   6.687 -0.3216  0.3075 -0.5488
  165SAPE    HS18544   2.947   2.951   6.754  0.7971  1.2542  1.2810
  165SAPE   O2118545   3.104   3.093   6.726 -0.0557  0.1421 -0.3677
  165SAPE   C2118546   3.032   3.197   6.758 -0.9377  0.6924  0.4108
  165SAPE   O2218547   2.911   3.199   6.767 -0.5631  0.3446  0.0279
  165SAPE   C2218548   3.130   3.310   6.776 -0.4651  0.4849 -0.3659
  165SAPE   H2R18549   3.216   3.306   6.707  1.4619  1.5313  1.8280
  165SAPE   H2S18550   3.075   3.400   6.741  1.1777  1.9673  0.6855
  165SAPE    C318551   3.131   2.865   6.698  0.2787  0.1596  0.1807
  165SAPE    HX18552   3.205   2.890   6.620 -0.6166  0.0267 -0.7278
  165SAPE    HY18553   3.098   2.760   6.681  0.1564  0.1699  0.3512
  165SAPE   O3118554   3.201   2.863   6.824  0.7754  0.2253 -0.6214
  165SAPE   C3118555   3.126   2.816   6.927  0.9284 -0.0994 -0.4392
  165SAPE   O3218556   3.009   2.787   6.914 -0.2225  0.1548 -0.0024
  165SAPE   C3218557   3.207   2.778   7.048  0.2987  0.2727 -0.3590
  165SAPE   H2X18558   3.315   2.773   7.024  1.7982 -1.2976  5.1787
  165SAPE   H2Y18559   3.183   2.675   7.084  1.9676  0.4358  1.3307
  165SAPE   C2318560   3.191   3.314   6.916  0.0198 -0.2711  0.0715
  165SAPE   H3R18561   3.274   3.239   6.916 -0.5132 -0.9086 -1.3597
  165SAPE   H3S18562   3.113   3.282   6.988 -2.1473  0.9160 -1.6340
  165SAPE   C2418563   3.235   3.453   6.960 -0.0418 -0.3451  0.3806
  165SAPE   H4R18564   3.335   3.478   6.919 -0.8328  0.9860 -0.8190
  165SAPE   H4S18565   3.258   3.451   7.069 -0.3775 -0.0971  0.4577
  165SAPE   C2518566   3.134   3.563   6.932 -0.2718 -0.1933 -0.5293
  165SAPE   H5R18567   3.122   3.595   6.828 -4.0867  1.0436  0.1751
  165SAPE   C2618568   3.053   3.620   7.024 -0.5336  0.0181  0.9658
  165SAPE   H6R18569   2.987   3.697   6.982 -0.7206 -0.6675 -0.0357
  165SAPE   C2718570   3.048   3.590   7.171 -0.4349 -0.0102  0.7937
  165SAPE   H7R18571   3.152   3.580   7.209 -0.4115  0.1619  0.7730
  165SAPE   H7S18572   2.993   3.497   7.198 -2.8382  0.9081 -0.6250
  165SAPE   C2818573   2.982   3.705   7.243 -0.8647 -0.0395  0.4299
  165SAPE   H8R18574   2.935   3.773   7.171  0.1880 -1.6834 -1.9458
  165SAPE   C2918575   2.979   3.728   7.378  0.6133 -1.0328 -0.1735
  165SAPE   H9R18576   2.941   3.824   7.416  0.6054 -1.2547  0.3835
  165SAPE  C21018577   3.028   3.637   7.488  0.1799  0.6967  0.4533
  165SAPE  H10R18578   3.119   3.690   7.524  1.1142 -0.3257 -0.3576
  165SAPE  H10S18579   3.069   3.547   7.438  0.8744  1.3379 -0.1430
  165SAPE  C21118580   2.923   3.617   7.599 -0.3360  0.1535  0.0653
  165SAPE  H11R18581   2.833   3.562   7.566  2.5450 -4.8634 -0.4856
  165SAPE  C21218582   2.933   3.645   7.729  0.5969  0.3924  0.2533
  165SAPE  H12R18583   2.842   3.632   7.790 -0.0954  3.8325  0.1605
  165SAPE  C21318584   3.051   3.692   7.798  0.5633 -0.1263  0.2293
  165SAPE  H13R18585   3.141   3.653   7.746 -0.0117  0.5024 -1.2793
  165SAPE  H13S18586   3.047   3.639   7.896  0.9838 -0.4150  0.0911
  165SAPE  C21418587   3.062   3.837   7.826 -0.2677  0.1563 -0.1530
  165SAPE  H14R18588   3.106   3.883   7.736 -0.3566 -2.0095 -1.3813
  165SAPE  C21518589   3.041   3.912   7.938  0.0898  0.6547 -0.2798
  165SAPE  H15R18590   3.056   4.022   7.936  0.6783  0.5728 -1.1862
  165SAPE  C21618591   2.984   3.852   8.066 -0.2610  0.3168 -0.2419
  165SAPE  H16R18592   2.926   3.758   8.054  0.6377 -0.7047  2.5169
  165SAPE  H16S18593   2.914   3.928   8.109  0.5836  1.9683 -1.6453
  165SAPE  C21718594   3.096   3.826   8.167 -0.1361 -0.2019 -0.3916
  165SAPE  H17R18595   3.151   3.921   8.179  0.4834 -0.4646 -1.1317
  165SAPE  H17S18596   3.166   3.749   8.130  0.2012  0.7405 -1.7634
  165SAPE  C21818597   3.048   3.775   8.307  0.4204  0.0681 -0.8665
  165SAPE  H18R18598   3.012   3.671   8.295 -0.4979  0.0513  1.4100
  165SAPE  H18S18599   2.970   3.847   8.341  1.0065  0.2704  0.0782
  165SAPE  C21918600   3.152   3.782   8.424 -0.3713 -0.1066  0.3673
  165SAPE  H19R18601   3.206   3.879   8.425 -0.1895  0.0085 -3.5298
  165SAPE  H19S18602   3.229   3.703   8.406 -0.0240  0.6383 -1.6698
  165SAPE  C22018603   3.096   3.761   8.566  0.0118 -0.3602  0.5889
  165SAPE  H20R18604   3.163   3.798   8.646  3.1412  1.6306 -2.6073
  165SAPE  H20S18605   3.061   3.658   8.585  1.1633 -1.0955 -0.9855
  165SAPE  H20T18606   3.008   3.829   8.562  1.0670  1.0458  0.3307
  165SAPE   C3318607   3.196   2.879   7.170 -0.6998  0.0231  0.1476
  165SAPE   H3X18608   3.202   2.987   7.143 -0.3689 -0.0330 -0.0073
  165SAPE   H3Y18609   3.280   2.856   7.239  0.3453  3.4390  0.2017
  165SAPE   C3418610   3.064   2.883   7.242 -0.1864 -0.2435  0.3839
  165SAPE   H4X18611   3.069   2.808   7.323 -1.2429 -1.1691 -0.3701
  165SAPE   H4Y18612   2.977   2.863   7.175  0.3618  0.0463 -0.4293
  165SAPE   C3518613   3.032   3.015   7.310  0.5395 -0.0981 -0.3873
  165SAPE   H5X18614   2.923   3.010   7.331  0.5781  0.5880  0.0139
  165SAPE   H5Y18615   3.055   3.103   7.246  0.5663 -0.0853 -0.3604
  165SAPE   C3618616   3.107   3.031   7.444 -0.2115 -0.8996  0.5782
  165SAPE   H6X18617   3.210   3.056   7.411  0.0134  0.6381  2.3131
  165SAPE   H6Y18618   3.109   2.932   7.494  0.7057 -1.8868 -1.3159
  165SAPE   C3718619   3.040   3.139   7.535  0.2175  0.0838  0.0316
  165SAPE   H7X18620   2.954   3.098   7.592  1.1055  0.2415  1.5470
  165SAPE   H7Y18621   3.021   3.226   7.468  0.0644 -1.7872 -2.4759
  165SAPE   C3818622   3.133   3.187   7.651  0.0557 -0.3211  0.2204
  165SAPE   H8X18623   3.094   3.288   7.678  1.8108  0.3675  0.2563
  165SAPE   H8Y18624   3.235   3.192   7.608 -0.2453 -0.1203 -0.4846
  165SAPE   C3918625   3.136   3.094   7.767 -0.1949  0.2085 -0.0406
  165SAPE   H9X18626   3.239   3.106   7.809  0.0919  1.6343 -1.0773
  165SAPE   H9Y18627   3.124   2.992   7.726  0.2386  1.6570 -4.2123
  165SAPE  C31018628   3.033   3.126   7.868  0.3602 -0.3472 -0.7772
  165SAPE  H10X18629   2.938   3.104   7.814 -0.0566 -1.2531  0.2845
  165SAPE  H10Y18630   3.024   3.236   7.880  1.6780 -0.1058 -1.8205
  165SAPE  C31118631   3.051   3.067   8.010  0.4671 -0.2685  0.4267
  165SAPE  H11X18632   3.159   3.069   8.037  0.3149 -2.2294  1.3619
  165SAPE  H11Y18633   3.016   2.961   8.014 -1.6612  0.4054  2.6671
  165SAPE  C31218634   2.981   3.148   8.127  0.0801  0.4065  0.3178
  165SAPE  H12X18635   2.987   3.087   8.219  2.2291  0.1904  0.0881
  165SAPE  H12Y18636   2.873   3.154   8.102 -0.8450 -1.2017  3.4990
  165SAPE  C31318637   3.039   3.282   8.149 -0.1552 -0.1766  0.2225
  165SAPE  H13X18638   3.017   3.372   8.087  1.9737  0.9625  1.0145
  165SAPE  H13Y18639   3.150   3.281   8.153 -0.0355  2.3089 -0.2991
  165SAPE  C31418640   2.993   3.333   8.287  0.1941 -0.4675 -0.3455
  165SAPE  H14X18641   2.886   3.305   8.302  0.5729 -1.8291 -0.1039
  165SAPE  H14Y18642   3.007   3.442   8.301 -1.6559 -0.3178  0.7354
  165SAPE  C31518643   3.079   3.272   8.400  0.8146  0.0553  0.2389
  165SAPE  H15X18644   3.101   3.163   8.391 -1.0834 -0.3322 -0.1349
  165SAPE  H15Y18645   3.013   3.290   8.487  1.2090  2.3804  0.1255
  165SAPE  C31618646   3.220   3.326   8.425 -0.0721  0.2938  0.0693
  165SAPE  H16X18647   3.204   3.436   8.427 -1.2984  0.1279  0.2756
  165SAPE  H16Y18648   3.291   3.308   8.341  1.8272  2.4181  1.0887
  165SAPE  C31718649   3.269   3.287   8.564  0.8328 -0.4636  0.4300
  165SAPE  H17X18650   3.314   3.186   8.572  1.4167 -0.2267  0.1702
  165SAPE  H17Y18651   3.188   3.299   8.640  1.5028  4.1513  0.6757
  165SAPE  C31818652   3.377   3.383   8.607  0.1237  0.2038 -0.4788
  165SAPE  H18X18653   3.464   3.388   8.538  0.3684  0.8310 -0.1333
  165SAPE  H18Y18654   3.401   3.350   8.710 -0.5194 -2.2420 -1.0496
  165SAPE  H18Z18655   3.341   3.487   8.615  0.4958  0.1893  2.3443
  166SAPE     N18656   2.768   6.708   6.073 -0.2700 -0.1718  0.3855
  166SAPE   HN118657   2.719   6.800   6.073 -0.4665 -0.2675 -0.9446
  166SAPE   HN218658   2.867   6.719   6.044 -0.2699  1.0981  0.7881
  166SAPE   HN318659   2.711   6.648   6.010  0.8004 -0.5898 -0.2012
  166SAPE   C1218660   2.762   6.643   6.209  0.1830  0.3307  0.0165
  166SAPE  H12A18661   2.746   6.727   6.280 -0.2224  1.4515 -1.3505
  166SAPE  H12B18662   2.858   6.597   6.240  0.2627 -0.3152 -1.1406
  166SAPE   C1118663   2.642   6.545   6.233  0.8195  0.4027 -0.1159
  166SAPE  H11A18664   2.631   6.523   6.341  1.1380  0.2940 -0.1054
  166SAPE  H11B18665   2.666   6.446   6.190 -0.3856 -0.1940  0.5467
  166SAPE     P18666   2.451   6.550   6.056  0.0135  0.0932  0.1292
  166SAPE   O1318667   2.318   6.617   6.046  0.0302  0.3131  1.0161
  166SAPE   O1418668   2.553   6.581   5.952 -0.0824 -0.2786 -0.2410
  166SAPE   O1218669   2.518   6.598   6.194  0.5680  0.4782  0.6185
  166SAPE   O1118670   2.432   6.388   6.060  0.2510  0.2121 -0.6800
  166SAPE    C118671   2.301   6.329   6.071 -0.7986  0.2483  0.2882
  166SAPE    HA18672   2.231   6.374   5.997 -4.1203 -2.0396  1.7710
  166SAPE    HB18673   2.309   6.221   6.046  1.6860 -0.3789  3.1435
  166SAPE    C218674   2.227   6.352   6.205  0.4774  0.5373 -0.2508
  166SAPE    HS18675   2.184   6.455   6.202  0.0309  0.3295 -2.5285
  166SAPE   O2118676   2.315   6.364   6.315  0.7518  0.0680  0.3345
  166SAPE   C2118677   2.390   6.274   6.353  0.1044  0.8859 -0.3704
  166SAPE   O2218678   2.397   6.158   6.304 -0.4986  0.6108 -0.7141
  166SAPE   C2218679   2.487   6.333   6.461  0.1848  1.0351  0.1286
  166SAPE   H2R18680   2.593   6.328   6.429  0.0115  2.6097 -0.8382
  166SAPE   H2S18681   2.465   6.441   6.480  0.9844  1.0185  1.2032
  166SAPE    C318682   2.113   6.251   6.240  0.2879  0.1135 -0.1368
  166SAPE    HX18683   2.160   6.150   6.237 -2.2761 -1.1735 -3.7688
  166SAPE    HY18684   2.033   6.256   6.163  0.7398 -0.5804 -0.6546
  166SAPE   O3118685   2.057   6.278   6.374 -0.1317 -0.0377  0.7945
  166SAPE   C3118686   1.972   6.383   6.382 -0.1293  0.6128  0.3587
  166SAPE   O3218687   1.942   6.456   6.289  0.1042  0.1663 -0.0263
  166SAPE   C3218688   1.919   6.401   6.517  0.9639  0.3533 -0.0793
  166SAPE   H2X18689   1.962   6.332   6.594 -0.4001 -0.3542  0.0744
  166SAPE   H2Y18690   1.810   6.382   6.509  0.4225  2.2295  1.8668
  166SAPE   C2318691   2.466   6.261   6.599  0.2496  0.1522  0.2311
  166SAPE   H3R18692   2.468   6.151   6.590 -1.1389  0.1001  0.3238
  166SAPE   H3S18693   2.362   6.280   6.633  0.0102 -0.3846 -0.2004
  166SAPE   C2418694   2.563   6.300   6.712 -0.1428 -0.3773 -0.1766
  166SAPE   H4R18695   2.527   6.249   6.804 -0.8388 -4.1681 -2.3336
  166SAPE   H4S18696   2.550   6.410   6.721  0.7689 -0.2678 -0.0918
  166SAPE   C2518697   2.704   6.278   6.679 -0.0471 -0.1203  0.4023
  166SAPE   H5R18698   2.730   6.358   6.609 -3.5165  0.9860  0.1992
  166SAPE   C2618699   2.784   6.181   6.721 -0.7421 -0.1857 -1.5159
  166SAPE   H6R18700   2.889   6.193   6.693 -0.0681  0.0991  0.9307
  166SAPE   C2718701   2.748   6.070   6.816 -0.0012  0.2242 -0.5200
  166SAPE   H7R18702   2.833   6.001   6.832  0.3068  1.2540  3.2001
  166SAPE   H7S18703   2.663   6.007   6.782  0.8678 -1.5347  0.4133
  166SAPE   C2818704   2.717   6.110   6.956 -1.0118  0.2263  0.1599
  166SAPE   H8R18705   2.754   6.210   6.981  0.7818 -0.5535  0.8018
  166SAPE   C2918706   2.665   6.034   7.056 -0.1592 -0.3502  0.4282
  166SAPE   H9R18707   2.647   6.084   7.152  0.2121 -1.5650  1.1500
  166SAPE  C21018708   2.622   5.890   7.041 -0.2232 -0.1897  0.1881
  166SAPE  H10R18709   2.699   5.823   7.083 -0.5691  0.1400  1.3840
  166SAPE  H10S18710   2.598   5.876   6.933 -0.5834  3.7825 -0.4346
  166SAPE  C21118711   2.491   5.859   7.112 -0.0937  0.0320 -0.2306
  166SAPE  H11R18712   2.408   5.840   7.043  1.4416 -0.8761 -1.9130
  166SAPE  C21218713   2.469   5.857   7.244 -0.3012 -0.5948  0.0400
  166SAPE  H12R18714   2.368   5.829   7.277 -0.6579  0.2103 -0.3377
  166SAPE  C21318715   2.574   5.882   7.348 -0.6727  0.0955  0.1156
  166SAPE  H13R18716   2.545   5.963   7.420  0.3680  0.2034  0.4320
  166SAPE  H13S18717   2.674   5.902   7.304  0.0110 -1.8345  0.6921
  166SAPE  C21418718   2.582   5.750   7.413  0.5941 -0.0391 -0.1678
  166SAPE  H14R18719   2.597   5.661   7.350  0.1330 -0.6467  0.5679
  166SAPE  C21518720   2.591   5.744   7.554 -0.0562  0.1419  0.7002
  166SAPE  H15R18721   2.597   5.641   7.593 -1.3080 -0.9621 -1.8109
  166SAPE  C21618722   2.589   5.860   7.647  0.8098 -0.6837  0.1723
  166SAPE  H16R18723   2.480   5.878   7.661  0.1467 -2.2207 -2.3421
  166SAPE  H16S18724   2.651   5.945   7.612 -0.0280 -0.4291 -0.7397
  166SAPE  C21718725   2.649   5.823   7.791  0.3007  0.1420  0.3844
  166SAPE  H17R18726   2.647   5.920   7.845  1.5155  0.4379 -0.0465
  166SAPE  H17S18727   2.753   5.783   7.782  0.1502 -0.8528  2.5168
  166SAPE  C21818728   2.558   5.719   7.858 -0.2932 -0.5798  0.4158
  166SAPE  H18R18729   2.551   5.629   7.794 -1.0289  1.1157 -2.0454
  166SAPE  H18S18730   2.457   5.765   7.853  0.5532  1.2845 -0.8612
  166SAPE  C21918731   2.603   5.680   7.994 -0.4260 -0.3105  0.0037
  166SAPE  H19R18732   2.703   5.633   7.993 -0.3757 -0.2577  1.3843
  166SAPE  H19S18733   2.544   5.598   8.039  1.6083  0.3198  4.2898
  166SAPE  C22018734   2.610   5.794   8.109 -0.0740  1.1207  0.4887
  166SAPE  H20R18735   2.649   5.762   8.208  3.2973  0.4589 -0.9242
  166SAPE  H20S18736   2.510   5.841   8.116 -0.3511  0.6491 -0.2700
  166SAPE  H20T18737   2.679   5.874   8.073 -1.0015  2.6088  1.8427
  166SAPE   C3318738   1.942   6.538   6.572 -0.3557  0.3116 -0.0248
  166SAPE   H3X18739   1.878   6.566   6.657  1.2202 -1.1786  1.7543
  166SAPE   H3Y18740   1.914   6.621   6.504 -3.0102 -1.0575 -0.7294
  166SAPE   C3418741   2.088   6.566   6.618 -0.1624  0.8555  0.1072
  166SAPE   H4X18742   2.100   6.677   6.612 -2.9032  1.2119  0.1358
  166SAPE   H4Y18743   2.143   6.527   6.530 -0.1733 -0.0623  0.4971
  166SAPE   C3518744   2.130   6.506   6.757 -0.3576 -0.4938 -0.5312
  166SAPE   H5X18745   2.108   6.397   6.760  2.0646 -1.0445 -0.3003
  166SAPE   H5Y18746   2.060   6.557   6.827  1.4326  1.0632  0.2219
  166SAPE   C3618747   2.275   6.520   6.813  0.3225  0.1394  0.8713
  166SAPE   H6X18748   2.359   6.483   6.751 -1.3527 -0.8201 -0.9069
  166SAPE   H6Y18749   2.272   6.465   6.910  0.5570  0.5547  1.1169
  166SAPE   C3718750   2.300   6.666   6.865 -0.0271  0.5338 -0.4958
  166SAPE   H7X18751   2.379   6.664   6.942 -1.1429  0.7738  0.7021
  166SAPE   H7Y18752   2.203   6.703   6.906 -0.4321 -1.9909  1.0268
  166SAPE   C3818753   2.342   6.769   6.765 -0.6777  0.0670  0.3836
  166SAPE   H8X18754   2.260   6.785   6.692 -0.0760  0.3762 -0.2315
  166SAPE   H8Y18755   2.429   6.741   6.702  0.2256  1.8126  0.7967
  166SAPE   C3918756   2.372   6.910   6.827  0.0695 -0.5510  0.5956
  166SAPE   H9X18757   2.384   6.972   6.736 -1.7709 -0.3536  0.4580
  166SAPE   H9Y18758   2.461   6.911   6.894  0.7236 -2.3859 -0.2030
  166SAPE  C31018759   2.248   6.958   6.892  0.6496  0.1066  0.5879
  166SAPE  H10X18760   2.232   6.906   6.989 -0.7402  1.2125  0.9746
  166SAPE  H10Y18761   2.170   6.941   6.815  2.3615 -0.1425 -1.1684
  166SAPE  C31118762   2.253   7.113   6.919 -0.4108 -0.1472  0.2922
  166SAPE  H11X18763   2.146   7.137   6.937 -0.6548 -0.9098 -0.0940
  166SAPE  H11Y18764   2.294   7.181   6.841 -0.7380  2.3682  2.1689
  166SAPE  C31218765   2.338   7.136   7.046 -0.2672 -0.0303  0.2870
  166SAPE  H12X18766   2.444   7.119   7.019 -0.4447 -0.6479 -0.0397
  166SAPE  H12Y18767   2.305   7.059   7.119  1.5775 -1.0657  0.0952
  166SAPE  C31318768   2.313   7.278   7.092  0.2385 -0.1257  0.1762
  166SAPE  H13X18769   2.317   7.352   7.009 -0.1853  0.4909  0.6969
  166SAPE  H13Y18770   2.404   7.307   7.149 -0.0744  2.2795 -0.4274
  166SAPE  C31418771   2.199   7.298   7.188 -0.4282  0.0798  1.1262
  166SAPE  H14X18772   2.117   7.229   7.159  0.1239 -0.3878  0.6350
  166SAPE  H14Y18773   2.161   7.402   7.177 -1.3529 -0.3252  0.2510
  166SAPE  C31518774   2.230   7.278   7.337 -0.2447  0.2995 -0.1622
  166SAPE  H15X18775   2.326   7.331   7.355 -0.1061  0.1259 -0.3830
  166SAPE  H15Y18776   2.248   7.170   7.359  0.7082  0.1052 -1.7267
  166SAPE  C31618777   2.121   7.332   7.428 -0.2656  0.3211 -0.2439
  166SAPE  H16X18778   2.035   7.269   7.397 -2.7138  2.8108  1.1610
  166SAPE  H16Y18779   2.107   7.440   7.407  2.0005  1.2080  2.2339
  166SAPE  C31718780   2.131   7.293   7.580 -0.3925  0.4322  0.1262
  166SAPE  H17X18781   2.187   7.197   7.585 -0.1106  0.6648  2.5031
  166SAPE  H17Y18782   2.030   7.282   7.625 -0.1517  0.3388  0.6546
  166SAPE  C31818783   2.211   7.391   7.666  0.2581 -0.4115  0.5386
  166SAPE  H18X18784   2.306   7.413   7.612  0.6322 -1.1707  0.8702
  166SAPE  H18Y18785   2.238   7.355   7.767 -0.2273 -1.6623  0.2354
  166SAPE  H18Z18786   2.162   7.491   7.670  2.2109  0.6049  0.4027
  167SAPE     N18787   3.368   6.295   5.905  0.0955  0.4737  0.1671
  167SAPE   HN118788   3.441   6.290   5.831 -0.6568  2.3467 -0.7902
  167SAPE   HN218789   3.284   6.337   5.859 -0.5571 -0.6550  0.2869
  167SAPE   HN318790   3.395   6.356   5.984 -2.0580  0.9226  0.6243
  167SAPE   C1218791   3.332   6.158   5.961 -0.1134 -0.8709 -0.2005
  167SAPE  H12A18792   3.419   6.109   6.010  1.2352  0.7555 -0.8363
  167SAPE  H12B18793   3.291   6.107   5.871 -0.9032  1.0966 -1.0118
  167SAPE   C1118794   3.219   6.175   6.070 -0.4613 -1.2460 -0.2038
  167SAPE  H11A18795   3.246   6.238   6.157 -3.1376  2.0138 -1.5106
  167SAPE  H11B18796   3.206   6.071   6.106  4.4066 -1.6665  1.0542
  167SAPE     P18797   2.971   6.142   5.974 -0.3175 -0.5147 -0.1030
  167SAPE   O1318798   2.867   6.229   5.916 -0.7321 -0.2236 -0.6367
  167SAPE   O1418799   2.995   6.020   5.892  0.1380 -0.2067  0.5072
  167SAPE   O1218800   3.102   6.229   6.008  0.2199  0.2154 -0.2044
  167SAPE   O1118801   2.921   6.089   6.106  0.4468  0.5066 -0.0841
  167SAPE    C118802   2.850   6.161   6.211  0.4320 -0.2421 -0.1578
  167SAPE    HA18803   2.839   6.271   6.200  0.3066 -0.1198  1.0389
  167SAPE    HB18804   2.746   6.121   6.211  1.1632 -2.2832  0.8338
  167SAPE    C218805   2.916   6.136   6.349 -0.0811  0.8546 -0.1288
  167SAPE    HS18806   2.844   6.150   6.432 -0.1996  0.9377 -0.2461
  167SAPE   O2118807   3.032   6.215   6.369 -0.6485 -0.0602  0.0003
  167SAPE   C2118808   3.002   6.341   6.390 -0.3267 -0.1341  0.3477
  167SAPE   O2218809   2.894   6.384   6.412 -0.0297  0.3258 -0.0848
  167SAPE   C2218810   3.135   6.425   6.393 -0.4438  0.1485 -0.6974
  167SAPE   H2R18811   3.185   6.417   6.294  0.4813  2.0880 -0.4293
  167SAPE   H2S18812   3.109   6.532   6.404 -0.9099  0.1729 -1.9082
  167SAPE    C318813   2.963   5.996   6.360 -0.0171  0.0413  0.3573
  167SAPE    HX18814   3.038   5.987   6.279 -2.0786  0.3540 -1.6739
  167SAPE    HY18815   2.882   5.920   6.349 -1.2405  1.2027  1.0665
  167SAPE   O3118816   3.023   5.978   6.493  0.1907 -0.1518 -0.8579
  167SAPE   C3118817   3.146   5.925   6.500  0.5933  0.1338 -0.2619
  167SAPE   O3218818   3.205   5.891   6.406  0.2797  0.3405  0.8935
  167SAPE   C3218819   3.205   5.916   6.644  0.1242 -0.0790 -0.8078
  167SAPE   H2X18820   3.247   6.015   6.667  2.8878 -1.1077 -1.0839
  167SAPE   H2Y18821   3.293   5.848   6.634 -0.0337 -0.4820  0.4054
  167SAPE   C2318822   3.233   6.382   6.512  0.4718  0.1762 -0.4633
  167SAPE   H3R18823   3.333   6.425   6.489  0.8303 -0.5032 -0.1841
  167SAPE   H3S18824   3.248   6.274   6.494  2.6968  0.5816 -1.4292
  167SAPE   C2418825   3.179   6.420   6.649 -0.1886  0.1082 -0.0026
  167SAPE   H4R18826   3.075   6.383   6.665  0.6242 -2.2844  0.2372
  167SAPE   H4S18827   3.188   6.529   6.668 -1.3636 -0.1092  2.2081
  167SAPE   C2518828   3.263   6.359   6.759 -0.1396 -1.0182  0.2375
  167SAPE   H5R18829   3.356   6.311   6.723  0.5054 -0.6722  1.4028
  167SAPE   C2618830   3.233   6.342   6.893  0.2069  0.2235  0.4345
  167SAPE   H6R18831   3.315   6.296   6.950 -0.3780 -0.5754  0.6390
  167SAPE   C2718832   3.107   6.375   6.966  0.3940  0.4208 -0.0643
  167SAPE   H7R18833   3.043   6.434   6.897  0.0777 -0.0753 -0.1970
  167SAPE   H7S18834   3.137   6.432   7.056 -0.6733  0.6789  0.1351
  167SAPE   C2818835   3.046   6.240   7.012  0.7882 -0.2505  0.6630
  167SAPE   H8R18836   3.037   6.175   6.924 -0.1072  0.8189 -0.0650
  167SAPE   C2918837   2.999   6.194   7.130 -0.0606  0.3283  0.0714
  167SAPE   H9R18838   2.949   6.097   7.122  1.4441 -0.3908 -1.0341
  167SAPE  C21018839   2.981   6.270   7.264  0.7188  0.3866  0.0679
  167SAPE  H10R18840   2.874   6.301   7.270  0.7921  0.4832  1.1965
  167SAPE  H10S18841   3.036   6.366   7.263  0.9819  0.3360  2.4506
  167SAPE  C21118842   3.034   6.181   7.375  0.7700 -0.4729  0.1396
  167SAPE  H11R18843   3.135   6.138   7.366  1.0878  0.3526 -0.3154
  167SAPE  C21218844   2.966   6.147   7.480  0.0597 -0.1317 -0.5793
  167SAPE  H12R18845   3.018   6.095   7.561  0.1130  1.0575  0.1716
  167SAPE  C21318846   2.828   6.190   7.512 -0.1951 -0.0683  0.1212
  167SAPE  H13R18847   2.766   6.098   7.513 -0.7103  0.2421 -1.4023
  167SAPE  H13S18848   2.783   6.258   7.436 -1.8539  0.3348  1.3842
  167SAPE  C21418849   2.809   6.247   7.649  0.3480 -0.4348 -0.2920
  167SAPE  H14R18850   2.781   6.172   7.724 -0.9924  0.8878  0.5895
  167SAPE  C21518851   2.798   6.381   7.676  0.5921 -0.1074 -0.2953
  167SAPE  H15R18852   2.781   6.418   7.778  2.0107 -1.0512  0.3101
  167SAPE  C21618853   2.805   6.500   7.581  0.2458  1.0618 -0.3735
  167SAPE  H16R18854   2.738   6.579   7.621 -0.6680  0.1951 -0.1630
  167SAPE  H16S18855   2.770   6.468   7.480 -1.2975  2.8156 -0.4432
  167SAPE  C21718856   2.947   6.553   7.557  0.1216  0.0124  0.2055
  167SAPE  H17R18857   3.010   6.487   7.493 -0.3292 -1.6020  1.3648
  167SAPE  H17S18858   2.992   6.572   7.657 -0.5250 -0.2498  0.5459
  167SAPE  C21818859   2.933   6.695   7.501 -0.2170  0.2493  0.1442
  167SAPE  H18R18860   3.036   6.736   7.502  0.3508 -1.0651 -1.0440
  167SAPE  H18S18861   2.875   6.759   7.571 -1.8501  2.0657 -2.6681
  167SAPE  C21918862   2.880   6.697   7.361 -0.2165 -1.0139  0.4368
  167SAPE  H19R18863   2.769   6.693   7.366 -0.3922  1.4023 -0.4686
  167SAPE  H19S18864   2.918   6.604   7.312  0.5954 -0.3641 -0.1941
  167SAPE  C22018865   2.934   6.825   7.290 -0.2624 -0.4931  0.8056
  167SAPE  H20R18866   2.905   6.922   7.336 -2.5098 -1.5276  1.7036
  167SAPE  H20S18867   2.894   6.822   7.186  1.7034 -1.2008  0.0317
  167SAPE  H20T18868   3.044   6.830   7.281 -0.2644  1.2595  1.4622
  167SAPE   C3318869   3.092   5.861   6.741  0.0119 -0.0291 -0.1343
  167SAPE   H3X18870   3.071   5.757   6.709 -2.5889 -0.9346  3.7635
  167SAPE   H3Y18871   3.002   5.924   6.730 -0.4038 -0.7575 -1.0306
  167SAPE   C3418872   3.134   5.867   6.892 -0.0023  0.0571 -0.0846
  167SAPE   H4X18873   3.154   5.970   6.929 -0.0923  0.4728 -1.1425
  167SAPE   H4Y18874   3.230   5.811   6.902  0.6077  1.3018  1.5171
  167SAPE   C3518875   3.025   5.794   6.977  0.7108 -0.0562 -0.0115
  167SAPE   H5X18876   3.014   5.692   6.935  2.4978 -0.1739 -0.2782
  167SAPE   H5Y18877   2.929   5.847   6.961  1.3015  0.4339 -2.1549
  167SAPE   C3618878   3.066   5.761   7.128 -0.5386 -0.1204 -0.8467
  167SAPE   H6X18879   3.077   5.860   7.177 -0.8481  0.6892 -2.3539
  167SAPE   H6Y18880   3.167   5.718   7.110 -0.9208  0.1324 -4.3121
  167SAPE   C3718881   2.979   5.664   7.202 -0.3165  0.9231 -0.3734
  167SAPE   H7X18882   2.955   5.578   7.135  0.1285 -1.0108  1.8143
  167SAPE   H7Y18883   2.877   5.700   7.225 -0.4565  0.4069 -0.1728
  167SAPE   C3818884   3.028   5.610   7.349  0.1714  0.3143 -0.0255
  167SAPE   H8X18885   3.129   5.564   7.340  0.1729  0.2755  0.1673
  167SAPE   H8Y18886   2.968   5.523   7.383  0.7297  0.2143  0.7476
  167SAPE   C3918887   3.010   5.714   7.457 -0.0369  0.1429 -0.4904
  167SAPE   H9X18888   2.906   5.753   7.454  0.6231  2.4429  2.2300
  167SAPE   H9Y18889   3.072   5.800   7.424  0.0684  0.8440  1.4217
  167SAPE  C31018890   3.050   5.668   7.599  0.2660 -1.1576 -0.0347
  167SAPE  H10X18891   3.144   5.610   7.613  1.7869  0.0961 -3.7465
  167SAPE  H10Y18892   2.970   5.597   7.628  0.6261 -1.8310 -0.6789
  167SAPE  C31118893   3.050   5.791   7.683  0.3790  0.1053 -0.3126
  167SAPE  H11X18894   2.949   5.834   7.696  0.6287  0.2296  1.4380
  167SAPE  H11Y18895   3.102   5.874   7.630 -1.7070 -0.0261 -2.7467
  167SAPE  C31218896   3.133   5.775   7.817  0.4533 -0.4645  0.3615
  167SAPE  H12X18897   3.169   5.877   7.842 -0.8144  0.5609 -1.7157
  167SAPE  H12Y18898   3.221   5.712   7.792 -0.1128 -0.5634 -1.6082
  167SAPE  C31318899   3.053   5.718   7.929 -0.7141  0.6767  0.4905
  167SAPE  H13X18900   3.025   5.616   7.895  1.6150  0.4219 -0.8840
  167SAPE  H13Y18901   2.959   5.775   7.937 -3.0136 -2.8778  1.2026
  167SAPE  C31418902   3.133   5.720   8.058  0.7526 -0.1516  0.1708
  167SAPE  H14X18903   3.176   5.822   8.056  3.0175 -1.0720 -2.3097
  167SAPE  H14Y18904   3.213   5.643   8.052  1.4748  0.5761  0.3586
  167SAPE  C31518905   3.040   5.700   8.181 -0.3550  0.0688 -0.2116
  167SAPE  H15X18906   2.975   5.610   8.174  0.5628 -0.6743  0.3771
  167SAPE  H15Y18907   2.972   5.787   8.172 -0.5224 -0.1821 -1.6371
  167SAPE  C31618908   3.110   5.704   8.324 -0.1801 -0.1172  0.3529
  167SAPE  H16X18909   3.036   5.693   8.406 -0.3869 -2.2109 -0.0416
  167SAPE  H16Y18910   3.168   5.798   8.329  0.2113 -0.1192 -2.5404
  167SAPE  C31718911   3.210   5.594   8.348  0.0017 -0.6424 -0.3809
  167SAPE  H17X18912   3.290   5.607   8.271 -0.8269  0.0124 -1.1491
  167SAPE  H17Y18913   3.168   5.492   8.341 -1.5685 -0.2135  2.0157
  167SAPE  C31818914   3.277   5.604   8.484  0.1015 -0.3144 -0.3986
  167SAPE  H18X18915   3.310   5.708   8.502 -0.6414 -0.1686  0.1734
  167SAPE  H18Y18916   3.369   5.542   8.485  0.0412 -0.4151  0.9454
  167SAPE  H18Z18917   3.202   5.574   8.561 -2.0262  0.3031 -2.1334
  168SAPE     N18918   3.796   1.111   5.937  0.1028 -0.9509  0.4057
  168SAPE   HN118919   3.787   1.012   5.966  0.6219 -0.2744  3.2252
  168SAPE   HN218920   3.766   1.114   5.837 -0.3045 -4.1006  0.3448
  168SAPE   HN318921   3.894   1.135   5.962  0.2081 -3.0847  2.3432
  168SAPE   C1218922   3.695   1.182   6.023 -1.3405  0.2972  0.2447
  168SAPE  H12A18923   3.602   1.122   6.022 -1.9499  1.0881  2.6741
  168SAPE  H12B18924   3.682   1.285   5.984  1.0931  0.6562  0.2225
  168SAPE   C1118925   3.757   1.202   6.166  0.0092 -0.0970  0.0668
  168SAPE  H11A18926   3.751   1.104   6.218 -0.3992  0.2951  0.7771
  168SAPE  H11B18927   3.680   1.262   6.219  0.2315 -0.0540  0.3416
  168SAPE     P18928   4.015   1.189   6.217 -0.4631 -0.1725 -0.0855
  168SAPE   O1318929   4.034   1.071   6.132 -0.1972  0.5170 -0.0669
  168SAPE   O1418930   4.129   1.284   6.216 -0.4465 -0.2238 -0.2237
  168SAPE   O1218931   3.887   1.267   6.165  0.5253 -0.0446  0.1260
  168SAPE   O1118932   3.979   1.158   6.366  0.0973 -0.1816 -0.0246
  168SAPE    C118933   4.045   1.216   6.479  0.0648  0.2283  0.3387
  168SAPE    HA18934   4.130   1.284   6.455 -0.6150  1.6700  1.8192
  168SAPE    HB18935   3.971   1.286   6.525 -0.6975  0.1966 -0.7886
  168SAPE    C218936   4.110   1.121   6.578  0.4422 -0.6593  0.3021
  168SAPE    HS18937   4.218   1.118   6.554  0.3425 -0.5864 -0.1576
  168SAPE   O2118938   4.048   0.996   6.581  0.3086 -0.7369  0.5339
  168SAPE   C2118939   4.116   0.891   6.615  0.2378  0.8696 -0.4813
  168SAPE   O2218940   4.234   0.890   6.637 -0.5971  0.2509  0.5688
  168SAPE   C2218941   4.028   0.771   6.634  0.8289 -0.0015  0.3437
  168SAPE   H2R18942   3.930   0.793   6.587  0.3320  0.4340  1.5600
  168SAPE   H2S18943   4.069   0.690   6.569 -3.6891 -2.2248 -0.0842
  168SAPE    C318944   4.105   1.187   6.724 -0.4735 -0.0543 -0.6222
  168SAPE    HX18945   3.998   1.206   6.749 -0.2136 -1.0365  1.4722
  168SAPE    HY18946   4.150   1.288   6.721 -0.8789  0.1330 -0.5404
  168SAPE   O3118947   4.168   1.112   6.816  0.4798  0.1417 -0.1959
  168SAPE   C3118948   4.301   1.124   6.833  0.5110  0.1366 -0.5396
  168SAPE   O3218949   4.367   1.205   6.777  0.0449 -0.0722 -0.4579
  168SAPE   C3218950   4.353   1.015   6.943  0.2066 -0.0873  1.2178
  168SAPE   H2X18951   4.342   0.919   6.887 -2.9382 -0.0693  1.6551
  168SAPE   H2Y18952   4.287   1.013   7.032 -1.2233  1.3952  0.2484
  168SAPE   C2318953   4.005   0.723   6.775  0.1016  0.0930  0.4890
  168SAPE   H3R18954   3.899   0.693   6.782 -0.2290  1.5588  2.5670
  168SAPE   H3S18955   4.010   0.803   6.852 -1.3440  0.3172  0.3733
  168SAPE   C2418956   4.083   0.597   6.803  0.9536  0.7161 -0.2756
  168SAPE   H4R18957   4.083   0.542   6.706 -0.1393 -0.0628  0.1431
  168SAPE   H4S18958   4.028   0.541   6.881  1.9419  0.5929  0.3507
  168SAPE   C2518959   4.221   0.625   6.852 -0.4323  0.2620  0.3944
  168SAPE   H5R18960   4.289   0.663   6.774  0.1898 -0.8907  0.3591
  168SAPE   C2618961   4.273   0.600   6.973  0.3558  0.5073  0.3555
  168SAPE   H6R18962   4.377   0.626   6.997 -0.0582  0.4320  2.4026
  168SAPE   C2718963   4.197   0.530   7.092  0.6426  0.1078 -0.6464
  168SAPE   H7R18964   4.275   0.512   7.170  0.5321  1.7437 -0.1071
  168SAPE   H7S18965   4.153   0.432   7.064 -1.2467  0.4811  0.8528
  168SAPE   C2818966   4.077   0.611   7.142 -0.1158 -0.8066 -0.3106
  168SAPE   H8R18967   4.023   0.649   7.054  3.7199 -0.6034 -2.8660
  168SAPE   C2918968   4.027   0.633   7.264  1.3088 -0.5142  0.5221
  168SAPE   H9R18969   3.940   0.699   7.268  2.7455  1.5079 -0.0395
  168SAPE  C21018970   4.090   0.592   7.395 -0.3776 -0.2402 -0.7649
  168SAPE  H10R18971   4.026   0.621   7.481  1.6126  2.6012 -0.1299
  168SAPE  H10S18972   4.187   0.643   7.407  0.8326 -2.3713 -1.0268
  168SAPE  C21118973   4.120   0.444   7.418  0.2012  0.2438 -0.4902
  168SAPE  H11R18974   4.120   0.386   7.325  1.4059 -0.1684 -0.2590
  168SAPE  C21218975   4.135   0.383   7.537 -0.4733  0.6172  0.0558
  168SAPE  H12R18976   4.153   0.274   7.537  1.5900  0.8974 -1.6693
  168SAPE  C21318977   4.136   0.448   7.674  0.3060  0.5760  0.1550
  168SAPE  H13R18978   4.052   0.405   7.734 -0.9752  0.9829 -1.2748
  168SAPE  H13S18979   4.122   0.558   7.669  1.1662  0.7505  1.3089
  168SAPE  C21418980   4.266   0.415   7.746  0.1963  0.0477  0.0744
  168SAPE  H14R18981   4.352   0.377   7.689  0.4249  2.6954 -1.5278
  168SAPE  C21518982   4.285   0.454   7.873 -0.4618 -0.3904 -0.0474
  168SAPE  H15R18983   4.378   0.418   7.921 -0.2044 -1.9636 -1.6137
  168SAPE  C21618984   4.183   0.530   7.956  0.2224  0.2571  0.0920
  168SAPE  H16R18985   4.083   0.542   7.910 -1.8464 -0.8323  3.8644
  168SAPE  H16S18986   4.226   0.626   7.993 -0.9640  0.2490  1.5923
  168SAPE  C21718987   4.147   0.446   8.076  0.2489  0.3094  0.5701
  168SAPE  H17R18988   4.120   0.343   8.045 -0.2043  0.8014 -0.7160
  168SAPE  H17S18989   4.059   0.494   8.123  0.6202  0.3272  1.2627
  168SAPE  C21818990   4.261   0.438   8.179 -0.8448  0.7231 -0.1453
  168SAPE  H18R18991   4.312   0.537   8.187 -0.8192  0.6441  0.7522
  168SAPE  H18S18992   4.344   0.370   8.149 -1.1309  1.2249 -2.1918
  168SAPE  C21918993   4.216   0.400   8.317 -0.0053  0.5474 -0.6360
  168SAPE  H19R18994   4.141   0.318   8.311 -0.6667  0.7696  2.6447
  168SAPE  H19S18995   4.149   0.477   8.361 -0.6300 -0.1463 -0.3437
  168SAPE  C22018996   4.332   0.372   8.414  0.2081 -0.6852  0.7730
  168SAPE  H20R18997   4.287   0.344   8.512 -0.8623  0.8772  0.7635
  168SAPE  H20S18998   4.400   0.458   8.429 -0.1145 -0.6781  2.3556
  168SAPE  H20T18999   4.401   0.295   8.373  0.9809 -0.1140  0.9778
  168SAPE   C3319000   4.495   1.049   6.995  0.0627  0.1935  0.7071
  168SAPE   H3X19001   4.505   1.151   7.038 -0.3965  1.4165 -1.8347
  168SAPE   H3Y19002   4.574   1.039   6.917  0.6209 -1.1341  1.4185
  168SAPE   C3419003   4.549   0.948   7.089 -0.5699 -0.1744  0.3916
  168SAPE   H4X19004   4.657   0.934   7.068 -0.1557 -0.1449  2.3247
  168SAPE   H4Y19005   4.487   0.857   7.073  1.2081 -1.1318 -1.4701
  168SAPE   C3519006   4.529   0.982   7.235  0.1028  0.5367 -0.0072
  168SAPE   H5X19007   4.419   0.994   7.246  0.2234  0.3514  1.8313
  168SAPE   H5Y19008   4.567   1.079   7.275 -1.3368  0.4376  1.7271
  168SAPE   C3619009   4.574   0.877   7.336 -0.6847  0.0399  0.0814
  168SAPE   H6X19010   4.684   0.873   7.351 -0.5296  0.6337 -0.8059
  168SAPE   H6Y19011   4.546   0.781   7.287 -1.8320  0.3915  0.0039
  168SAPE   C3719012   4.508   0.889   7.479 -0.1693  0.0779 -0.6850
  168SAPE   H7X19013   4.499   0.999   7.496  0.2611  0.3323 -2.0112
  168SAPE   H7Y19014   4.584   0.852   7.551  1.8379  0.4753 -2.5170
  168SAPE   C3819015   4.367   0.829   7.484  0.3871 -0.3628 -0.0231
  168SAPE   H8X19016   4.380   0.724   7.516  0.4904  0.1266  1.6577
  168SAPE   H8Y19017   4.317   0.847   7.386 -0.8414 -1.7093  0.3208
  168SAPE   C3919018   4.280   0.903   7.584  0.0790  0.0065  0.5243
  168SAPE   H9X19019   4.174   0.900   7.549  0.0292  0.5649  0.6209
  168SAPE   H9Y19020   4.308   1.009   7.598 -1.1858  0.4388 -0.1153
  168SAPE  C31019021   4.302   0.849   7.727  0.0965  0.0741  0.5827
  168SAPE  H10X19022   4.408   0.864   7.758  0.7059  0.4183 -1.4920
  168SAPE  H10Y19023   4.277   0.742   7.710  0.2984  0.1757 -0.4899
  168SAPE  C31119024   4.209   0.909   7.828  0.4089 -0.4283  0.3753
  168SAPE  H11X19025   4.217   0.849   7.922  1.0388 -0.9988 -0.0350
  168SAPE  H11Y19026   4.106   0.895   7.789  1.1366  0.2587 -1.8893
  168SAPE  C31219027   4.236   1.051   7.858  0.0183 -0.5453  0.2943
  168SAPE  H12X19028   4.173   1.125   7.804  1.1178  0.0372 -0.2179
  168SAPE  H12Y19029   4.340   1.063   7.823 -0.5401 -0.9937 -1.6370
  168SAPE  C31319030   4.203   1.084   8.006 -0.0308 -0.2948 -0.9587
  168SAPE  H13X19031   4.105   1.045   8.041 -0.0574  0.0266 -0.6708
  168SAPE  H13Y19032   4.191   1.194   8.010  2.1930 -0.0256  1.2291
  168SAPE  C31419033   4.313   1.042   8.115 -0.0630 -0.4928  0.3787
  168SAPE  H14X19034   4.405   1.099   8.089  0.1573 -1.0057  0.0295
  168SAPE  H14Y19035   4.347   0.936   8.110 -0.2382 -0.4804 -1.4370
  168SAPE  C31519036   4.266   1.080   8.256 -1.0456  0.0459  0.8491
  168SAPE  H15X19037   4.161   1.047   8.269 -1.4397  1.1600  0.5845
  168SAPE  H15Y19038   4.270   1.191   8.265  1.0865 -0.0352  1.5035
  168SAPE  C31619039   4.356   1.031   8.362  0.2628 -0.3789 -0.5528
  168SAPE  H16X19040   4.346   1.110   8.438 -0.5456  0.1822 -1.2307
  168SAPE  H16Y19041   4.464   1.031   8.335  0.8873  0.0147  1.7447
  168SAPE  C31719042   4.316   0.899   8.431 -0.1364 -0.3870  0.4128
  168SAPE  H17X19043   4.206   0.903   8.446  0.0261  0.0554  1.5795
  168SAPE  H17Y19044   4.346   0.904   8.537 -1.2670 -0.6960  0.7617
  168SAPE  C31819045   4.373   0.775   8.370  0.2774 -0.2076  0.2929
  168SAPE  H18X19046   4.353   0.687   8.434  1.2323 -0.1156  0.7215
  168SAPE  H18Y19047   4.483   0.781   8.359  0.3517 -2.8002 -1.2655
  168SAPE  H18Z19048   4.324   0.757   8.272 -0.1670  2.1586  0.0097
  169SAPE     N19049   4.764   6.559   6.162  0.1593  0.3285 -0.1884
  169SAPE   HN119050   4.821   6.526   6.081 -1.6927 -3.3007 -0.2295
  169SAPE   HN219051   4.804   6.533   6.254 -0.5910  2.4717  0.7974
  169SAPE   HN319052   4.680   6.499   6.152  0.7971 -0.8724  1.1822
  169SAPE   C1219053   4.735   6.702   6.174  0.1389  0.3676 -0.0228
  169SAPE  H12A19054   4.701   6.746   6.078  0.6421  2.4085  0.6932
  169SAPE  H12B19055   4.824   6.756   6.213 -0.9219  1.2329  1.2636
  169SAPE   C1119056   4.609   6.737   6.265  0.3842  0.3170 -0.2303
  169SAPE  H11A19057   4.593   6.846   6.254  0.9822  0.3005 -1.4685
  169SAPE  H11B19058   4.626   6.704   6.369  1.5452  1.6346  0.0137
  169SAPE     P19059   4.355   6.688   6.295  0.0957  0.1471 -0.4764
  169SAPE   O1319060   4.339   6.830   6.323  0.1623  0.6591  0.7476
  169SAPE   O1419061   4.247   6.624   6.222 -0.5427  0.0075  0.3555
  169SAPE   O1219062   4.494   6.668   6.219 -0.1392  0.0236  0.5823
  169SAPE   O1119063   4.391   6.617   6.432 -0.0249  0.1255 -0.0848
  169SAPE    C119064   4.445   6.486   6.438  0.2590 -0.1006 -0.2500
  169SAPE    HA19065   4.515   6.461   6.356  1.1037 -0.0086  0.4380
  169SAPE    HB19066   4.509   6.489   6.528 -0.0647  1.4747 -0.0348
  169SAPE    C219067   4.339   6.378   6.468  0.7007 -0.4008  0.0794
  169SAPE    HS19068   4.277   6.385   6.377  0.5688 -0.7844  0.1339
  169SAPE   O2119069   4.272   6.417   6.594  0.3047  0.2626  0.0164
  169SAPE   C2119070   4.155   6.372   6.616  0.1212  0.6114 -0.1513
  169SAPE   O2219071   4.088   6.289   6.555 -0.1881  0.0805  0.2663
  169SAPE   C2219072   4.110   6.427   6.754 -0.4046  0.2449  0.0044
  169SAPE   H2R19073   4.140   6.533   6.768  0.5726 -0.1347  0.9115
  169SAPE   H2S19074   3.999   6.440   6.749 -0.1318  3.6978  0.0806
  169SAPE    C319075   4.397   6.235   6.474  0.3914 -0.3774  0.2540
  169SAPE    HX19076   4.427   6.217   6.368  1.4648  0.7198  0.3465
  169SAPE    HY19077   4.322   6.156   6.497  0.1412  0.1090  1.1410
  169SAPE   O3119078   4.513   6.236   6.556  0.4891  0.0555 -0.1193
  169SAPE   C3119079   4.493   6.198   6.682 -0.1308  0.2170  0.0510
  169SAPE   O3219080   4.389   6.178   6.736  0.9490  0.0753 -0.1980
  169SAPE   C3219081   4.628   6.173   6.753  0.0583  0.2685  0.9517
  169SAPE   H2X19082   4.690   6.259   6.721  0.5515 -0.4626 -0.0915
  169SAPE   H2Y19083   4.685   6.092   6.705 -2.2278  0.0713 -1.6867
  169SAPE   C2319084   4.151   6.340   6.874 -0.3538  0.0069  0.4117
  169SAPE   H3R19085   4.262   6.349   6.868 -0.5103  0.8303 -3.3198
  169SAPE   H3S19086   4.134   6.230   6.863  0.5028 -0.0314 -0.6668
  169SAPE   C2419087   4.073   6.382   6.999 -0.8641 -0.6986  0.2827
  169SAPE   H4R19088   4.099   6.306   7.076  0.8901 -0.1397  0.3054
  169SAPE   H4S19089   3.968   6.371   6.966 -0.5780  0.6817 -1.2272
  169SAPE   C2519090   4.092   6.521   7.061  1.3408  0.0789  0.6316
  169SAPE   H5R19091   4.116   6.604   6.993 -1.9951  1.6476  1.1787
  169SAPE   C2619092   4.058   6.544   7.187 -0.6615 -0.6423  0.3164
  169SAPE   H6R19093   4.051   6.648   7.221  0.0213 -0.3532 -0.3982
  169SAPE   C2719094   4.002   6.451   7.293 -0.1407 -1.0236 -0.2258
  169SAPE   H7R19095   4.076   6.458   7.376 -0.0935 -0.1555 -0.3356
  169SAPE   H7S19096   4.004   6.342   7.273 -1.3285 -0.6686 -2.5651
  169SAPE   C2819097   3.865   6.483   7.352 -0.1971 -0.0657  0.1590
  169SAPE   H8R19098   3.797   6.562   7.315 -0.2857 -0.5603 -0.7930
  169SAPE   C2919099   3.801   6.428   7.461  0.0191 -0.5405 -0.1168
  169SAPE   H9R19100   3.699   6.465   7.476  0.4857  1.7167 -1.8754
  169SAPE  C21019101   3.858   6.318   7.543  1.0537 -0.1676  0.2814
  169SAPE  H10R19102   3.924   6.253   7.481  0.5100 -0.1273 -0.3474
  169SAPE  H10S19103   3.770   6.257   7.572  0.0555  0.8816 -0.4546
  169SAPE  C21119104   3.938   6.370   7.660 -0.0923  0.1153 -0.2465
  169SAPE  H11R19105   4.048   6.367   7.656 -0.0696 -0.2686  0.4264
  169SAPE  C21219106   3.889   6.378   7.787  0.4683 -0.3467  0.0334
  169SAPE  H12R19107   3.958   6.421   7.861  0.2351 -0.4511  0.3121
  169SAPE  C21319108   3.747   6.345   7.831  0.1020 -0.0494 -0.3549
  169SAPE  H13R19109   3.742   6.253   7.894 -1.2821  0.0635 -0.2592
  169SAPE  H13S19110   3.680   6.315   7.747 -1.0395 -3.7733  1.6207
  169SAPE  C21419111   3.694   6.472   7.894  0.7648  0.3950  0.4582
  169SAPE  H14R19112   3.656   6.545   7.821  3.1206  0.6831 -0.5719
  169SAPE  C21519113   3.687   6.512   8.026 -0.5136 -0.0877 -0.2712
  169SAPE  H15R19114   3.652   6.612   8.055  0.6379  0.0766  0.6183
  169SAPE  C21619115   3.739   6.440   8.144 -0.4831  0.3087  0.3328
  169SAPE  H16R19116   3.802   6.511   8.202  0.0808  0.8301 -0.8878
  169SAPE  H16S19117   3.810   6.365   8.103 -1.3491 -0.4534  0.1924
  169SAPE  C21719118   3.631   6.361   8.222  0.2204 -0.0035  0.2825
  169SAPE  H17R19119   3.550   6.423   8.266  0.8674  2.6459 -1.9741
  169SAPE  H17S19120   3.690   6.322   8.308  0.6055  0.5186  0.2645
  169SAPE  C21819121   3.572   6.238   8.145  0.1491 -0.4819  0.9931
  169SAPE  H18R19122   3.662   6.175   8.124 -0.1958 -0.3732 -1.0595
  169SAPE  H18S19123   3.528   6.272   8.049 -0.0080  2.9490  2.1667
  169SAPE  C21919124   3.460   6.175   8.227  0.0390 -0.1363 -0.3973
  169SAPE  H19R19125   3.379   6.250   8.213 -0.1835 -0.7441 -2.9070
  169SAPE  H19S19126   3.486   6.169   8.335  3.6485  0.3300 -1.1231
  169SAPE  C22019127   3.407   6.043   8.184  0.4879 -0.4005 -0.3772
  169SAPE  H20R19128   3.382   6.041   8.076 -2.0150  1.8731  0.0592
  169SAPE  H20S19129   3.313   6.012   8.234  1.1177 -0.6850  0.6546
  169SAPE  H20T19130   3.475   5.962   8.217 -0.7741 -2.4876 -2.5466
  169SAPE   C3319131   4.633   6.130   6.898  0.0110  0.0087 -0.2735
  169SAPE   H3X19132   4.707   6.049   6.916 -0.5858 -0.1252  1.8255
  169SAPE   H3Y19133   4.536   6.092   6.934 -0.5379  0.5325 -1.1691
  169SAPE   C3419134   4.661   6.246   6.995  0.1916 -0.1962 -0.8118
  169SAPE   H4X19135   4.604   6.338   6.968  2.1756  1.8207  1.3493
  169SAPE   H4Y19136   4.764   6.285   6.984 -0.6840  2.5874 -0.0350
  169SAPE   C3519137   4.626   6.218   7.142 -0.3328 -0.2736  0.4979
  169SAPE   H5X19138   4.674   6.297   7.202 -3.9584  2.1027  0.5676
  169SAPE   H5Y19139   4.672   6.119   7.166  0.2229 -0.1044  0.1681
  169SAPE   C3619140   4.473   6.225   7.173  0.2197 -0.4954  0.1937
  169SAPE   H6X19141   4.414   6.163   7.102 -0.5484 -0.9403  1.1844
  169SAPE   H6Y19142   4.433   6.327   7.154 -1.1597 -1.0762 -0.1385
  169SAPE   C3719143   4.430   6.177   7.314  0.1679  1.5137 -0.6525
  169SAPE   H7X19144   4.441   6.067   7.311 -2.1658  1.2341 -1.7731
  169SAPE   H7Y19145   4.320   6.193   7.314 -0.3702 -1.5552 -1.2880
  169SAPE   C3819146   4.488   6.234   7.446 -0.9191  0.0511 -0.4564
  169SAPE   H8X19147   4.483   6.345   7.446 -3.3122  0.0035  0.0829
  169SAPE   H8Y19148   4.596   6.208   7.452 -0.6262  0.7837 -2.1103
  169SAPE   C3919149   4.406   6.170   7.566 -0.3654  0.0267 -0.4798
  169SAPE   H9X19150   4.426   6.061   7.563  0.3993  0.0449  1.9723
  169SAPE   H9Y19151   4.297   6.181   7.550 -0.4662  0.8078  0.6309
  169SAPE  C31019152   4.442   6.222   7.709  0.1873  0.4891  0.7332
  169SAPE  H10X19153   4.488   6.319   7.680 -0.1160  0.0955 -1.1566
  169SAPE  H10Y19154   4.514   6.149   7.750 -0.6607 -1.7060 -1.4519
  169SAPE  C31119155   4.322   6.230   7.802 -0.1416 -0.6453 -0.8927
  169SAPE  H11X19156   4.302   6.128   7.843 -1.0430 -0.2291 -0.2608
  169SAPE  H11Y19157   4.232   6.269   7.749 -1.1880  2.9791  2.9854
  169SAPE  C31219158   4.336   6.325   7.926  0.1931  0.8552 -0.3348
  169SAPE  H12X19159   4.363   6.430   7.901 -1.7668  2.0428  2.0969
  169SAPE  H12Y19160   4.423   6.293   7.988  0.5863  0.4544 -1.0782
  169SAPE  C31319161   4.216   6.327   8.024  0.3510  1.0239 -0.5692
  169SAPE  H13X19162   4.178   6.225   8.047  2.0930  0.6203  0.7674
  169SAPE  H13Y19163   4.131   6.381   7.978 -0.8477  0.6267  1.0914
  169SAPE  C31419164   4.249   6.405   8.159  0.2484  0.0876  0.5856
  169SAPE  H14X19165   4.282   6.505   8.123 -0.7360  0.0839 -0.4089
  169SAPE  H14Y19166   4.335   6.358   8.210 -0.1467 -0.0019  1.1732
  169SAPE  C31519167   4.128   6.415   8.247  1.4385  0.4250 -0.6033
  169SAPE  H15X19168   4.068   6.322   8.238  3.3643 -0.9095 -0.3274
  169SAPE  H15Y19169   4.058   6.495   8.217 -0.5936 -0.8509  0.5131
  169SAPE  C31619170   4.179   6.432   8.399 -0.7522  0.2086  0.6787
  169SAPE  H16X19171   4.246   6.520   8.399  1.2946 -1.2636  0.1803
  169SAPE  H16Y19172   4.232   6.340   8.432  0.1673  0.5527  0.2078
  169SAPE  C31719173   4.065   6.457   8.497 -0.6229 -0.0538  0.5575
  169SAPE  H17X19174   4.029   6.561   8.484  1.8765  0.7329 -0.7422
  169SAPE  H17Y19175   4.100   6.448   8.602 -1.1827 -0.4126  0.7182
  169SAPE  C31819176   3.946   6.357   8.474  0.4560 -0.6501  1.2241
  169SAPE  H18X19177   3.868   6.371   8.552 -1.7731  0.7976 -1.1147
  169SAPE  H18Y19178   3.983   6.252   8.476  1.7129 -0.2679 -0.1342
  169SAPE  H18Z19179   3.900   6.376   8.376 -2.0458 -0.6499  2.3340
  170SAPE     N19180   4.700   1.796   6.376  0.2626 -0.5333  0.2174
  170SAPE   HN119181   4.799   1.799   6.409 -0.0598 -2.4341  1.5195
  170SAPE   HN219182   4.645   1.870   6.426 -1.8628 -2.4755  0.9101
  170SAPE   HN319183   4.661   1.705   6.406  0.4272 -1.2619 -1.6855
  170SAPE   C1219184   4.693   1.800   6.227  0.0720 -0.3304 -0.6330
  170SAPE  H12A19185   4.706   1.699   6.183  2.0109  0.9222 -3.1722
  170SAPE  H12B19186   4.782   1.854   6.188  0.2240  0.6986  1.0184
  170SAPE   C1119187   4.563   1.850   6.157  0.0503 -0.0856  0.1488
  170SAPE  H11A19188   4.566   1.834   6.047  1.8527 -0.2602  0.2061
  170SAPE  H11B19189   4.567   1.960   6.173  1.2553 -0.0959 -0.0442
  170SAPE     P19190   4.302   1.860   6.209 -0.4739  0.5487  0.2429
  170SAPE   O1319191   4.320   2.005   6.196  0.3119  0.0388 -0.5514
  170SAPE   O1419192   4.236   1.792   6.099 -0.3746 -0.0243 -0.2331
  170SAPE   O1219193   4.445   1.798   6.217 -0.7178  0.1046  0.2672
  170SAPE   O1119194   4.235   1.824   6.340 -0.2220 -0.4278 -0.4983
  170SAPE    C119195   4.224   1.687   6.383 -0.0552  0.1583  0.3633
  170SAPE    HA19196   4.145   1.635   6.324  0.3696  0.4841 -0.5078
  170SAPE    HB19197   4.315   1.630   6.355  0.9713  2.9741 -2.6026
  170SAPE    C219198   4.209   1.685   6.537  0.0465  0.3115  0.1946
  170SAPE    HS19199   4.223   1.581   6.575 -2.3174  0.5171  1.8876
  170SAPE   O2119200   4.091   1.746   6.586 -0.4097  0.4117  0.6226
  170SAPE   C2119201   3.982   1.670   6.561 -0.9129 -0.8191  0.3959
  170SAPE   O2219202   3.986   1.553   6.517 -0.3097 -0.0647 -0.3455
  170SAPE   C2219203   3.868   1.748   6.628 -0.1019 -0.4398  0.2947
  170SAPE   H2R19204   3.900   1.774   6.731 -1.9891 -0.0388  0.8305
  170SAPE   H2S19205   3.862   1.847   6.578 -0.5025 -0.6933 -0.1809
  170SAPE    C319206   4.324   1.765   6.600  0.2197  0.2539  1.0428
  170SAPE    HX19207   4.300   1.872   6.584  1.0746  0.4593  1.0729
  170SAPE    HY19208   4.426   1.741   6.563  0.4423  0.3598  1.5758
  170SAPE   O3119209   4.322   1.729   6.740  0.4880  0.1432 -0.3094
  170SAPE   C3119210   4.356   1.832   6.824  0.1333  0.0926  0.6008
  170SAPE   O3219211   4.388   1.942   6.789 -0.2801 -0.7888  0.1322
  170SAPE   C3219212   4.359   1.777   6.964 -0.4469  0.6783 -0.2010
  170SAPE   H2X19213   4.266   1.720   6.981 -0.6036  0.8506 -0.4784
  170SAPE   H2Y19214   4.344   1.858   7.039 -4.5250 -0.0758  0.0089
  170SAPE   C2319215   3.738   1.664   6.616  0.1818 -0.2134  0.0150
  170SAPE   H3R19216   3.738   1.613   6.517  0.8103 -0.8464  0.3319
  170SAPE   H3S19217   3.643   1.719   6.633  0.9205  1.0255  0.2834
  170SAPE   C2419218   3.728   1.550   6.723 -0.0004  0.3886 -0.3940
  170SAPE   H4R19219   3.788   1.463   6.689  0.3465  1.1314 -1.7630
  170SAPE   H4S19220   3.624   1.509   6.719  0.7458 -1.8961  1.2645
  170SAPE   C2519221   3.761   1.611   6.863  0.0692  0.1541  0.1474
  170SAPE   H5R19222   3.714   1.709   6.879 -4.1185 -1.6967  0.4913
  170SAPE   C2619223   3.835   1.544   6.957  0.5000  0.1723  0.8104
  170SAPE   H6R19224   3.846   1.586   7.058  0.6181 -1.1894  1.3842
  170SAPE   C2719225   3.901   1.411   6.946 -0.4278 -0.1050 -0.0502
  170SAPE   H7R19226   3.882   1.361   6.849  0.4931  1.7710 -1.2628
  170SAPE   H7S19227   3.855   1.343   7.021  0.4688 -1.8034 -0.9678
  170SAPE   C2819228   4.053   1.436   6.960 -0.1363  0.1531 -0.5816
  170SAPE   H8R19229   4.090   1.495   6.875 -1.0518  0.3680 -0.8481
  170SAPE   C2919230   4.135   1.404   7.062 -0.0413 -0.1797 -0.4507
  170SAPE   H9R19231   4.242   1.430   7.063  0.6109 -2.6283  0.4434
  170SAPE  C21019232   4.103   1.328   7.186  0.2742  0.0307 -0.6879
  170SAPE  H10R19233   4.017   1.261   7.165 -0.9885  1.6987 -1.0315
  170SAPE  H10S19234   4.054   1.396   7.258  3.0823 -0.8621  2.3122
  170SAPE  C21119235   4.213   1.251   7.250  0.3498 -0.3829 -0.1626
  170SAPE  H11R19236   4.283   1.200   7.182  0.9014 -0.1304  0.2110
  170SAPE  C21219237   4.229   1.250   7.388 -1.3782 -0.2533  0.2527
  170SAPE  H12R19238   4.319   1.196   7.421 -1.4800 -0.7408 -0.2560
  170SAPE  C21319239   4.164   1.324   7.495  0.6440 -0.3078 -0.7068
  170SAPE  H13R19240   4.162   1.265   7.589 -1.8907 -1.9794 -1.6936
  170SAPE  H13S19241   4.060   1.359   7.474  0.8333  2.2688  2.0401
  170SAPE  C21419242   4.250   1.444   7.523  0.0590 -0.4156  0.3830
  170SAPE  H14R19243   4.271   1.502   7.432  0.5677 -1.7527 -0.3801
  170SAPE  C21519244   4.311   1.491   7.639  0.1098  0.2586 -0.4132
  170SAPE  H15R19245   4.361   1.589   7.640  0.1809  0.2758  2.5116
  170SAPE  C21619246   4.308   1.416   7.775  0.3416 -0.1721 -0.0087
  170SAPE  H16R19247   4.410   1.413   7.818 -0.5329  0.4974  2.2452
  170SAPE  H16S19248   4.276   1.309   7.776  0.8412 -0.3424  2.1248
  170SAPE  C21719249   4.236   1.463   7.904  0.2525  0.8554  0.2191
  170SAPE  H17R19250   4.270   1.563   7.939  0.2482  0.7271  0.6011
  170SAPE  H17S19251   4.275   1.388   7.977  1.3577  0.0292 -1.1844
  170SAPE  C21819252   4.083   1.467   7.887 -0.4139 -0.4030  0.1636
  170SAPE  H18R19253   4.043   1.378   7.835  0.2394 -0.8182  0.3630
  170SAPE  H18S19254   4.059   1.558   7.828  0.9170  0.9334  1.5589
  170SAPE  C21919255   4.018   1.481   8.027  0.0212 -0.5292 -0.1451
  170SAPE  H19R19256   4.049   1.404   8.101  1.7898  1.9940  1.9118
  170SAPE  H19S19257   3.908   1.466   8.019 -0.0852 -0.5481  1.1610
  170SAPE  C22019258   4.031   1.610   8.095 -0.6198  0.0315 -0.6068
  170SAPE  H20R19259   3.973   1.605   8.190 -0.4757 -0.5138 -0.5441
  170SAPE  H20S19260   4.007   1.695   8.028 -0.8813  0.4895  0.0527
  170SAPE  H20T19261   4.137   1.629   8.122 -0.2032 -0.6946 -1.6773
  170SAPE   C3319262   4.474   1.680   6.999 -0.0451  0.3831  0.2218
  170SAPE   H3X19263   4.567   1.737   6.977 -0.0476  0.1821 -0.3380
  170SAPE   H3Y19264   4.487   1.594   6.929  0.0201  1.4595 -1.1224
  170SAPE   C3419265   4.472   1.640   7.141 -0.0103  0.5332 -0.5430
  170SAPE   H4X19266   4.373   1.599   7.172  0.9248 -1.0077  0.5364
  170SAPE   H4Y19267   4.466   1.726   7.212 -0.1203 -0.4675  0.6991
  170SAPE   C3519268   4.580   1.535   7.192 -0.6293  0.7455  0.0463
  170SAPE   H5X19269   4.682   1.577   7.181 -0.5275  0.3038 -0.7561
  170SAPE   H5Y19270   4.573   1.448   7.123 -2.3015  0.7287  0.1859
  170SAPE   C3619271   4.549   1.467   7.327 -0.0638 -0.4527 -0.0258
  170SAPE   H6X19272   4.457   1.407   7.312 -1.3476  1.8048 -1.5427
  170SAPE   H6Y19273   4.517   1.539   7.405 -2.1541 -0.8984 -0.4152
  170SAPE   C3719274   4.666   1.392   7.386 -0.4259 -0.1527  0.6065
  170SAPE   H7X19275   4.759   1.453   7.385 -0.6893  0.2476  0.1283
  170SAPE   H7Y19276   4.678   1.296   7.333 -1.3790 -1.6600  2.9470
  170SAPE   C3819277   4.640   1.372   7.532 -0.0580  0.6037 -0.4693
  170SAPE   H8X19278   4.545   1.319   7.553  0.7248 -0.0248  1.7814
  170SAPE   H8Y19279   4.634   1.470   7.583  2.0751 -0.3918  1.9991
  170SAPE   C3919280   4.748   1.302   7.614  0.9250  0.1478 -0.7477
  170SAPE   H9X19281   4.833   1.373   7.621  0.0155  1.1220  1.4334
  170SAPE   H9Y19282   4.782   1.203   7.577  1.1661 -0.8357  1.8819
  170SAPE  C31019283   4.693   1.273   7.754 -0.2528  0.1835  0.8615
  170SAPE  H10X19284   4.620   1.190   7.746 -0.1227 -0.0562  2.0356
  170SAPE  H10Y19285   4.647   1.362   7.802  1.7158  1.2427  0.9016
  170SAPE  C31119286   4.807   1.226   7.843  0.1054  0.7288 -0.2000
  170SAPE  H11X19287   4.869   1.313   7.869  0.0685  1.2156 -1.6380
  170SAPE  H11Y19288   4.866   1.156   7.780 -2.4291 -0.1049 -1.8084
  170SAPE  C31219289   4.742   1.158   7.970 -0.0511  0.4628 -0.2095
  170SAPE  H12X19290   4.655   1.217   8.007 -0.4420 -0.9492  1.2037
  170SAPE  H12Y19291   4.824   1.161   8.044  0.6071 -1.8545 -0.7832
  170SAPE  C31319292   4.708   1.012   7.956 -0.0164  0.4242  0.5492
  170SAPE  H13X19293   4.794   0.960   7.909  0.5238  1.8914 -0.1462
  170SAPE  H13Y19294   4.626   1.000   7.882  1.7316 -2.0922 -1.1481
  170SAPE  C31419295   4.672   0.937   8.087  0.3561  0.0384  0.2319
  170SAPE  H14X19296   4.635   0.842   8.045 -0.6684  0.5454 -0.0512
  170SAPE  H14Y19297   4.591   0.994   8.137 -0.4662  1.9335 -2.9458
  170SAPE  C31519298   4.788   0.914   8.190  0.1276 -0.0422 -0.5746
  170SAPE  H15X19299   4.886   0.921   8.137  0.5246 -0.9324  0.0193
  170SAPE  H15Y19300   4.780   0.806   8.215  3.5065 -0.2842  0.0085
  170SAPE  C31619301   4.782   0.997   8.320 -0.2554 -0.6718 -0.4515
  170SAPE  H16X19302   4.859   0.947   8.383 -2.0445 -1.7912  0.9466
  170SAPE  H16Y19303   4.680   0.987   8.362 -0.2969 -1.1261 -0.6469
  170SAPE  C31719304   4.831   1.143   8.316  0.1020 -0.0208  0.2990
  170SAPE  H17X19305   4.763   1.214   8.265 -0.6054  0.6504  2.0886
  170SAPE  H17Y19306   4.917   1.140   8.246 -0.0432 -1.3341  0.1423
  170SAPE  C31819307   4.856   1.204   8.457  0.7074 -0.2143 -0.4315
  170SAPE  H18X19308   4.925   1.136   8.510 -1.7603 -1.0822  1.8642
  170SAPE  H18Y19309   4.764   1.215   8.519  0.2608 -0.5982 -1.0079
  170SAPE  H18Z19310   4.906   1.302   8.442  0.3637 -0.2635 -2.1325
  171SAPE     N19311   0.605   5.381   6.245  0.0505 -0.7588  0.1274
  171SAPE   HN119312   0.511   5.421   6.264 -0.0988 -0.4749 -1.1553
  171SAPE   HN219313   0.676   5.455   6.263  0.4016 -0.6997 -1.3842
  171SAPE   HN319314   0.601   5.356   6.144 -0.6990 -2.6116  0.5700
  171SAPE   C1219315   0.644   5.262   6.337  0.5357  0.3114  0.2810
  171SAPE  H12A19316   0.547   5.224   6.375  1.0048 -0.9444  0.2575
  171SAPE  H12B19317   0.706   5.300   6.421  0.8912 -2.1041  1.1781
  171SAPE   C1119318   0.738   5.164   6.261  0.2407 -1.3053 -0.3389
  171SAPE  H11A19319   0.671   5.135   6.178 -0.3786  0.1851 -0.3922
  171SAPE  H11B19320   0.757   5.081   6.332  0.9156 -0.4409  0.5242
  171SAPE     P19321   0.964   5.153   6.141 -0.0245 -0.1760 -0.1493
  171SAPE   O1319322   0.896   5.035   6.077 -0.3772 -0.1158 -0.1865
  171SAPE   O1419323   1.029   5.249   6.050  0.3319  0.2858  0.2699
  171SAPE   O1219324   0.859   5.230   6.224  0.1645  0.2303  0.0111
  171SAPE   O1119325   1.068   5.095   6.253  0.0274  0.2128  0.4424
  171SAPE    C119326   1.016   5.000   6.352 -0.2170 -0.7154  0.2716
  171SAPE    HA19327   0.925   4.945   6.321 -0.4225 -0.3566  0.2306
  171SAPE    HB19328   1.100   4.932   6.379  2.8113  1.9419 -1.6793
  171SAPE    C219329   0.996   5.072   6.493 -0.1377  0.5157  0.4484
  171SAPE    HS19330   0.910   5.141   6.479 -1.2120 -0.5137  1.7342
  171SAPE   O2119331   1.121   5.128   6.538 -0.5304  0.3486 -0.4208
  171SAPE   C2119332   1.108   5.228   6.624  0.2390  0.3539  0.0314
  171SAPE   O2219333   0.998   5.281   6.650 -0.1411  0.4109  0.0894
  171SAPE   C2219334   1.250   5.284   6.673  0.2944  0.1322 -0.0474
  171SAPE   H2R19335   1.325   5.205   6.652 -0.0469  0.1981 -1.6088
  171SAPE   H2S19336   1.270   5.372   6.608  0.1336  1.4691  1.6220
  171SAPE    C319337   0.961   4.951   6.589  0.5481 -0.6373  0.4940
  171SAPE    HX19338   1.052   4.887   6.599 -0.3794 -2.2780 -0.9464
  171SAPE    HY19339   0.876   4.899   6.539 -0.5934 -0.4223  2.1441
  171SAPE   O3119340   0.921   4.986   6.719 -0.2625 -0.3293 -0.3869
  171SAPE   C3119341   0.793   5.017   6.741 -0.1966 -1.4610 -0.2588
  171SAPE   O3219342   0.703   5.043   6.659 -0.0640  0.3759 -0.1900
  171SAPE   C3219343   0.758   5.011   6.892 -0.1654 -0.3166 -0.4389
  171SAPE   H2X19344   0.661   4.958   6.906 -0.3591 -0.5265 -2.2965
  171SAPE   H2Y19345   0.741   5.114   6.929  1.3255 -0.0587 -0.4205
  171SAPE   C2319346   1.243   5.334   6.818  0.1722  0.7985 -0.3901
  171SAPE   H3R19347   1.153   5.397   6.832  0.0076  0.3628  0.5630
  171SAPE   H3S19348   1.325   5.407   6.830 -0.7940  1.6843  1.1884
  171SAPE   C2419349   1.235   5.213   6.914  0.1413  0.0856  0.3561
  171SAPE   H4R19350   1.236   5.118   6.857 -1.9208  1.1570 -1.6095
  171SAPE   H4S19351   1.136   5.220   6.963  1.0493  1.4015  2.1111
  171SAPE   C2519352   1.349   5.216   7.016  0.1504 -0.4012  0.0942
  171SAPE   H5R19353   1.442   5.248   6.967 -0.7083  0.9585 -0.7120
  171SAPE   C2619354   1.344   5.172   7.149 -0.4019 -0.2960  0.3773
  171SAPE   H6R19355   1.433   5.172   7.214 -1.4389 -0.4675  1.8377
  171SAPE   C2719356   1.217   5.118   7.216 -0.0951  0.2980  0.3957
  171SAPE   H7R19357   1.128   5.154   7.160 -1.2208  1.8333  3.0242
  171SAPE   H7S19358   1.212   5.161   7.318  2.7025  0.2832  0.6161
  171SAPE   C2819359   1.222   4.963   7.207 -0.6125 -0.2704 -0.0047
  171SAPE   H8R19360   1.247   4.936   7.103 -0.7620  2.2079 -0.7652
  171SAPE   C2919361   1.196   4.875   7.293  0.7454 -0.0296 -0.4227
  171SAPE   H9R19362   1.208   4.775   7.248  2.6015  0.4781 -1.1534
  171SAPE  C21019363   1.163   4.885   7.439 -0.3151  0.6567  0.2958
  171SAPE  H10R19364   1.110   4.790   7.465 -1.3525  1.3408  0.7408
  171SAPE  H10S19365   1.084   4.961   7.455 -2.9431 -1.6987 -0.5740
  171SAPE  C21119366   1.286   4.917   7.526 -0.2087  0.3794  0.6740
  171SAPE  H11R19367   1.358   4.981   7.473 -0.5120 -0.3737 -0.7029
  171SAPE  C21219368   1.289   4.880   7.653 -0.6924 -0.7932 -0.2665
  171SAPE  H12R19369   1.373   4.923   7.711 -0.5930  1.4402 -1.9182
  171SAPE  C21319370   1.186   4.803   7.727 -0.6133 -0.9252  0.3315
  171SAPE  H13R19371   1.152   4.720   7.662 -1.3462  1.5253 -2.6239
  171SAPE  H13S19372   1.097   4.870   7.735  0.1281  0.3068 -1.1689
  171SAPE  C21419373   1.239   4.743   7.856  0.6727  0.5943  0.0569
  171SAPE  H14R19374   1.315   4.667   7.834  0.0421  0.2972 -1.1721
  171SAPE  C21519375   1.182   4.742   7.977 -0.5807 -0.1017  0.1318
  171SAPE  H15R19376   1.239   4.696   8.059  1.1118  0.7504 -0.5061
  171SAPE  C21619377   1.068   4.819   8.025 -0.7418 -0.2781 -0.0919
  171SAPE  H16R19378   0.975   4.758   8.037 -1.2192  0.2733 -0.8751
  171SAPE  H16S19379   1.035   4.902   7.959 -1.0418 -0.5667 -0.3106
  171SAPE  C21719380   1.073   4.875   8.168 -0.4134  0.6368  0.0142
  171SAPE  H17R19381   1.154   4.951   8.155 -1.2288  1.3816 -0.9092
  171SAPE  H17S19382   1.102   4.798   8.242 -0.9745 -0.7027 -1.1090
  171SAPE  C21819383   0.942   4.935   8.223  0.4763 -0.3200 -0.0134
  171SAPE  H18R19384   0.870   4.851   8.231  0.3831 -0.2681 -0.3206
  171SAPE  H18S19385   0.901   5.016   8.159 -1.0094  1.1319  2.5911
  171SAPE  C21919386   0.958   4.980   8.372  0.5504 -0.3777 -0.1100
  171SAPE  H19R19387   1.030   4.913   8.423  0.0604 -1.4646 -0.8241
  171SAPE  H19S19388   0.857   4.959   8.412  2.0257 -1.6326  3.3589
  171SAPE  C22019389   1.005   5.122   8.375 -0.1995 -1.2969  0.2512
  171SAPE  H20R19390   0.947   5.182   8.302  2.0696 -1.1255 -1.5522
  171SAPE  H20S19391   1.108   5.132   8.334 -0.0995 -2.1850  0.2643
  171SAPE  H20T19392   0.999   5.162   8.479 -1.4038 -4.1913  1.3897
  171SAPE   C3319393   0.867   4.939   6.980  0.0590  0.0321 -0.1136
  171SAPE   H3X19394   0.966   4.988   6.963  0.7909 -0.9966  1.0684
  171SAPE   H3Y19395   0.864   4.839   6.932 -2.1914  0.2970 -0.6278
  171SAPE   C3419396   0.830   4.902   7.123  0.5158  0.0087 -0.1638
  171SAPE   H4X19397   0.894   4.824   7.170 -1.5713 -1.8807 -0.2336
  171SAPE   H4Y19398   0.732   4.849   7.120  1.0073 -1.1057  1.5252
  171SAPE   C3519399   0.805   5.008   7.225 -0.2705 -0.1962  0.2412
  171SAPE   H5X19400   0.731   5.082   7.189  0.7354  1.6015  1.7173
  171SAPE   H5Y19401   0.902   5.058   7.243 -0.8804  0.7956  0.8877
  171SAPE   C3619402   0.779   4.952   7.362 -0.8898 -0.0674  0.5009
  171SAPE   H6X19403   0.863   4.882   7.377 -0.4313 -0.0425 -1.5979
  171SAPE   H6Y19404   0.687   4.889   7.362 -0.0254 -1.3742  0.1699
  171SAPE   C3719405   0.789   5.057   7.475  0.0616 -0.4083  0.3910
  171SAPE   H7X19406   0.718   5.136   7.441  2.3876  0.5979 -2.6246
  171SAPE   H7Y19407   0.891   5.103   7.479  0.1754 -0.4910 -1.0480
  171SAPE   C3819408   0.750   4.988   7.603  0.2026 -0.8911  0.0984
  171SAPE   H8X19409   0.822   4.918   7.650  1.8101  0.7110  0.0992
  171SAPE   H8Y19410   0.650   4.942   7.582 -1.0697  2.6349 -2.5932
  171SAPE   C3919411   0.730   5.097   7.710  0.3217  0.6910  0.3307
  171SAPE   H9X19412   0.667   5.184   7.683  1.3664  1.9965  1.9001
  171SAPE   H9Y19413   0.828   5.143   7.734  1.7875 -1.8672 -0.3580
  171SAPE  C31019414   0.657   5.057   7.834 -1.0428  0.6156  0.4774
  171SAPE  H10X19415   0.724   4.987   7.889 -0.8325 -2.8049 -3.6073
  171SAPE  H10Y19416   0.570   4.998   7.796  1.5962 -1.5279 -2.8333
  171SAPE  C31119417   0.614   5.170   7.921 -0.3960  0.0489 -0.5834
  171SAPE  H11X19418   0.539   5.237   7.873 -3.3372 -1.4966  1.5784
  171SAPE  H11Y19419   0.704   5.231   7.946 -0.5640 -0.4067  1.3267
  171SAPE  C31219420   0.566   5.120   8.061 -0.2870  0.3943 -0.4078
  171SAPE  H12X19421   0.610   5.021   8.082  1.3893  1.2501  0.2832
  171SAPE  H12Y19422   0.458   5.094   8.051 -0.2904  0.6155 -1.0327
  171SAPE  C31319423   0.585   5.225   8.181 -0.4147 -0.1928 -0.1834
  171SAPE  H13X19424   0.549   5.323   8.142 -0.1632 -0.5073 -1.2430
  171SAPE  H13Y19425   0.694   5.236   8.198 -0.5106  0.7947 -0.1295
  171SAPE  C31419426   0.511   5.200   8.315 -0.1342  0.6797  0.4537
  171SAPE  H14X19427   0.405   5.184   8.287 -0.4802  2.8736  0.3498
  171SAPE  H14Y19428   0.518   5.281   8.391  1.4176  2.0536 -1.0565
  171SAPE  C31519429   0.567   5.060   8.362 -0.2906 -0.3403  0.1012
  171SAPE  H15X19430   0.678   5.070   8.356 -0.1389 -2.5594 -2.3635
  171SAPE  H15Y19431   0.551   4.981   8.287  0.0652  0.7237 -1.1402
  171SAPE  C31619432   0.516   5.023   8.494 -0.1765  1.5493 -0.5518
  171SAPE  H16X19433   0.537   5.105   8.565  1.6961  1.6444 -1.1532
  171SAPE  H16Y19434   0.591   4.949   8.530  1.1555  2.5634 -1.1231
  171SAPE  C31719435   0.369   4.970   8.510 -0.2972 -0.2414 -0.0328
  171SAPE  H17X19436   0.360   4.943   8.618  1.5448  1.3861  0.5995
  171SAPE  H17Y19437   0.368   4.876   8.452  0.4900  1.1196 -2.3878
  171SAPE  C31819438   0.248   5.062   8.483 -0.2021  1.0074  0.3761
  171SAPE  H18X19439   0.260   5.168   8.514 -0.3096  1.8785 -2.3104
  171SAPE  H18Y19440   0.150   5.019   8.513  1.3669 -2.1130  1.6242
  171SAPE  H18Z19441   0.237   5.071   8.373  0.7170  1.4427  0.3103
  172SAPE     N19442   0.067   6.405   6.090  0.1737  0.4931  0.3636
  172SAPE   HN119443   0.068   6.306   6.121  1.1065  0.2153 -0.5176
  172SAPE   HN219444   0.056   6.426   5.988  1.2363  3.2121  0.7341
  172SAPE   HN319445   0.163   6.431   6.117  1.5379 -1.6599 -1.9204
  172SAPE   C1219446  -0.027   6.484   6.176 -0.4614 -0.0862 -0.2360
  172SAPE  H12A19447  -0.023   6.591   6.147  1.7053  1.0955  3.6158
  172SAPE  H12B19448  -0.001   6.486   6.284  1.0348  1.6829 -0.5740
  172SAPE   C1119449  -0.173   6.427   6.165 -0.1108 -1.0655  0.0419
  172SAPE  H11A19450  -0.163   6.322   6.197  1.0413 -0.6575  1.0935
  172SAPE  H11B19451  -0.206   6.429   6.058  0.3831  2.7298 -0.1915
  172SAPE     P19452  -0.422   6.476   6.248  0.1158  0.0622 -0.2193
  172SAPE   O1319453  -0.495   6.593   6.311  0.2497  0.5502 -0.7506
  172SAPE   O1419454  -0.459   6.449   6.110 -0.3288  0.2471 -0.0308
  172SAPE   O1219455  -0.264   6.501   6.249  0.7944  0.3556  1.0074
  172SAPE   O1119456  -0.445   6.345   6.330 -0.2758 -0.0553 -0.0695
  172SAPE    C119457  -0.500   6.348   6.465 -0.3449  0.2396 -0.2899
  172SAPE    HA19458  -0.543   6.447   6.489  0.0455  0.1904  0.6430
  172SAPE    HB19459  -0.585   6.278   6.472 -0.5109  0.3831 -0.8197
  172SAPE    C219460  -0.399   6.312   6.579 -0.0193  0.2843  0.4860
  172SAPE    HS19461  -0.459   6.288   6.669 -0.7253 -0.8922 -0.2710
  172SAPE   O2119462  -0.302   6.408   6.615  0.0239 -0.0634 -0.0966
  172SAPE   C2119463  -0.353   6.516   6.679 -0.8661  0.5774 -1.3995
  172SAPE   O2219464  -0.472   6.538   6.700  0.4780  0.0465 -0.4492
  172SAPE   C2219465  -0.246   6.598   6.751  0.2905  0.7475  0.1993
  172SAPE   H2R19466  -0.186   6.527   6.812  0.3389 -1.1028 -1.8848
  172SAPE   H2S19467  -0.174   6.639   6.678 -0.8274  1.2464 -0.6573
  172SAPE    C319468  -0.314   6.188   6.535 -0.5266  0.1540 -0.6136
  172SAPE    HX19469  -0.238   6.220   6.461 -1.4094  1.0378 -1.1633
  172SAPE    HY19470  -0.378   6.112   6.486  0.4649 -1.3702  0.3851
  172SAPE   O3119471  -0.265   6.113   6.647 -0.1382  0.4758 -0.6247
  172SAPE   C3119472  -0.144   6.151   6.690 -0.2051  0.3818 -0.1491
  172SAPE   O3219473  -0.069   6.227   6.631 -0.0815  0.6419  0.3338
  172SAPE   C3219474  -0.105   6.069   6.824 -0.0961 -0.5948  0.3882
  172SAPE   H2X19475  -0.100   5.965   6.786 -1.0400 -0.3655 -0.4199
  172SAPE   H2Y19476  -0.193   6.084   6.890 -0.6607 -0.1912 -0.4293
  172SAPE   C2319477  -0.308   6.712   6.834  0.6682  0.2383  1.0180
  172SAPE   H3R19478  -0.371   6.675   6.917 -0.9925  0.5950 -0.0221
  172SAPE   H3S19479  -0.366   6.782   6.770  1.9294 -1.7739 -2.6904
  172SAPE   C2419480  -0.204   6.784   6.919  0.2070 -0.1504  0.1530
  172SAPE   H4R19481  -0.122   6.814   6.850  2.1720 -1.1085  1.9688
  172SAPE   H4S19482  -0.158   6.703   6.979  2.2227 -0.5252 -1.7421
  172SAPE   C2519483  -0.232   6.908   6.998 -0.2511  0.2516  0.0290
  172SAPE   H5R19484  -0.273   6.998   6.949 -1.1184 -0.2909 -0.2610
  172SAPE   C2619485  -0.225   6.908   7.132 -0.4793 -0.9760  0.0426
  172SAPE   H6R19486  -0.234   7.011   7.170  1.1681 -0.9201  0.3360
  172SAPE   C2719487  -0.188   6.804   7.232 -0.4344  0.9641  0.8086
  172SAPE   H7R19488  -0.216   6.703   7.196 -0.2528 -0.4132  4.1455
  172SAPE   H7S19489  -0.253   6.816   7.321 -1.7440 -0.6765  0.1148
  172SAPE   C2819490  -0.035   6.810   7.265  0.0171 -0.3517 -0.1853
  172SAPE   H8R19491   0.031   6.817   7.177 -0.1264  0.5712 -0.2275
  172SAPE   C2919492   0.026   6.814   7.387  0.7089  0.3385  0.1626
  172SAPE   H9R19493   0.136   6.825   7.390  1.0436 -2.3071  0.5398
  172SAPE  C21019494  -0.048   6.803   7.521  0.6373 -0.4354 -0.4731
  172SAPE  H10R19495   0.030   6.776   7.596  1.3142  2.7283  0.0989
  172SAPE  H10S19496  -0.131   6.729   7.519  0.6662 -0.4553 -0.9028
  172SAPE  C21119497  -0.109   6.941   7.562 -0.3931  0.0175 -0.1535
  172SAPE  H11R19498  -0.189   6.987   7.501 -0.5225 -1.1240 -0.8782
  172SAPE  C21219499  -0.057   7.009   7.666 -0.1948 -0.0468  0.2098
  172SAPE  H12R19500  -0.097   7.111   7.679  1.0689  0.4675  0.1808
  172SAPE  C21319501   0.061   6.964   7.751 -0.7479 -1.3948  0.1239
  172SAPE  H13R19502   0.140   6.932   7.679  1.5737  2.1420  0.8151
  172SAPE  H13S19503   0.036   6.873   7.809  0.1566 -1.3855  0.5479
  172SAPE  C21419504   0.126   7.075   7.831 -0.7113  0.1344  0.1508
  172SAPE  H14R19505   0.142   7.172   7.781 -0.6923 -0.7377 -1.6032
  172SAPE  C21519506   0.186   7.064   7.953  0.3775 -0.6821  0.0905
  172SAPE  H15R19507   0.228   7.153   8.003  0.3384 -0.3968 -0.3754
  172SAPE  C21619508   0.190   6.937   8.033 -1.0409  0.4799 -0.1877
  172SAPE  H16R19509   0.297   6.906   8.042 -0.5800  1.4316 -1.8732
  172SAPE  H16S19510   0.134   6.848   7.998  0.4428 -1.4370  2.0331
  172SAPE  C21719511   0.126   6.943   8.176 -0.7591 -0.6887  0.0937
  172SAPE  H17R19512   0.148   6.849   8.230  2.1702  0.4015  0.9781
  172SAPE  H17S19513   0.019   6.956   8.146  0.5229  2.8271 -4.0352
  172SAPE  C21819514   0.170   7.068   8.256  0.6173 -0.3675  0.0678
  172SAPE  H18R19515   0.126   7.056   8.357 -0.2765  0.8328 -0.1631
  172SAPE  H18S19516   0.115   7.159   8.224  0.5535  0.5639  2.5849
  172SAPE  C21919517   0.325   7.102   8.272  0.6062  0.2063  0.1405
  172SAPE  H19R19518   0.356   7.156   8.180  2.5677 -1.3244 -0.1639
  172SAPE  H19S19519   0.382   7.006   8.269  0.4927  0.0148  2.4839
  172SAPE  C22019520   0.348   7.172   8.411  1.1877 -0.0105  0.6485
  172SAPE  H20R19521   0.340   7.282   8.401  2.1420 -0.0596 -1.0987
  172SAPE  H20S19522   0.448   7.156   8.458  1.1594 -0.2288  0.6347
  172SAPE  H20T19523   0.269   7.140   8.482 -0.4410  1.5639 -0.3768
  172SAPE   C3319524   0.021   6.116   6.886 -0.1888  0.2710 -0.0110
  172SAPE   H3X19525   0.033   6.227   6.885  0.7284  0.2016  1.0021
  172SAPE   H3Y19526   0.113   6.069   6.843 -0.7652 -1.4717  0.5920
  172SAPE   C3419527   0.039   6.073   7.034 -0.2146  0.5810 -0.3602
  172SAPE   H4X19528   0.145   6.088   7.065 -0.1555  2.2118 -1.2104
  172SAPE   H4Y19529   0.016   5.966   7.050  1.5019  0.3483  0.9193
  172SAPE   C3519530  -0.044   6.141   7.138  0.1128  0.6978 -0.5470
  172SAPE   H5X19531  -0.141   6.089   7.148 -0.2007  1.0583 -1.5650
  172SAPE   H5Y19532  -0.054   6.249   7.112  0.2607  0.8343 -0.0458
  172SAPE   C3619533   0.024   6.139   7.277  0.3943  0.3277  0.4013
  172SAPE   H6X19534  -0.029   6.217   7.335 -1.3368  0.4272 -1.2259
  172SAPE   H6Y19535   0.128   6.171   7.258  1.1935 -1.4932  1.3779
  172SAPE   C3719536   0.015   6.019   7.361  0.2848  0.1891  0.3907
  172SAPE   H7X19537   0.056   5.932   7.305 -0.8635  0.5319 -1.0527
  172SAPE   H7Y19538  -0.092   6.001   7.386 -0.0448 -1.5359 -1.9570
  172SAPE   C3819539   0.083   6.032   7.495 -0.4045  0.0220 -0.0957
  172SAPE   H8X19540   0.186   6.073   7.489 -0.4363  0.1091 -0.0487
  172SAPE   H8Y19541   0.076   5.934   7.547  0.5786 -0.5243 -0.9474
  172SAPE   C3919542   0.008   6.122   7.601 -0.5084  0.1606  0.8720
  172SAPE   H9X19543  -0.099   6.093   7.603 -0.8621  0.9642 -1.8113
  172SAPE   H9Y19544   0.021   6.221   7.552  0.3354 -1.6795 -3.1093
  172SAPE  C31019545   0.070   6.110   7.739 -0.0613  0.0203  0.6083
  172SAPE  H10X19546   0.029   6.187   7.808  0.6940  2.0493 -1.1043
  172SAPE  H10Y19547   0.180   6.119   7.731 -0.0772 -0.9577 -1.4488
  172SAPE  C31119548   0.011   5.986   7.811 -0.2702  0.3278  0.3229
  172SAPE  H11X19549   0.018   5.898   7.744  0.4287  0.6728 -0.0704
  172SAPE  H11Y19550  -0.096   6.001   7.836  0.0759 -0.3775  2.4992
  172SAPE  C31219551   0.091   5.953   7.936  0.5644 -0.0771 -0.2558
  172SAPE  H12X19552   0.072   6.033   8.010  1.8310  1.6229 -1.6973
  172SAPE  H12Y19553   0.193   5.976   7.901  0.2127  0.7118 -0.7866
  172SAPE  C31319554   0.074   5.808   7.980  0.0740  0.2753  0.6540
  172SAPE  H13X19555   0.136   5.751   7.907  0.3595 -0.5217  1.4933
  172SAPE  H13Y19556  -0.031   5.773   7.988  1.0196 -3.4029 -0.7197
  172SAPE  C31419557   0.138   5.785   8.113 -0.7345 -0.1817  0.7991
  172SAPE  H14X19558   0.238   5.833   8.107 -1.5158  1.4776  0.5510
  172SAPE  H14Y19559   0.146   5.674   8.118  0.7221 -0.1313  0.1486
  172SAPE  C31519560   0.062   5.843   8.233  0.7599 -0.1252 -0.0350
  172SAPE  H15X19561  -0.039   5.797   8.227  1.0689 -0.7152 -0.7743
  172SAPE  H15Y19562   0.053   5.953   8.235 -1.6577 -0.2726  1.6618
  172SAPE  C31619563   0.128   5.804   8.378 -0.3919 -0.0344 -0.0508
  172SAPE  H16X19564   0.238   5.813   8.370 -0.5033  0.3117 -1.5744
  172SAPE  H16Y19565   0.129   5.693   8.386  0.4452 -0.0897 -0.7929
  172SAPE  C31719566   0.073   5.890   8.491  0.1627  0.5745  0.3142
  172SAPE  H17X19567  -0.038   5.884   8.487  0.1281  1.4449 -1.0851
  172SAPE  H17Y19568   0.095   5.999   8.481 -1.1865  0.8374  0.0380
  172SAPE  C31819569   0.117   5.842   8.629 -0.3862  0.0427  0.1255
  172SAPE  H18X19570   0.227   5.853   8.643 -0.5403  1.9025  0.1284
  172SAPE  H18Y19571   0.100   5.733   8.639 -0.6273  0.1536  1.0566
  172SAPE  H18Z19572   0.067   5.895   8.713 -0.5890 -0.5856  0.4100
  173SOPE     N19573   6.127   5.240  11.041  0.0063 -0.7039  0.3997
  173SOPE   HN119574   6.027   5.213  11.036 -0.1392 -0.1885  0.4682
  173SOPE   HN219575   6.145   5.340  11.016 -1.1102 -0.1433  1.6597
  173SOPE   HN319576   6.164   5.178  10.967  0.5497  0.3568 -0.2453
  173SOPE   C1219577   6.192   5.203  11.177 -0.0512 -0.2807  0.4665
  173SOPE  H12A19578   6.170   5.094  11.186  1.3160 -0.4849  1.4886
  173SOPE  H12B19579   6.134   5.258  11.254  0.1919 -1.8888  1.8472
  173SOPE   C1119580   6.343   5.223  11.177 -0.2119  0.4296  0.9328
  173SOPE  H11A19581   6.378   5.261  11.276 -1.1229  0.0976  1.3915
  173SOPE  H11B19582   6.370   5.300  11.102 -0.9260  0.6304  0.8703
  173SOPE     P19583   6.451   5.063  10.995  0.1460  0.4013 -0.4514
  173SOPE   O1319584   6.448   4.911  10.991  0.7956  0.3285 -0.1556
  173SOPE   O1419585   6.583   5.132  10.962 -0.2668  0.4044  0.5974
  173SOPE   O1219586   6.406   5.096  11.143  0.1558  0.1320 -0.5953
  173SOPE   O1119587   6.328   5.119  10.910 -0.4147 -0.0730 -0.3381
  173SOPE    C119588   6.305   5.054  10.779 -0.2493  0.3505  0.0960
  173SOPE    HA19589   6.204   5.090  10.751 -0.1392  2.5630  2.2636
  173SOPE    HB19590   6.291   4.943  10.783 -0.3562  0.3870  1.2085
  173SOPE    C219591   6.411   5.082  10.671 -0.3887  0.0316 -0.1581
  173SOPE    HS19592   6.498   5.018  10.699  1.7832  2.9822  0.3719
  173SOPE   O2119593   6.437   5.226  10.683 -0.3198 -0.3945 -0.0727
  173SOPE   C2119594   6.562   5.249  10.642  0.1575 -0.3285 -0.2877
  173SOPE   O2219595   6.642   5.159  10.617  0.6760 -0.1442 -0.0281
  173SOPE   C2219596   6.593   5.394  10.637 -0.7530  0.2746 -0.3592
  173SOPE   H2R19597   6.606   5.441  10.737 -1.2781 -0.1758 -0.0729
  173SOPE   H2S19598   6.511   5.448  10.585 -0.9522  1.5306  1.1871
  173SOPE    C319599   6.364   5.058  10.527 -0.7928  0.3594 -0.3203
  173SOPE    HX19600   6.449   5.084  10.460  0.3957 -2.3182  0.0223
  173SOPE    HY19601   6.274   5.122  10.513 -0.7942  0.0145 -2.1643
  173SOPE   O3119602   6.315   4.926  10.495 -0.0832  0.1675  0.5181
  173SOPE   C3119603   6.403   4.825  10.452 -0.3687 -0.2077 -0.7250
  173SOPE   O3219604   6.516   4.855  10.414 -0.4629 -0.8724  0.3310
  173SOPE   C3219605   6.332   4.695  10.438 -0.7057  0.6617 -0.0807
  173SOPE   H2X19606   6.231   4.717  10.398 -1.6106  2.0792  2.7297
  173SOPE   H2Y19607   6.303   4.654  10.536 -2.8156  2.3740  0.0943
  173SOPE   C2319608   6.729   5.427  10.577  0.0305 -0.7230  0.0018
  173SOPE   H3R19609   6.811   5.357  10.606  0.0321 -0.1308  1.5310
  173SOPE   H3S19610   6.771   5.520  10.622  3.4751 -0.9568 -2.3467
  173SOPE   C2419611   6.724   5.449  10.428  0.0577 -0.7874  0.1861
  173SOPE   H4R19612   6.663   5.540  10.408  2.5866  1.4105  1.8111
  173SOPE   H4S19613   6.831   5.465  10.401 -0.3920 -1.8490 -2.6468
  173SOPE   C2519614   6.671   5.336  10.342  0.2720  0.0071  0.8640
  173SOPE   H5R19615   6.713   5.234  10.358  0.3903 -0.4322 -1.6905
  173SOPE   H5S19616   6.560   5.339  10.347  0.0860  1.8094 -2.0184
  173SOPE   C2619617   6.711   5.358  10.191 -0.3584 -1.3687  0.5224
  173SOPE   H6R19618   6.649   5.443  10.155 -0.4281 -2.2276 -1.4904
  173SOPE   H6S19619   6.817   5.389  10.186 -0.8203  0.3118  0.6258
  173SOPE   C2719620   6.690   5.239  10.095 -0.1960  0.4253 -0.0731
  173SOPE   H7R19621   6.585   5.203  10.091 -0.4757  1.2638 -2.8640
  173SOPE   H7S19622   6.703   5.279   9.992  1.3509 -1.3084 -0.6200
  173SOPE   C2819623   6.795   5.129  10.099 -0.3205  0.6837  0.4134
  173SOPE   H8R19624   6.888   5.153  10.042 -1.7972  1.7389 -1.6814
  173SOPE   H8S19625   6.828   5.139  10.204  0.6072  0.0310  0.2014
  173SOPE   C2919626   6.728   4.992  10.078  0.4294 -0.4200 -0.6459
  173SOPE   H9119627   6.635   4.973  10.133 -0.0873 -0.7623 -1.6224
  173SOPE  C21019628   6.768   4.893  10.002  0.1150  0.3421 -0.0353
  173SOPE  H10119629   6.706   4.803   9.992  0.4444  0.2435 -1.3995
  173SOPE  C21119630   6.886   4.903   9.910  0.7767  0.1356  0.3279
  173SOPE  H11R19631   6.978   4.870   9.964  2.1664  0.4117 -1.7422
  173SOPE  H11S19632   6.910   5.007   9.880  2.2772 -0.7358 -1.7505
  173SOPE  C21219633   6.878   4.821   9.782 -0.0433 -0.1032  0.3986
  173SOPE  H12R19634   6.877   4.714   9.811  0.3269 -0.3782 -0.5417
  173SOPE  H12S19635   6.982   4.836   9.745  0.9039 -0.9450  2.5382
  173SOPE  C21319636   6.760   4.868   9.691 -0.2811 -0.0082  0.3348
  173SOPE  H13R19637   6.668   4.888   9.750 -0.8379  0.2062 -0.5807
  173SOPE  H13S19638   6.731   4.788   9.619  0.2636  0.4761 -0.4408
  173SOPE  C21419639   6.791   4.998   9.609 -0.4717 -0.0815 -0.5339
  173SOPE  H14R19640   6.866   4.974   9.531 -2.4903 -0.0787 -2.6002
  173SOPE  H14S19641   6.825   5.071   9.686 -1.9411 -1.6829  1.7465
  173SOPE  C21519642   6.665   5.055   9.545 -0.4464  0.3780 -0.2115
  173SOPE  H15R19643   6.590   5.096   9.616 -1.6363 -1.9289 -0.0389
  173SOPE  H15S19644   6.604   4.979   9.491 -1.8375  1.0400  0.3679
  173SOPE  C21619645   6.708   5.166   9.453 -0.0515 -0.2763  0.0884
  173SOPE  H16R19646   6.766   5.228   9.523  0.0336 -0.6235  0.3263
  173SOPE  H16S19647   6.614   5.220   9.427  0.6263 -0.2556 -2.6549
  173SOPE  C21719648   6.781   5.129   9.325 -0.3404  0.7574 -0.3263
  173SOPE  H17R19649   6.709   5.079   9.256  1.8465 -1.4654 -1.1491
  173SOPE  H17S19650   6.849   5.044   9.350 -2.0326  0.6356  5.3722
  173SOPE  C21819651   6.845   5.243   9.261  0.2650 -0.2411 -0.3074
  173SOPE  H18R19652   6.917   5.294   9.329  1.2761  0.8983 -2.1773
  173SOPE  H18S19653   6.769   5.313   9.221  0.4851  0.4500  0.4565
  173SOPE  H18T19654   6.914   5.216   9.179  0.2649  3.7457 -1.8168
  173SOPE   C3319655   6.411   4.593  10.349  0.2453  0.3172  0.1168
  173SOPE   H3X19656   6.360   4.494  10.350  0.5076  0.1701  1.4991
  173SOPE   H3Y19657   6.508   4.577  10.402 -0.6550  1.8372  2.3532
  173SOPE   C3419658   6.425   4.638  10.207 -0.1486  0.2416 -0.1216
  173SOPE   H4X19659   6.474   4.738  10.198  2.6370 -1.0738 -0.6401
  173SOPE   H4Y19660   6.323   4.648  10.163 -0.8365  1.4952  1.6146
  173SOPE   C3519661   6.520   4.553  10.136 -0.3287  0.5276 -0.4714
  173SOPE   H5X19662   6.507   4.445  10.156 -3.1261  0.8628 -0.0422
  173SOPE   H5Y19663   6.618   4.572  10.185  0.7662 -0.7080 -2.0844
  173SOPE   C3619664   6.529   4.578   9.989 -1.0285  0.3899 -0.2341
  173SOPE   H6X19665   6.541   4.685   9.961  3.5332  0.2387  0.3876
  173SOPE   H6Y19666   6.432   4.541   9.948 -1.4744  0.0777  1.0680
  173SOPE   C3719667   6.638   4.509   9.915 -0.5185  0.1163 -0.5253
  173SOPE   H7X19668   6.657   4.400   9.926  3.7880  0.8976  2.0951
  173SOPE   H7Y19669   6.737   4.545   9.950 -0.6736  1.5222 -1.4890
  173SOPE   C3819670   6.621   4.537   9.767  0.2352 -0.2623  0.2952
  173SOPE   H8X19671   6.633   4.647   9.756  0.7828 -0.1539  1.8213
  173SOPE   H8Y19672   6.516   4.520   9.734  0.2320  0.8507 -0.3253
  173SOPE   C3919673   6.705   4.453   9.670 -0.3658  0.3123  1.2081
  173SOPE   H9X19674   6.707   4.351   9.714 -0.0972  0.6401  1.9684
  173SOPE   H9Y19675   6.805   4.502   9.676  0.4257 -0.1978 -3.5390
  173SOPE  C31019676   6.664   4.476   9.525  0.4835 -0.0207 -0.8117
  173SOPE  H10X19677   6.613   4.575   9.525 -2.1331 -1.2472  1.2701
  173SOPE  H10Y19678   6.580   4.404   9.515 -1.7436  2.3471 -0.2194
  173SOPE  C31119679   6.774   4.468   9.422  0.7918  0.1687  0.4561
  173SOPE  H11X19680   6.849   4.402   9.472  0.7050  0.9153  1.6108
  173SOPE  H11Y19681   6.823   4.566   9.405 -0.0875  0.5881  0.2687
  173SOPE  C31219682   6.720   4.405   9.295 -0.1742 -0.0158 -0.0649
  173SOPE  H12X19683   6.626   4.457   9.265 -0.6958  0.8366  2.7454
  173SOPE  H12Y19684   6.699   4.297   9.303 -1.3123  0.1149 -0.9013
  173SOPE  C31319685   6.828   4.422   9.184 -0.6513 -0.9894  0.7268
  173SOPE  H13X19686   6.915   4.357   9.207  0.7184  1.0359  1.6102
  173SOPE  H13Y19687   6.871   4.524   9.200  0.3579 -1.5245  1.5920
  173SOPE  C31419688   6.779   4.403   9.038  0.2022 -0.2873 -0.6309
  173SOPE  H14X19689   6.857   4.443   8.970  0.8827  0.0832  0.3575
  173SOPE  H14Y19690   6.684   4.457   9.017  0.6439 -0.1270 -2.4063
  173SOPE  C31519691   6.752   4.258   9.017 -0.3885  0.2261  0.6792
  173SOPE  H15X19692   6.678   4.212   9.086  0.2498  1.3764  2.1981
  173SOPE  H15Y19693   6.846   4.200   9.010 -0.7452 -0.2341 -0.5829
  173SOPE  C31619694   6.680   4.234   8.882 -0.2737 -0.3093 -0.5451
  173SOPE  H16X19695   6.595   4.305   8.868 -0.5253 -0.3752  0.5904
  173SOPE  H16Y19696   6.642   4.130   8.894  2.9791 -1.3788  1.7490
  173SOPE  C31719697   6.771   4.232   8.760  0.0462 -0.1814  0.3607
  173SOPE  H17X19698   6.833   4.140   8.755 -1.5625 -1.2896  0.0209
  173SOPE  H17Y19699   6.844   4.316   8.761  0.5627 -0.5739 -1.2228
  173SOPE  C31819700   6.695   4.249   8.631  0.0575 -0.0104  0.5154
  173SOPE  H18X19701   6.619   4.329   8.643 -2.4263 -2.2561  0.8663
  173SOPE  H18Y19702   6.640   4.158   8.599 -0.9271  0.6833  0.1751
  173SOPE  H18Z19703   6.765   4.280   8.551  0.1130 -0.8646  0.2241
  174SOPE     N19704   0.035   1.881  10.664 -0.1147  0.7838  0.1838
  174SOPE   HN119705   0.081   1.892  10.571 -0.9730 -0.8638 -0.4838
  174SOPE   HN219706  -0.017   1.791  10.664 -0.4114  0.9540  0.5042
  174SOPE   HN319707  -0.036   1.956  10.674  0.7863  1.7804 -0.6609
  174SOPE   C1219708   0.145   1.884  10.768  0.0007 -0.3394 -0.5757
  174SOPE  H12A19709   0.090   1.902  10.862  1.2803  0.8511 -0.0210
  174SOPE  H12B19710   0.205   1.975  10.748  0.4558 -0.2416  1.1122
  174SOPE   C1119711   0.238   1.756  10.763  0.4849  0.6804 -0.2768
  174SOPE  H11A19712   0.328   1.783  10.822 -1.3534  3.4147  1.5568
  174SOPE  H11B19713   0.262   1.736  10.656  0.5734  0.4466 -0.2115
  174SOPE     P19714   0.246   1.502  10.824 -0.0426 -0.4286 -0.4911
  174SOPE   O1319715   0.163   1.396  10.902 -0.0552 -0.2499  0.0076
  174SOPE   O1419716   0.382   1.527  10.872 -0.0909  0.2873  0.2110
  174SOPE   O1219717   0.169   1.641  10.821 -0.4525 -0.2527 -0.2109
  174SOPE   O1119718   0.251   1.465  10.677 -0.3248 -0.5133 -0.1671
  174SOPE    C119719   0.138   1.426  10.604  0.4751  0.5861  0.1030
  174SOPE    HA19720   0.046   1.479  10.634  0.5930 -0.1513  1.8930
  174SOPE    HB19721   0.121   1.317  10.617  2.1107  0.2521 -0.2893
  174SOPE    C219722   0.152   1.437  10.452 -0.0064 -0.7821  0.5136
  174SOPE    HS19723   0.060   1.383  10.421  0.9604 -0.5810 -3.0828
  174SOPE   O2119724   0.279   1.390  10.407  0.3306  0.0100  0.4031
  174SOPE   C2119725   0.270   1.331  10.284 -0.6832  0.3646  0.6002
  174SOPE   O2219726   0.160   1.305  10.238  0.0031 -0.3326  0.4344
  174SOPE   C2219727   0.407   1.280  10.244  0.6533  0.3654 -0.3325
  174SOPE   H2R19728   0.397   1.169  10.239  1.2959  0.3440 -1.7121
  174SOPE   H2S19729   0.482   1.303  10.322  0.0290  1.0619  0.0705
  174SOPE    C319730   0.131   1.581  10.398  0.0412 -0.3671 -0.3774
  174SOPE    HX19731   0.210   1.647  10.439 -0.2360 -1.2436  1.6920
  174SOPE    HY19732   0.038   1.623  10.440 -0.6185 -2.6127  0.5868
  174SOPE   O3119733   0.111   1.590  10.256 -0.0140  0.1729 -0.0057
  174SOPE   C3119734   0.173   1.681  10.181  0.5185  0.4538  0.2271
  174SOPE   O3219735   0.244   1.767  10.223 -0.1046  0.1943  0.1111
  174SOPE   C3219736   0.138   1.660  10.038  0.5194  0.5084 -0.4152
  174SOPE   H2X19737   0.036   1.700  10.018  0.4511  0.6007  0.1146
  174SOPE   H2Y19738   0.138   1.551  10.016  3.4292 -0.0325  1.6733
  174SOPE   C2319739   0.457   1.331  10.110 -0.5251  0.2613  0.0780
  174SOPE   H3R19740   0.553   1.281  10.088 -0.6654  0.5314 -1.2288
  174SOPE   H3S19741   0.460   1.442  10.105  0.8827  0.2287 -0.1683
  174SOPE   C2419742   0.367   1.278  10.003 -0.0264 -0.7071  0.0141
  174SOPE   H4R19743   0.366   1.167  10.016  1.0341 -0.9356 -1.4891
  174SOPE   H4S19744   0.261   1.309  10.012 -0.1806 -0.0332 -3.0949
  174SOPE   C2519745   0.403   1.314   9.858 -0.2169  0.1873  0.0341
  174SOPE   H5R19746   0.411   1.424   9.862  1.5782  0.0669  1.1019
  174SOPE   H5S19747   0.503   1.268   9.839  1.0632  2.6578  0.3232
  174SOPE   C2619748   0.298   1.252   9.776 -0.3188  0.5236 -0.2542
  174SOPE   H6R19749   0.270   1.154   9.819  1.5523 -0.4474 -1.1106
  174SOPE   H6S19750   0.199   1.302   9.783 -0.6855 -0.1415 -0.5943
  174SOPE   C2719751   0.332   1.239   9.627 -0.2835  0.3805  0.2028
  174SOPE   H7R19752   0.366   1.339   9.594 -1.2684  0.9316  0.8197
  174SOPE   H7S19753   0.421   1.173   9.623  0.3200  1.2628 -2.6382
  174SOPE   C2819754   0.220   1.208   9.531  0.3239  0.2105 -0.3571
  174SOPE   H8R19755   0.156   1.299   9.519  1.4284  0.7817 -2.3558
  174SOPE   H8S19756   0.262   1.196   9.429 -2.5228 -1.0119 -1.4918
  174SOPE   C2919757   0.152   1.083   9.557  0.1016  0.3298 -0.0170
  174SOPE   H9119758   0.171   1.048   9.659  0.7145  0.0190 -0.2347
  174SOPE  C21019759   0.075   1.009   9.471  0.2793 -0.2825 -0.6138
  174SOPE  H10119760   0.039   0.915   9.514  1.2470 -1.4821 -2.3078
  174SOPE  C21119761   0.032   1.032   9.327 -0.8364 -0.0119 -0.2922
  174SOPE  H11R19762  -0.035   1.120   9.319 -2.5738 -1.3238 -1.0314
  174SOPE  H11S19763  -0.035   0.944   9.311 -1.3857  0.0754  1.3035
  174SOPE  C21219764   0.136   1.050   9.214 -0.0118  0.7102  0.3815
  174SOPE  H12R19765   0.186   0.952   9.202 -1.3582  0.2076 -1.6073
  174SOPE  H12S19766   0.215   1.125   9.235  0.4185  0.6144 -0.8506
  174SOPE  C21319767   0.084   1.068   9.073 -0.6213  0.1714 -0.4292
  174SOPE  H13R19768   0.022   1.159   9.059  0.1302  0.5462 -1.4617
  174SOPE  H13S19769   0.014   0.986   9.046 -0.7509  0.6800 -1.7035
  174SOPE  C21419770   0.190   1.066   8.964  0.1794  0.5119  0.2978
  174SOPE  H14R19771   0.242   0.968   8.958  0.7432  0.8401 -0.3549
  174SOPE  H14S19772   0.259   1.151   8.986 -1.5739  1.5170  2.2353
  174SOPE  C21519773   0.118   1.095   8.829 -0.0578  0.1952 -0.3977
  174SOPE  H15R19774   0.045   1.174   8.856 -1.3420 -1.3159  0.7744
  174SOPE  H15S19775   0.058   1.009   8.793 -1.8617  1.5662 -0.8261
  174SOPE  C21619776   0.212   1.157   8.720 -0.5315 -0.7028  0.2063
  174SOPE  H16R19777   0.281   1.078   8.684  0.6426  0.8416 -1.0980
  174SOPE  H16S19778   0.271   1.240   8.763 -1.9068  1.2552 -1.4481
  174SOPE  C21719779   0.144   1.228   8.604 -0.2535  0.3345  0.1067
  174SOPE  H17R19780   0.223   1.252   8.530 -0.0773  1.4041  0.6277
  174SOPE  H17S19781   0.096   1.323   8.635  2.8516  1.4596  1.9874
  174SOPE  C21819782   0.038   1.139   8.546  0.3204 -0.2472 -0.5027
  174SOPE  H18R19783  -0.044   1.116   8.617 -1.0911  0.5637 -1.8114
  174SOPE  H18S19784   0.074   1.041   8.509 -1.1123 -0.4643 -1.4110
  174SOPE  H18T19785  -0.015   1.203   8.472  0.0361 -0.0125 -0.1036
  174SOPE   C3319786   0.245   1.723   9.943  0.0417 -0.0331 -0.0874
  174SOPE   H3X19787   0.343   1.676   9.967 -0.2540 -0.3957  0.4291
  174SOPE   H3Y19788   0.240   1.833   9.961 -0.8393  0.1554 -1.3487
  174SOPE   C3419789   0.215   1.704   9.792  1.1731  0.3597  0.3375
  174SOPE   H4X19790   0.122   1.752   9.756  0.1925 -0.6022  1.4963
  174SOPE   H4Y19791   0.211   1.596   9.767  1.9371  0.6235 -1.0504
  174SOPE   C3519792   0.337   1.759   9.717  0.0739 -0.4450  0.2384
  174SOPE   H5X19793   0.427   1.705   9.753  0.2077  1.3347  2.8184
  174SOPE   H5Y19794   0.357   1.859   9.761  1.8222 -1.4888  1.9794
  174SOPE   C3619795   0.326   1.762   9.566 -0.0542 -0.3697  0.6446
  174SOPE   H6X19796   0.385   1.848   9.529  0.3838  0.1989  2.5581
  174SOPE   H6Y19797   0.220   1.780   9.537 -0.0434  0.3657  1.0433
  174SOPE   C3719798   0.381   1.632   9.513  0.1087  0.1763 -0.2655
  174SOPE   H7X19799   0.321   1.557   9.569  0.0682 -1.6290 -2.5659
  174SOPE   H7Y19800   0.489   1.623   9.535  0.6320  0.8968 -2.3271
  174SOPE   C3819801   0.376   1.617   9.360  0.4142  0.3991  1.0672
  174SOPE   H8X19802   0.474   1.647   9.316 -0.1091 -1.5394 -1.7040
  174SOPE   H8Y19803   0.319   1.701   9.315  1.4321  0.3904 -0.3201
  174SOPE   C3919804   0.350   1.484   9.306  0.3029  0.5348 -0.7352
  174SOPE   H9X19805   0.256   1.444   9.349  0.2763 -1.2506 -2.3059
  174SOPE   H9Y19806   0.428   1.413   9.342  1.3496  1.4350 -1.1741
  174SOPE  C31019807   0.336   1.479   9.150  0.8104  0.5849 -0.5990
  174SOPE  H10X19808   0.374   1.381   9.115 -0.5679 -0.5824  1.0024
  174SOPE  H10Y19809   0.405   1.550   9.101  1.3020  0.1424 -0.5585
  174SOPE  C31119810   0.187   1.487   9.115 -0.0131 -0.8366 -0.0840
  174SOPE  H11X19811   0.146   1.563   9.186  0.3006 -1.8328  1.1957
  174SOPE  H11Y19812   0.142   1.386   9.119  1.0060 -1.5383 -3.1951
  174SOPE  C31219813   0.171   1.537   8.972 -0.4263 -0.5726  0.3922
  174SOPE  H12X19814   0.199   1.458   8.899 -2.2597 -0.5898 -0.3511
  174SOPE  H12Y19815   0.231   1.630   8.961  0.2399 -0.8327  1.6586
  174SOPE  C31319816   0.021   1.563   8.933  0.5146  1.0228  0.1006
  174SOPE  H13X19817  -0.038   1.618   9.008 -0.0384  0.3475  0.1742
  174SOPE  H13Y19818  -0.019   1.459   8.940 -0.5399  1.5223  2.0778
  174SOPE  C31419819   0.002   1.608   8.789 -0.0980  0.0469  0.5189
  174SOPE  H14X19820   0.051   1.535   8.722 -3.4018 -0.6343 -1.3874
  174SOPE  H14Y19821   0.068   1.696   8.775  1.3737 -0.9870  0.7780
  174SOPE  C31519822  -0.151   1.638   8.754  0.5661 -1.0021 -0.2964
  174SOPE  H15X19823  -0.211   1.552   8.792  0.7251 -0.1989  1.9108
  174SOPE  H15Y19824  -0.161   1.655   8.645 -1.8258  1.0740  0.1739
  174SOPE  C31619825  -0.212   1.773   8.796  0.5115  0.7355 -0.3522
  174SOPE  H16X19826  -0.135   1.850   8.775  1.8369 -0.7028 -1.0229
  174SOPE  H16Y19827  -0.243   1.768   8.903  0.6800 -1.1590 -0.3592
  174SOPE  C31719828  -0.338   1.794   8.721 -0.6418  0.6163 -0.5570
  174SOPE  H17X19829  -0.402   1.707   8.696 -0.9521  1.3136 -2.3962
  174SOPE  H17Y19830  -0.308   1.820   8.617 -3.5202 -0.1932 -1.6990
  174SOPE  C31819831  -0.421   1.908   8.774 -0.6721  0.5545  0.5344
  174SOPE  H18X19832  -0.467   1.877   8.870  0.9638 -1.7709  0.6685
  174SOPE  H18Y19833  -0.508   1.931   8.709 -0.5479  2.9342  1.1272
  174SOPE  H18Z19834  -0.361   2.000   8.786  1.7208 -0.9104  0.5044
  175SOPE     N19835   5.042   5.899  10.745 -0.3236  0.1367 -0.1313
  175SOPE   HN119836   5.141   5.931  10.747 -1.0531  2.5449  0.5470
  175SOPE   HN219837   4.991   5.984  10.778  0.4072  0.5965 -0.1664
  175SOPE   HN319838   5.039   5.818  10.810  1.5839  0.5860  0.5771
  175SOPE   C1219839   4.995   5.851  10.607  0.9617  0.0638 -0.1705
  175SOPE  H12A19840   5.086   5.805  10.562 -0.1559 -2.1476 -0.3075
  175SOPE  H12B19841   4.978   5.941  10.545 -2.1932 -1.1138 -1.1829
  175SOPE   C1119842   4.877   5.750  10.620  0.4030 -0.3191 -0.5153
  175SOPE  H11A19843   4.854   5.729  10.513  1.1205 -3.5587 -0.1522
  175SOPE  H11B19844   4.789   5.800  10.666  0.1949  1.0804 -2.3463
  175SOPE     P19845   4.997   5.524  10.600  0.0214  0.0965  0.2613
  175SOPE   O1319846   5.105   5.468  10.684 -0.0331  0.1111 -0.1414
  175SOPE   O1419847   5.039   5.590  10.479 -0.5931  0.4843  0.2488
  175SOPE   O1219848   4.921   5.634  10.695 -0.0993  0.2436  0.1568
  175SOPE   O1119849   4.891   5.411  10.567 -0.2699  0.2773  0.1344
  175SOPE    C119850   4.751   5.430  10.608  0.1043 -0.2896 -0.0040
  175SOPE    HA19851   4.748   5.511  10.685 -0.8191  0.3613 -0.7035
  175SOPE    HB19852   4.709   5.340  10.657 -3.0885  1.2634  0.3729
  175SOPE    C219853   4.658   5.465  10.491 -0.5909 -0.8423 -0.2929
  175SOPE    HS19854   4.631   5.370  10.438 -0.8213 -0.7807 -0.2876
  175SOPE   O2119855   4.712   5.559  10.395  0.4559 -0.0175 -0.4991
  175SOPE   C2119856   4.798   5.526  10.306  0.5883  0.4490  0.1996
  175SOPE   O2219857   4.840   5.417  10.278  0.2685 -0.2312 -0.3422
  175SOPE   C2219858   4.837   5.659  10.230 -0.7069  0.0281 -0.2616
  175SOPE   H2R19859   4.893   5.723  10.301 -2.5040  1.3869 -0.0020
  175SOPE   H2S19860   4.750   5.725  10.209  0.4239  1.5700 -0.3213
  175SOPE    C319861   4.530   5.525  10.546  0.1494  0.1149 -0.4536
  175SOPE    HX19862   4.560   5.615  10.604 -0.7151  0.6398 -0.7999
  175SOPE    HY19863   4.478   5.464  10.623 -2.0806  1.6201 -0.6875
  175SOPE   O3119864   4.431   5.573  10.450 -0.3963 -0.3439  0.1534
  175SOPE   C3119865   4.354   5.475  10.402  0.2143 -0.8753  0.3321
  175SOPE   O3219866   4.366   5.357  10.428 -0.9072 -0.1630  0.2408
  175SOPE   C3219867   4.249   5.535  10.309  0.2808  0.3656  0.2299
  175SOPE   H2X19868   4.261   5.643  10.284 -0.2218  0.3744  0.0009
  175SOPE   H2Y19869   4.149   5.532  10.358  0.9762 -1.0405  1.6664
  175SOPE   C2319870   4.917   5.644  10.104  0.0659  0.2279 -0.0184
  175SOPE   H3R19871   4.990   5.562  10.123 -0.5404 -0.6405 -1.3159
  175SOPE   H3S19872   4.972   5.739  10.088  0.8235 -0.1977  0.0441
  175SOPE   C2419873   4.829   5.604   9.983 -0.0984  0.5670 -0.2994
  175SOPE   H4R19874   4.766   5.518  10.013 -0.0433 -0.1284 -2.0655
  175SOPE   H4S19875   4.756   5.681   9.951 -2.2709 -1.5722 -0.6941
  175SOPE   C2519876   4.911   5.575   9.866  0.4643  0.4241  0.2282
  175SOPE   H5R19877   4.993   5.511   9.905 -0.1805 -1.2682 -1.0904
  175SOPE   H5S19878   4.860   5.511   9.790  1.7149  1.3324 -1.4557
  175SOPE   C2619879   4.958   5.692   9.784  0.6737 -0.1368  0.9477
  175SOPE   H6R19880   4.871   5.752   9.749  1.6067  2.0933  2.2334
  175SOPE   H6S19881   5.017   5.758   9.851 -3.4335  2.5625  2.3068
  175SOPE   C2719882   5.040   5.653   9.661  0.0731  0.6905 -0.3572
  175SOPE   H7R19883   5.110   5.575   9.699 -0.9591  0.2793  0.7926
  175SOPE   H7S19884   4.985   5.588   9.590  2.6294  0.0875 -1.9061
  175SOPE   C2819885   5.106   5.773   9.590 -0.6772  0.3450 -0.4857
  175SOPE   H8R19886   5.029   5.836   9.541 -0.3660 -0.4582 -2.0867
  175SOPE   H8S19887   5.156   5.836   9.667  1.2694  0.1023 -1.4836
  175SOPE   C2919888   5.195   5.724   9.476 -1.1057 -0.5924 -0.2341
  175SOPE   H9119889   5.290   5.675   9.504 -1.3625 -0.7796  0.3330
  175SOPE  C21019890   5.166   5.722   9.340 -0.0053 -0.7018  0.0403
  175SOPE  H10119891   5.234   5.680   9.264 -0.0141  0.7816 -0.8219
  175SOPE  C21119892   5.047   5.789   9.272  0.1596  0.2136  0.0539
  175SOPE  H11R19893   5.093   5.856   9.197  1.4444  0.0951  0.7093
  175SOPE  H11S19894   4.986   5.852   9.339  0.3038  0.8841 -0.4370
  175SOPE  C21219895   4.957   5.688   9.197  0.1323  0.6958  0.5067
  175SOPE  H12R19896   4.871   5.743   9.153  1.6544  2.7652 -0.0127
  175SOPE  H12S19897   4.907   5.623   9.272 -1.6453 -0.0439 -1.2203
  175SOPE  C21319898   5.028   5.611   9.091  1.2211 -0.2511  0.0993
  175SOPE  H13R19899   4.945   5.556   9.041  1.7895  1.2240 -2.6549
  175SOPE  H13S19900   5.113   5.547   9.121  0.6892 -2.4964 -2.7865
  175SOPE  C21419901   5.078   5.705   8.980 -0.5477 -0.4688  0.4532
  175SOPE  H14R19902   5.185   5.733   8.995 -1.0969  0.8486  2.2564
  175SOPE  H14S19903   5.025   5.803   8.976  1.0308  0.4455  0.9443
  175SOPE  C21519904   5.056   5.636   8.846  0.5558  0.0596 -0.3363
  175SOPE  H15R19905   5.096   5.707   8.771 -0.0842  1.7291  0.8442
  175SOPE  H15S19906   4.946   5.629   8.832  0.0793  0.6525  2.4481
  175SOPE  C21619907   5.117   5.495   8.836  0.5215 -0.1813 -0.2214
  175SOPE  H16R19908   5.094   5.426   8.920 -2.8562 -1.0803 -1.7234
  175SOPE  H16S19909   5.225   5.518   8.820  0.2552  0.7709 -0.7345
  175SOPE  C21719910   5.076   5.432   8.708 -0.1195  0.5533 -0.5664
  175SOPE  H17R19911   5.107   5.501   8.626  1.6619  1.3680  0.7138
  175SOPE  H17S19912   4.965   5.423   8.705 -0.0992 -0.0720  0.2292
  175SOPE  C21819913   5.142   5.294   8.689  0.0025 -0.5081 -0.6994
  175SOPE  H18R19914   5.136   5.225   8.776  1.1378 -0.9753 -0.9796
  175SOPE  H18S19915   5.247   5.312   8.660  0.7730 -1.4444  1.3375
  175SOPE  H18T19916   5.085   5.238   8.611  2.4461 -2.6406 -1.0862
  175SOPE   C3319917   4.238   5.465  10.172  0.4044  0.4345 -0.7413
  175SOPE   H3X19918   4.340   5.428  10.148  0.6317  0.3978  0.2123
  175SOPE   H3Y19919   4.208   5.539  10.095  1.6030  2.3577  0.5481
  175SOPE   C3419920   4.134   5.351  10.170 -0.8386  0.5045  0.1510
  175SOPE   H4X19921   4.038   5.398  10.201  0.1229  2.3158  0.5382
  175SOPE   H4Y19922   4.153   5.270  10.243 -3.7692 -1.0568 -0.6371
  175SOPE   C3519923   4.125   5.294  10.027 -0.3684 -0.4411 -0.5886
  175SOPE   H5X19924   4.046   5.357   9.980 -1.6613 -1.3506  0.2925
  175SOPE   H5Y19925   4.102   5.186  10.040  2.2557 -0.9691  0.3061
  175SOPE   C3619926   4.253   5.300   9.935  0.0724  0.2187 -0.6833
  175SOPE   H6X19927   4.339   5.250   9.985 -0.1705 -0.6807 -1.1515
  175SOPE   H6Y19928   4.278   5.407   9.921  1.8982 -0.4949 -4.0565
  175SOPE   C3719929   4.242   5.228   9.801 -0.1081  0.0861 -0.1346
  175SOPE   H7X19930   4.149   5.271   9.757 -1.0320 -1.6025  0.1189
  175SOPE   H7Y19931   4.228   5.119   9.816  0.6442  0.0449  0.3095
  175SOPE   C3819932   4.353   5.258   9.709 -0.0978 -0.4819  0.1347
  175SOPE   H8X19933   4.445   5.212   9.752 -0.3664 -0.7051  0.4686
  175SOPE   H8Y19934   4.376   5.367   9.705 -0.4260 -0.3396  1.6409
  175SOPE   C3919935   4.322   5.221   9.559 -0.2566  0.6206  0.9082
  175SOPE   H9X19936   4.250   5.298   9.523 -1.4460 -1.4764 -1.5706
  175SOPE   H9Y19937   4.272   5.122   9.565 -0.3300  0.6504  0.8102
  175SOPE  C31019938   4.438   5.209   9.463 -1.2330 -0.0952  0.9159
  175SOPE  H10X19939   4.520   5.148   9.505 -0.5563  1.2307  1.5865
  175SOPE  H10Y19940   4.486   5.309   9.464  0.9870 -1.1005  0.2442
  175SOPE  C31119941   4.403   5.169   9.313  0.4603 -0.9958 -0.1963
  175SOPE  H11X19942   4.311   5.223   9.281 -0.2485 -1.6564  0.6711
  175SOPE  H11Y19943   4.376   5.062   9.303 -1.4193 -0.5642 -0.2544
  175SOPE  C31219944   4.520   5.195   9.222  0.6125 -0.5220 -0.0694
  175SOPE  H12X19945   4.621   5.173   9.261  1.0366  0.4118 -0.6004
  175SOPE  H12Y19946   4.530   5.303   9.200 -1.4088 -0.3886 -0.5519
  175SOPE  C31319947   4.503   5.123   9.079  0.5444  0.2075  0.2133
  175SOPE  H13X19948   4.576   5.161   9.005  0.9048  1.4644  1.1722
  175SOPE  H13Y19949   4.400   5.146   9.044  0.0560  1.8891  2.5296
  175SOPE  C31419950   4.526   4.967   9.089  0.1997 -0.0708  0.5832
  175SOPE  H14X19951   4.430   4.925   9.126 -0.0165  1.3041  1.6485
  175SOPE  H14Y19952   4.602   4.948   9.169 -0.5665  0.3620  1.4359
  175SOPE  C31519953   4.570   4.906   8.955  0.4564 -0.4570 -0.1566
  175SOPE  H15X19954   4.644   4.981   8.919  1.3081 -0.7527  0.9251
  175SOPE  H15Y19955   4.481   4.904   8.889 -1.0334 -1.2000  1.7613
  175SOPE  C31619956   4.632   4.768   8.959  0.0623  0.0707  0.3797
  175SOPE  H16X19957   4.641   4.733   8.854 -0.0098 -1.1319  0.7524
  175SOPE  H16Y19958   4.561   4.696   9.006 -0.9617 -0.8935 -2.4335
  175SOPE  C31719959   4.762   4.759   9.041 -0.0921  0.5658  0.1019
  175SOPE  H17X19960   4.804   4.661   9.011  1.4701  1.8650 -2.2113
  175SOPE  H17Y19961   4.736   4.774   9.148 -1.2514  0.7078 -0.1779
  175SOPE  C31819962   4.875   4.856   8.999  0.1138 -0.2113  0.9797
  175SOPE  H18X19963   4.923   4.907   9.085 -0.9584  3.2460 -0.2986
  175SOPE  H18Y19964   4.827   4.932   8.934 -0.8874 -0.9730  0.7953
  175SOPE  H18Z19965   4.952   4.806   8.936 -0.2180  1.2037 -0.6193
  176SOPE     N19966   0.179   6.114  11.387 -0.3551 -0.0734  0.4023
  176SOPE   HN119967   0.200   6.165  11.475  2.1997 -2.1612  1.0913
  176SOPE   HN219968   0.095   6.058  11.411 -0.7435  1.6163  3.4774
  176SOPE   HN319969   0.259   6.049  11.374 -0.3027 -0.2869  1.6816
  176SOPE   C1219970   0.154   6.217  11.283 -0.4093 -0.2727 -0.5214
  176SOPE  H12A19971   0.247   6.278  11.280  0.5485 -1.6965 -0.8358
  176SOPE  H12B19972   0.056   6.264  11.308 -0.4134 -0.1078 -0.8418
  176SOPE   C1119973   0.134   6.145  11.153  0.2183 -0.0964  0.4391
  176SOPE  H11A19974   0.218   6.078  11.128 -0.6139 -0.3469 -1.9235
  176SOPE  H11B19975   0.133   6.216  11.068 -3.1726 -2.2114 -1.5289
  176SOPE     P19976  -0.009   5.956  11.048  0.1396 -0.0288 -0.2649
  176SOPE   O1319977  -0.148   5.953  11.001  0.3910 -0.0721 -0.5010
  176SOPE   O1419978   0.033   5.836  11.124  0.6105 -0.1690 -0.0013
  176SOPE   O1219979   0.005   6.081  11.143  0.0584  0.2405 -0.7324
  176SOPE   O1119980   0.087   5.994  10.930  0.0694 -0.3713  0.0691
  176SOPE    C119981   0.044   6.083  10.822 -0.4236  0.1922 -0.0897
  176SOPE    HA19982   0.136   6.133  10.785  1.0784  0.5629  3.7222
  176SOPE    HB19983  -0.032   6.157  10.855 -0.0875  0.1858  0.7092
  176SOPE    C219984  -0.023   6.006  10.702 -0.0533  0.5519  0.3538
  176SOPE    HS19985  -0.104   5.942  10.743  0.4493 -1.7490 -1.9609
  176SOPE   O2119986   0.080   5.920  10.641 -0.1246  0.6053  0.1829
  176SOPE   C2119987   0.031   5.831  10.562 -0.0465  0.3078 -0.0575
  176SOPE   O2219988  -0.084   5.795  10.541  0.1907 -0.1410  0.9413
  176SOPE   C2219989   0.155   5.774  10.486 -0.4740  0.2699 -0.6394
  176SOPE   H2R19990   0.204   5.692  10.541 -1.2375 -1.5086 -2.4582
  176SOPE   H2S19991   0.229   5.854  10.464  1.3642 -1.4850 -1.1679
  176SOPE    C319992  -0.091   6.098  10.600  0.4248 -0.0195  0.0890
  176SOPE    HX19993  -0.156   6.164  10.662  0.2544 -0.2786  0.1843
  176SOPE    HY19994  -0.144   6.025  10.535  1.8173 -0.1080 -0.9811
  176SOPE   O3119995   0.009   6.180  10.531  0.1439  0.0700 -0.1531
  176SOPE   C3119996  -0.032   6.224  10.411 -0.7026 -0.2989  0.2294
  176SOPE   O3219997  -0.141   6.202  10.365 -0.4289  0.2249  0.2526
  176SOPE   C3219998   0.073   6.308  10.336  0.0654  0.3666  0.3747
  176SOPE   H2X19999   0.165   6.320  10.396  0.1670 -0.2269  0.3350
  176SOPE   H2Y20000   0.029   6.406  10.306  1.9009  1.1892  0.2136
  176SOPE   C2320001   0.130   5.720  10.338  0.0259 -0.6574 -0.1500
  176SOPE   H3R20002   0.099   5.807  10.276 -0.7061 -1.1192 -0.4413
  176SOPE   H3S20003   0.034   5.667  10.354 -0.3619  0.8917  3.9033
  176SOPE   C2420004   0.234   5.640  10.258 -0.0759  0.0789 -0.4287
  176SOPE   H4R20005   0.331   5.693  10.248  0.3387 -0.8845 -1.6008
  176SOPE   H4S20006   0.256   5.547  10.315  0.4913  1.4297  1.6764
  176SOPE   C2520007   0.178   5.605  10.122  0.0787 -0.1846 -0.6695
  176SOPE   H5R20008   0.081   5.553  10.140  0.4537 -0.8136 -0.4356
  176SOPE   H5S20009   0.176   5.691  10.052  2.2519 -0.1235 -0.7147
  176SOPE   C2620010   0.262   5.500  10.052  0.0414 -0.0483  0.0683
  176SOPE   H6R20011   0.351   5.556  10.017 -1.0757  0.3239 -2.3444
  176SOPE   H6S20012   0.295   5.422  10.124 -2.1000 -2.3818 -1.2933
  176SOPE   C2720013   0.192   5.434   9.935 -0.5466  0.0338  0.2129
  176SOPE   H7R20014   0.121   5.369   9.990  1.4910 -1.4006  1.2779
  176SOPE   H7S20015   0.142   5.518   9.883 -0.0253  0.8214  0.9526
  176SOPE   C2820016   0.291   5.361   9.847 -0.2986  0.2781 -0.0390
  176SOPE   H8R20017   0.367   5.432   9.807  0.3155  0.9090  2.1239
  176SOPE   H8S20018   0.353   5.281   9.892 -0.2550 -1.0783 -2.3120
  176SOPE   C2920019   0.203   5.290   9.742 -0.2641 -0.6209  0.4523
  176SOPE   H9120020   0.102   5.262   9.775 -0.5474  1.1066  1.1255
  176SOPE  C21020021   0.244   5.270   9.617  0.2469  0.2702  1.0002
  176SOPE  H10120022   0.173   5.233   9.542 -2.1487  1.9008  2.3245
  176SOPE  C21120023   0.378   5.303   9.548 -0.2099 -0.5550  0.8937
  176SOPE  H11R20024   0.438   5.377   9.605 -0.1212  1.0359 -1.1792
  176SOPE  H11S20025   0.361   5.365   9.458  1.4667  1.1367  1.6877
  176SOPE  C21220026   0.449   5.173   9.506  0.1132  0.1441 -0.0209
  176SOPE  H12R20027   0.368   5.099   9.490 -1.7129  1.4453  2.4767
  176SOPE  H12S20028   0.503   5.141   9.598 -0.2537  0.6783  0.3844
  176SOPE  C21320029   0.544   5.179   9.385 -0.1938 -0.0365 -0.5663
  176SOPE  H13R20030   0.565   5.075   9.352 -2.2160 -0.7852  0.2969
  176SOPE  H13S20031   0.640   5.231   9.403  0.2288 -1.2298  0.8161
  176SOPE  C21420032   0.472   5.257   9.268  0.2871  0.3590  0.3098
  176SOPE  H14R20033   0.471   5.365   9.294 -0.7445  0.3346  0.4277
  176SOPE  H14S20034   0.365   5.229   9.261 -0.5352  3.0960  0.6972
  176SOPE  C21520035   0.546   5.242   9.137 -0.5628 -0.2647  0.4332
  176SOPE  H15R20036   0.553   5.139   9.097  1.0685 -0.3092  0.7726
  176SOPE  H15S20037   0.645   5.282   9.169 -1.2403  2.4056 -0.5461
  176SOPE  C21620038   0.493   5.333   9.022 -0.6138  0.9905  0.0902
  176SOPE  H16R20039   0.533   5.436   9.020 -0.4198  0.9083 -1.4762
  176SOPE  H16S20040   0.382   5.329   9.034 -1.1046  3.5186 -2.4883
  176SOPE  C21720041   0.526   5.281   8.874 -0.1271  1.1541 -0.1653
  176SOPE  H17R20042   0.469   5.187   8.861  0.7003  0.5475  0.4763
  176SOPE  H17S20043   0.636   5.266   8.872 -0.0010  1.9807  0.2925
  176SOPE  C21820044   0.491   5.375   8.759 -0.0367  0.2778  0.1424
  176SOPE  H18R20045   0.559   5.462   8.749  1.1908 -0.7353 -0.6179
  176SOPE  H18S20046   0.392   5.424   8.768 -1.3698 -1.7537 -2.3747
  176SOPE  H18T20047   0.496   5.319   8.663 -0.7703  0.3193  0.0762
  176SOPE   C3320048   0.122   6.237  10.206  1.0091 -0.1290  0.2192
  176SOPE   H3X20049   0.184   6.150  10.236  1.2172  0.3668  1.2761
  176SOPE   H3Y20050   0.183   6.312  10.152  0.9985  0.5783  1.1566
  176SOPE   C3420051   0.020   6.188  10.101  0.1813  0.1176  0.2184
  176SOPE   H4X20052  -0.039   6.276  10.067 -2.8916 -1.7576  0.3393
  176SOPE   H4Y20053  -0.052   6.109  10.130  1.2494 -1.3851 -1.0167
  176SOPE   C3520054   0.090   6.129   9.979  0.1023  0.2984 -0.0298
  176SOPE   H5X20055   0.153   6.043  10.008  0.6360  1.0168  1.0356
  176SOPE   H5Y20056   0.158   6.208   9.941  0.5814  0.9448  2.0281
  176SOPE   C3620057  -0.012   6.082   9.873 -0.7146  0.0133  0.4030
  176SOPE   H6X20058  -0.093   6.159   9.875 -0.6329  0.2356 -1.7920
  176SOPE   H6Y20059  -0.065   5.988   9.899 -0.3503 -1.6473 -3.8895
  176SOPE   C3720060   0.040   6.070   9.727  0.1009  0.0281  0.7462
  176SOPE   H7X20061   0.124   6.001   9.747 -0.2495 -0.4562  0.5789
  176SOPE   H7Y20062   0.079   6.166   9.688 -1.6990  0.9222  1.0096
  176SOPE   C3820063  -0.066   6.001   9.634 -0.0987 -0.5156  0.1417
  176SOPE   H8X20064  -0.087   5.897   9.666 -0.4466 -0.2514  0.7964
  176SOPE   H8Y20065  -0.018   6.001   9.534 -2.3129  1.3565 -1.0288
  176SOPE   C3920066  -0.195   6.089   9.609 -1.0373 -0.3264 -0.0611
  176SOPE   H9X20067  -0.166   6.191   9.578 -1.6274  0.0595  0.6325
  176SOPE   H9Y20068  -0.233   6.098   9.713 -1.3831 -0.3066 -0.1909
  176SOPE  C31020069  -0.295   6.029   9.506  0.4528 -0.6695  0.4924
  176SOPE  H10X20070  -0.389   6.086   9.495 -0.4048 -2.3115 -1.5322
  176SOPE  H10Y20071  -0.325   5.929   9.545  2.0751 -1.0194  0.9260
  176SOPE  C31120072  -0.228   6.009   9.371 -0.4952 -0.0602 -0.4035
  176SOPE  H11X20073  -0.162   5.920   9.384 -1.6464 -0.7893  0.6258
  176SOPE  H11Y20074  -0.159   6.095   9.361  0.9077 -0.8494  1.5884
  176SOPE  C31220075  -0.320   5.996   9.247  1.1936  0.4660 -0.4337
  176SOPE  H12X20076  -0.407   6.064   9.260  0.0230 -1.3884  2.5541
  176SOPE  H12Y20077  -0.363   5.893   9.243  0.9895  0.5088  0.5494
  176SOPE  C31320078  -0.258   6.026   9.109 -0.5714  0.0212 -0.1935
  176SOPE  H13X20079  -0.179   5.953   9.081 -0.3513  0.1727  0.0321
  176SOPE  H13Y20080  -0.221   6.130   9.112  0.1625 -0.2463  1.0539
  176SOPE  C31420081  -0.352   6.014   8.991  0.2441  0.3483  0.0978
  176SOPE  H14X20082  -0.435   6.082   9.018  1.4148  1.9651 -0.1995
  176SOPE  H14Y20083  -0.406   5.917   8.996  1.4736 -0.5034 -1.9258
  176SOPE  C31520084  -0.309   6.051   8.849 -0.2465 -0.5044  0.6671
  176SOPE  H15X20085  -0.210   6.003   8.834  0.4400  0.5691  1.5804
  176SOPE  H15Y20086  -0.295   6.161   8.850  0.5382 -0.6021  1.4717
  176SOPE  C31620087  -0.397   6.012   8.733  1.2269  0.3112  0.1031
  176SOPE  H16X20088  -0.501   6.040   8.758  0.7513 -0.8105 -0.5419
  176SOPE  H16Y20089  -0.384   5.903   8.716  1.0105  0.6780 -2.8415
  176SOPE  C31720090  -0.356   6.066   8.600 -0.1766 -0.3087  0.7881
  176SOPE  H17X20091  -0.253   6.029   8.579 -0.6462 -0.9229 -0.5775
  176SOPE  H17Y20092  -0.353   6.176   8.587 -0.9659 -0.6150 -3.5681
  176SOPE  C31820093  -0.439   6.017   8.481  0.7924  0.1548  0.3566
  176SOPE  H18X20094  -0.454   5.907   8.475  0.0242  0.3137 -0.9351
  176SOPE  H18Y20095  -0.373   6.041   8.395  2.0511  2.3364  1.8432
  176SOPE  H18Z20096  -0.532   6.075   8.467  1.2326  0.5980 -0.7584
  177SOPE     N20097   0.626   5.118  11.355  0.0548 -0.1591 -0.0852
  177SOPE   HN120098   0.618   5.186  11.278  2.1912  2.5030  1.8528
  177SOPE   HN220099   0.550   5.137  11.423  0.4732 -2.7136  1.2571
  177SOPE   HN320100   0.719   5.139  11.396 -0.8699  3.1933  0.5730
  177SOPE   C1220101   0.625   4.970  11.312 -0.4505 -0.3326  0.0101
  177SOPE  H12A20102   0.640   4.903  11.399 -0.0707 -0.4348 -0.1307
  177SOPE  H12B20103   0.707   4.965  11.236 -2.0034 -1.7860 -1.6566
  177SOPE   C1120104   0.495   4.936  11.238 -0.7933 -0.2400 -0.3023
  177SOPE  H11A20105   0.497   5.012  11.157  0.4756  0.9824  0.8105
  177SOPE  H11B20106   0.408   4.955  11.305 -0.3416  2.2533 -0.3203
  177SOPE     P20107   0.521   4.743  11.074 -0.0133  0.0277  0.3131
  177SOPE   O1320108   0.437   4.624  11.056 -0.5413 -0.0892 -0.3340
  177SOPE   O1420109   0.665   4.717  11.069  0.4485 -0.1523 -0.4800
  177SOPE   O1220110   0.495   4.802  11.214  0.3789  0.5910  0.4070
  177SOPE   O1120111   0.489   4.854  10.979  0.0356  0.6056  0.1709
  177SOPE    C120112   0.370   4.859  10.900 -0.1063 -0.2969  0.3014
  177SOPE    HA20113   0.347   4.968  10.899 -1.0075 -0.4823 -0.2557
  177SOPE    HB20114   0.278   4.817  10.945 -0.1587 -0.3106  0.1840
  177SOPE    C220115   0.392   4.813  10.759 -1.1352  0.6123  0.4170
  177SOPE    HS20116   0.418   4.706  10.769 -1.5849  0.2276 -1.8912
  177SOPE   O2120117   0.496   4.893  10.690 -0.1277 -0.0064 -0.1981
  177SOPE   C2120118   0.559   4.830  10.592 -0.0599  0.5838 -0.0684
  177SOPE   O2220119   0.548   4.714  10.556 -0.1804  0.0517 -0.2374
  177SOPE   C2220120   0.658   4.918  10.532 -0.8575 -0.5675  0.7095
  177SOPE   H2R20121   0.740   4.950  10.600 -2.0819 -0.6179  2.2647
  177SOPE   H2S20122   0.611   5.013  10.500  0.8330 -0.4276 -1.5593
  177SOPE    C320123   0.264   4.814  10.669 -0.5924 -0.1726 -0.3674
  177SOPE    HX20124   0.207   4.905  10.694  2.7111  1.7753  0.7077
  177SOPE    HY20125   0.196   4.735  10.707 -1.3026  0.6650  0.1397
  177SOPE   O3120126   0.285   4.797  10.530  0.0534  0.4556  0.8824
  177SOPE   C3120127   0.274   4.668  10.472  0.3706 -0.1454 -0.1978
  177SOPE   O3220128   0.234   4.574  10.527  0.2334 -0.2605 -0.3406
  177SOPE   C3220129   0.319   4.679  10.331 -0.4384  0.1289 -0.6528
  177SOPE   H2X20130   0.424   4.717  10.330 -0.5483  0.4438 -0.3739
  177SOPE   H2Y20131   0.253   4.748  10.275  0.7399  0.9936 -1.0101
  177SOPE   C2320132   0.727   4.855  10.401 -0.2096  0.9055 -0.0608
  177SOPE   H3R20133   0.651   4.809  10.334 -1.3884  1.6835  0.7011
  177SOPE   H3S20134   0.788   4.766  10.428 -1.6186 -0.2046 -0.4294
  177SOPE   C2420135   0.816   4.944  10.314 -0.0224 -0.2124 -0.2955
  177SOPE   H4R20136   0.749   5.010  10.255 -0.9060  1.6332  2.5209
  177SOPE   H4S20137   0.871   5.012  10.382  1.4546 -1.2082 -0.4379
  177SOPE   C2520138   0.901   4.871  10.211 -0.2085  0.7564 -0.5503
  177SOPE   H5R20139   0.941   4.780  10.260 -2.1953 -0.1034 -0.4686
  177SOPE   H5S20140   0.839   4.825  10.132 -0.1488 -0.0209 -0.1517
  177SOPE   C2620141   1.013   4.956  10.148  0.7547 -0.1040 -0.1618
  177SOPE   H6R20142   1.054   5.009  10.237  0.2004  2.2712 -1.2505
  177SOPE   H6S20143   1.089   4.886  10.108 -0.3891 -1.7882  0.4965
  177SOPE   C2720144   0.959   5.053  10.042 -0.1065 -0.2427 -0.0719
  177SOPE   H7R20145   0.905   5.004   9.958  0.6622  0.4167 -0.9727
  177SOPE   H7S20146   0.902   5.135  10.091 -0.3565 -0.3848 -0.1230
  177SOPE   C2820147   1.083   5.112   9.969  0.6442  0.5890 -0.0396
  177SOPE   H8R20148   1.144   5.159  10.049 -0.5541  2.8447 -0.3706
  177SOPE   H8S20149   1.131   5.026   9.918 -1.8974 -0.6823 -0.4757
  177SOPE   C2920150   1.050   5.215   9.865 -0.4343  0.2794  0.3168
  177SOPE   H9120151   1.012   5.313   9.899 -0.1716  1.1497 -1.6964
  177SOPE  C21020152   1.021   5.194   9.738  0.4108  0.2832  0.5626
  177SOPE  H10120153   0.999   5.275   9.668 -2.7627  0.3524  1.4688
  177SOPE  C21120154   1.025   5.054   9.677  0.0077 -0.0287  0.0240
  177SOPE  H11R20155   0.942   5.001   9.728  1.6683 -1.7995  1.0230
  177SOPE  H11S20156   1.115   5.000   9.714 -1.9139 -0.3292  4.9903
  177SOPE  C21220157   1.001   5.041   9.523 -0.0374 -0.0994  0.2403
  177SOPE  H12R20158   0.903   5.081   9.491 -1.2481 -1.2945  2.2398
  177SOPE  H12S20159   0.992   4.939   9.480 -2.1925  1.0343 -2.2699
  177SOPE  C21320160   1.097   5.132   9.437  0.6087  0.2822 -0.1119
  177SOPE  H13R20161   1.198   5.098   9.467  0.1268 -2.5101 -1.3044
  177SOPE  H13S20162   1.091   5.242   9.446 -0.9136  0.3033 -0.9705
  177SOPE  C21420163   1.079   5.101   9.283 -0.7377  0.4284 -0.5793
  177SOPE  H14R20164   1.065   4.992   9.267  0.2520  0.2969 -0.5964
  177SOPE  H14S20165   1.176   5.127   9.236  0.6746 -1.7203  0.9164
  177SOPE  C21520166   0.956   5.171   9.220 -0.6948  0.0415  0.2920
  177SOPE  H15R20167   0.974   5.280   9.206  0.9011  0.0305  1.8583
  177SOPE  H15S20168   0.868   5.177   9.287  0.5569  0.5596  1.9434
  177SOPE  C21620169   0.899   5.120   9.091 -0.4188 -1.1409 -0.4122
  177SOPE  H16R20170   0.982   5.109   9.018  1.2011 -0.4980  1.2582
  177SOPE  H16S20171   0.827   5.192   9.046  0.6586  1.1172  1.2983
  177SOPE  C21720172   0.812   4.995   9.113 -0.0314  0.0296  0.2028
  177SOPE  H17R20173   0.721   5.021   9.170  0.1881 -0.3481  0.7289
  177SOPE  H17S20174   0.868   4.920   9.172 -0.9483 -1.9595 -1.3449
  177SOPE  C21820175   0.771   4.931   8.976 -0.6266 -0.3522 -0.3474
  177SOPE  H18R20176   0.697   4.851   8.999 -0.6448 -0.6304 -1.3199
  177SOPE  H18S20177   0.863   4.888   8.931  1.0680 -0.9023  3.3079
  177SOPE  H18T20178   0.729   5.015   8.916 -0.3167  0.7831  0.9693
  177SOPE   C3320179   0.318   4.540  10.259 -0.0808  0.4996  0.3930
  177SOPE   H3X20180   0.215   4.500  10.248 -0.8673  2.7254 -1.0332
  177SOPE   H3Y20181   0.379   4.460  10.307  0.7964  0.1741 -1.1857
  177SOPE   C3420182   0.376   4.557  10.122 -0.6647 -0.1630  0.6744
  177SOPE   H4X20183   0.487   4.563  10.122 -0.5813 -0.9907 -1.4867
  177SOPE   H4Y20184   0.344   4.659  10.094  0.6436  0.5794  1.7637
  177SOPE   C3520185   0.332   4.461  10.007  0.0076 -0.1367  0.0609
  177SOPE   H5X20186   0.224   4.442  10.020  0.2357  0.0154  2.7729
  177SOPE   H5Y20187   0.386   4.364  10.021 -0.7390 -0.5075  0.3992
  177SOPE   C3620188   0.360   4.515   9.867  0.3422  0.1658 -0.4422
  177SOPE   H6X20189   0.469   4.538   9.865  0.1591  1.0698 -0.1464
  177SOPE   H6Y20190   0.297   4.606   9.869 -2.7521 -1.8360  1.9669
  177SOPE   C3720191   0.332   4.428   9.748  0.9903  0.4098 -0.1048
  177SOPE   H7X20192   0.225   4.402   9.757  0.9656  0.5349 -0.0315
  177SOPE   H7Y20193   0.389   4.333   9.751  0.6132  0.1732 -0.4003
  177SOPE   C3820194   0.367   4.500   9.613  0.9310  0.4885  0.0237
  177SOPE   H8X20195   0.313   4.439   9.537  0.8668  0.3399  0.1876
  177SOPE   H8Y20196   0.477   4.490   9.616  0.7601 -1.6514  0.4273
  177SOPE   C3920197   0.312   4.642   9.588 -1.2328 -0.1107  0.1566
  177SOPE   H9X20198   0.355   4.718   9.657  0.4543 -0.2019 -0.7484
  177SOPE   H9Y20199   0.203   4.629   9.605 -1.1324 -0.2766  0.6938
  177SOPE  C31020200   0.333   4.687   9.443  0.5115 -0.4768  0.2298
  177SOPE  H10X20201   0.272   4.614   9.385  0.9844  0.2121 -1.1838
  177SOPE  H10Y20202   0.434   4.669   9.401  0.0089  0.4373 -1.4408
  177SOPE  C31120203   0.297   4.831   9.408 -0.4669  0.4466  0.4699
  177SOPE  H11X20204   0.385   4.895   9.424 -0.9194  1.0810  0.4457
  177SOPE  H11Y20205   0.211   4.862   9.471 -0.7011  1.5959 -0.3757
  177SOPE  C31220206   0.260   4.858   9.259 -0.3422 -0.3620 -0.1061
  177SOPE  H12X20207   0.269   4.965   9.229 -2.9100 -0.5461 -1.8952
  177SOPE  H12Y20208   0.150   4.843   9.252 -0.3036 -1.6376  1.4868
  177SOPE  C31320209   0.332   4.775   9.148 -0.1684 -0.0978  0.1710
  177SOPE  H13X20210   0.302   4.669   9.157 -2.8231  0.5864  0.1271
  177SOPE  H13Y20211   0.443   4.784   9.154 -0.2177  0.0811  0.8957
  177SOPE  C31420212   0.298   4.824   9.002 -0.4510 -0.2689 -0.0741
  177SOPE  H14X20213   0.341   4.753   8.928  0.1805 -2.0761  1.9210
  177SOPE  H14Y20214   0.343   4.924   8.990  2.2166 -0.7408  4.0974
  177SOPE  C31520215   0.149   4.837   8.969  0.1607 -0.0568 -0.2635
  177SOPE  H15X20216   0.102   4.918   9.029 -0.8991  0.3710 -1.6156
  177SOPE  H15Y20217   0.101   4.741   8.999 -0.6699  0.4166 -0.0323
  177SOPE  C31620218   0.118   4.858   8.815  0.4234  0.3211 -0.5268
  177SOPE  H16X20219   0.182   4.776   8.773 -0.8486  0.0640 -2.0337
  177SOPE  H16Y20220   0.163   4.956   8.788  2.5251 -0.5444 -0.3890
  177SOPE  C31720221  -0.033   4.824   8.774 -0.2495 -0.2594 -0.2495
  177SOPE  H17X20222  -0.082   4.918   8.743 -0.6360 -0.2438  0.4049
  177SOPE  H17Y20223  -0.091   4.782   8.859 -0.3008 -0.3181 -0.3134
  177SOPE  C31820224  -0.028   4.722   8.666  0.0595  0.4302  0.7524
  177SOPE  H18X20225   0.009   4.622   8.697 -2.3596 -0.8122 -0.0820
  177SOPE  H18Y20226   0.040   4.755   8.584 -1.2669 -0.4139 -0.7486
  177SOPE  H18Z20227  -0.134   4.708   8.633  0.6552 -0.4502 -0.9351
  178SOPE     N20228   3.758   1.033  10.599  0.4307  0.1317  0.1378
  178SOPE   HN120229   3.675   1.071  10.549  1.2859 -0.7507 -2.0313
  178SOPE   HN220230   3.720   0.982  10.681 -1.1442 -0.1587 -0.7344
  178SOPE   HN320231   3.819   1.105  10.644 -0.8584  0.7354  1.0064
  178SOPE   C1220232   3.845   0.955  10.506  0.3138  1.2787 -0.0375
  178SOPE  H12A20233   3.886   1.017  10.424  0.8961 -2.1359 -2.5596
  178SOPE  H12B20234   3.787   0.869  10.467 -0.7501  0.6044  2.7850
  178SOPE   C1120235   3.968   0.876  10.573  0.5469  0.0436  0.0726
  178SOPE  H11A20236   4.041   0.955  10.599 -1.9170  2.9293 -1.0955
  178SOPE  H11B20237   4.024   0.816  10.498  1.4756 -1.1721  1.6658
  178SOPE     P20238   3.876   0.655  10.685  0.4366 -0.3461  0.1123
  178SOPE   O1320239   3.766   0.643  10.784  0.4717 -0.1582  0.0526
  178SOPE   O1420240   3.992   0.563  10.704  0.4251 -0.0940  0.0146
  178SOPE   O1220241   3.926   0.802  10.690 -0.3000 -0.0550  0.2478
  178SOPE   O1120242   3.823   0.634  10.536 -0.4293 -0.1673  0.0224
  178SOPE    C120243   3.685   0.589  10.516 -0.1627 -0.4843  0.1404
  178SOPE    HA20244   3.616   0.644  10.583  1.3543  0.4242  0.9977
  178SOPE    HB20245   3.672   0.479  10.529 -0.6408 -0.8201 -2.5088
  178SOPE    C220246   3.635   0.615  10.362 -0.3918  0.6251  0.1039
  178SOPE    HS20247   3.571   0.525  10.345 -2.3014  1.7775  0.9332
  178SOPE   O2120248   3.747   0.635  10.275  0.4127 -0.5955 -0.2068
  178SOPE   C2120249   3.829   0.531  10.271 -0.5260  0.0463  0.0060
  178SOPE   O2220250   3.814   0.422  10.326  0.1487 -0.0403  0.2246
  178SOPE   C2220251   3.944   0.557  10.171  0.3621 -0.3490 -0.1392
  178SOPE   H2R20252   4.024   0.575  10.246  0.0576  0.3905  0.0249
  178SOPE   H2S20253   3.922   0.642  10.103 -1.0028 -2.0231 -1.8972
  178SOPE    C320254   3.541   0.731  10.350 -0.8070 -0.0105 -0.0368
  178SOPE    HX20255   3.597   0.814  10.399  0.6571 -0.6307 -0.6284
  178SOPE    HY20256   3.452   0.706  10.412 -0.8664  1.1588  0.3907
  178SOPE   O3120257   3.518   0.761  10.216  0.4596  0.7430 -0.4545
  178SOPE   C3120258   3.423   0.710  10.148  1.0383  0.6649 -0.2061
  178SOPE   O3220259   3.329   0.647  10.201  0.3063 -0.1988  0.2875
  178SOPE   C3220260   3.450   0.714   9.995 -0.0092 -0.5911  0.0021
  178SOPE   H2X20261   3.541   0.650   9.987  0.8716  0.6963 -0.7941
  178SOPE   H2Y20262   3.464   0.820   9.962  0.0184  0.2869  2.6093
  178SOPE   C2320263   3.986   0.435  10.086  0.2490 -0.1178  0.1640
  178SOPE   H3R20264   3.961   0.340  10.138 -1.1089  1.1717  2.0125
  178SOPE   H3S20265   4.093   0.453  10.061 -0.2898  2.0330 -0.8321
  178SOPE   C2420266   3.917   0.420   9.943 -0.4201 -0.3916  0.2438
  178SOPE   H4R20267   3.952   0.505   9.881  2.1379 -1.5498 -0.0098
  178SOPE   H4S20268   3.962   0.326   9.906 -0.9122 -0.6243  0.2197
  178SOPE   C2520269   3.770   0.408   9.937 -0.3869 -0.3629 -0.1102
  178SOPE   H5R20270   3.730   0.358  10.027  0.1783 -1.0307 -0.2276
  178SOPE   H5S20271   3.734   0.513   9.934  2.1068  0.5394 -0.9388
  178SOPE   C2620272   3.732   0.350   9.799 -0.5802  0.1346  0.0835
  178SOPE   H6R20273   3.785   0.253   9.787 -1.1360 -0.0376 -1.1358
  178SOPE   H6S20274   3.623   0.331   9.794 -0.3607 -1.3908  0.6070
  178SOPE   C2720275   3.777   0.440   9.687  0.7492  0.2245  0.9294
  178SOPE   H7R20276   3.732   0.540   9.708  0.1263  0.7332 -2.3267
  178SOPE   H7S20277   3.888   0.451   9.687  0.8338 -0.3571  2.8390
  178SOPE   C2820278   3.726   0.365   9.555 -0.0765  0.5215 -0.1973
  178SOPE   H8R20279   3.779   0.269   9.539 -0.8657  0.1369 -0.5609
  178SOPE   H8S20280   3.620   0.339   9.576  0.1290 -0.0800  0.1310
  178SOPE   C2920281   3.741   0.456   9.435 -0.5390  0.5191  0.4685
  178SOPE   H9120282   3.787   0.554   9.454 -0.0500 -0.1838  3.3955
  178SOPE  C21020283   3.727   0.424   9.306  0.3386 -0.1324 -0.4698
  178SOPE  H10120284   3.747   0.503   9.233 -2.3204  1.4684  0.4260
  178SOPE  C21120285   3.671   0.293   9.254  0.2231 -0.0370 -0.6387
  178SOPE  H11R20286   3.565   0.295   9.289  1.0936 -2.4134  2.5692
  178SOPE  H11S20287   3.706   0.202   9.306 -2.5879 -0.1539  1.2764
  178SOPE  C21220288   3.668   0.289   9.105 -0.2424  0.5170  0.1483
  178SOPE  H12R20289   3.770   0.275   9.064  0.5788  0.9680  1.9633
  178SOPE  H12S20290   3.625   0.381   9.060 -1.0912 -1.6191 -3.9234
  178SOPE  C21320291   3.573   0.170   9.064  0.6003 -0.2436  0.7476
  178SOPE  H13R20292   3.468   0.202   9.082 -0.3737 -1.2455 -2.4813
  178SOPE  H13S20293   3.590   0.082   9.131 -0.6486 -0.2369  1.1026
  178SOPE  C21420294   3.587   0.134   8.914  0.3805  0.6192  0.7049
  178SOPE  H14R20295   3.689   0.164   8.883  0.8680 -1.3920  0.2567
  178SOPE  H14S20296   3.514   0.196   8.856  0.3555  0.2022  0.2882
  178SOPE  C21520297   3.532  -0.004   8.889 -0.4493  0.1370  0.3619
  178SOPE  H15R20298   3.428   0.000   8.928 -1.0805  0.5916 -1.2857
  178SOPE  H15S20299   3.595  -0.077   8.943 -0.5765  1.2998  2.1748
  178SOPE  C21620300   3.529  -0.031   8.738 -0.1326 -0.2796 -0.0536
  178SOPE  H16R20301   3.504   0.068   8.693  1.5681 -0.3233 -1.1926
  178SOPE  H16S20302   3.446  -0.103   8.719 -2.0318  1.2858  1.8192
  178SOPE  C21720303   3.660  -0.089   8.689 -0.3225  0.6510  0.1468
  178SOPE  H17R20304   3.739  -0.034   8.744 -0.8002  0.1164  1.4114
  178SOPE  H17S20305   3.667  -0.062   8.582  1.0818  0.3155  0.1413
  178SOPE  C21820306   3.668  -0.241   8.712  0.2116  0.0456 -0.2376
  178SOPE  H18R20307   3.774  -0.274   8.704  0.6345  1.0916  0.7548
  178SOPE  H18S20308   3.594  -0.289   8.645  1.6576  0.1739 -2.0122
  178SOPE  H18T20309   3.635  -0.269   8.814  0.2637 -2.3909 -0.8416
  178SOPE   C3320310   3.340   0.662   9.905 -1.0719  0.3838 -0.0494
  178SOPE   H3X20311   3.253   0.730   9.896 -0.2454  1.3402 -1.1807
  178SOPE   H3Y20312   3.297   0.566   9.940 -1.3038  0.6145  0.3168
  178SOPE   C3420313   3.382   0.630   9.763 -1.0394 -0.4948 -0.3575
  178SOPE   H4X20314   3.297   0.590   9.703 -0.7132  1.6729 -2.4137
  178SOPE   H4Y20315   3.466   0.558   9.753  0.0811  1.0035 -2.6480
  178SOPE   C3520316   3.434   0.768   9.696 -0.3546 -0.4170  0.7330
  178SOPE   H5X20317   3.524   0.810   9.745  0.2381 -1.0612  0.2132
  178SOPE   H5Y20318   3.348   0.838   9.704 -1.0724 -0.8079 -2.3125
  178SOPE   C3620319   3.467   0.749   9.547  0.0402  0.1611 -0.0799
  178SOPE   H6X20320   3.395   0.681   9.497 -0.6275  0.2145  0.7951
  178SOPE   H6Y20321   3.563   0.693   9.541  0.1758 -0.1053  3.0137
  178SOPE   C3720322   3.477   0.876   9.466 -0.1035  0.2138 -0.0035
  178SOPE   H7X20323   3.516   0.843   9.367 -0.3675 -1.1956  0.3337
  178SOPE   H7Y20324   3.556   0.942   9.504 -0.7984  1.0085  0.0828
  178SOPE   C3820325   3.356   0.966   9.477 -0.0586  0.1656 -0.3462
  178SOPE   H8X20326   3.347   1.008   9.580  1.8691 -0.3337  0.0656
  178SOPE   H8Y20327   3.264   0.905   9.465  1.1681 -1.6594 -0.9558
  178SOPE   C3920328   3.350   1.067   9.373 -0.2454 -0.1869  0.0300
  178SOPE   H9X20329   3.248   1.107   9.358  0.0163 -0.4330 -3.0800
  178SOPE   H9Y20330   3.368   1.015   9.276 -2.9177 -1.6821  0.2197
  178SOPE  C31020331   3.437   1.186   9.393 -0.6577 -0.2249 -0.2422
  178SOPE  H10X20332   3.539   1.142   9.401 -0.3763  0.7468  3.1172
  178SOPE  H10Y20333   3.411   1.249   9.481 -0.1226  2.7468 -2.0727
  178SOPE  C31120334   3.437   1.284   9.272  0.5617 -1.4403  0.4699
  178SOPE  H11X20335   3.507   1.367   9.295 -0.9550  0.7849 -2.2175
  178SOPE  H11Y20336   3.338   1.336   9.271  0.0145 -2.4540  0.1667
  178SOPE  C31220337   3.476   1.226   9.132 -0.8951  0.2626  0.7619
  178SOPE  H12X20338   3.406   1.148   9.093 -0.8378 -0.7130  2.5077
  178SOPE  H12Y20339   3.571   1.172   9.149  0.9756  2.8040 -0.8039
  178SOPE  C31320340   3.475   1.339   9.025  0.0210  0.5100 -0.2822
  178SOPE  H13X20341   3.522   1.433   9.062 -1.9678  1.0123  1.1755
  178SOPE  H13Y20342   3.371   1.356   8.989 -0.6160 -2.0970  0.1247
  178SOPE  C31420343   3.539   1.284   8.898  0.5202  0.9595 -0.1506
  178SOPE  H14X20344   3.482   1.199   8.854 -0.4023  2.1619 -1.3686
  178SOPE  H14Y20345   3.643   1.252   8.922  0.1994  0.1923  0.2286
  178SOPE  C31520346   3.545   1.392   8.790  0.4265 -0.4988  1.0565
  178SOPE  H15X20347   3.628   1.371   8.718  1.5368  0.0038  2.1570
  178SOPE  H15Y20348   3.571   1.490   8.834  0.4939  0.1918 -0.4471
  178SOPE  C31620349   3.404   1.398   8.719 -0.4132 -0.9835  0.5901
  178SOPE  H16X20350   3.325   1.424   8.793  0.8736 -1.2430  2.1136
  178SOPE  H16Y20351   3.381   1.300   8.673 -1.1280 -0.8461  0.6385
  178SOPE  C31720352   3.408   1.512   8.612  0.5246  0.0039 -0.0319
  178SOPE  H17X20353   3.500   1.503   8.550  0.8910  2.5300  0.0684
  178SOPE  H17Y20354   3.410   1.606   8.670  1.4272  0.1195 -0.2406
  178SOPE  C31820355   3.284   1.511   8.515  0.5354  0.0783  0.3684
  178SOPE  H18X20356   3.194   1.522   8.579  0.9198  1.1132  0.7506
  178SOPE  H18Y20357   3.285   1.411   8.468  0.1576 -0.2014  0.9432
  178SOPE  H18Z20358   3.274   1.595   8.443  0.6148  1.1755  1.6003
  179SOPE     N20359   5.226   4.836   6.483  0.0448  0.1078  0.6283
  179SOPE   HN120360   5.202   4.877   6.576  1.8915  1.4862  0.5603
  179SOPE   HN220361   5.327   4.849   6.463  0.9885 -2.2426  3.2820
  179SOPE   HN320362   5.168   4.875   6.406  0.6107  0.6287  0.4541
  179SOPE   C1220363   5.197   4.683   6.478  0.5698 -0.1801  0.0435
  179SOPE  H12A20364   5.287   4.625   6.507 -0.2170 -1.8554 -0.7167
  179SOPE  H12B20365   5.186   4.648   6.373  2.7575 -0.8181 -0.0328
  179SOPE   C1120366   5.080   4.637   6.572  0.0939 -0.4523 -0.3286
  179SOPE  H11A20367   5.092   4.652   6.682 -1.1695  0.4485 -0.2921
  179SOPE  H11B20368   5.085   4.529   6.547  0.9638 -0.0256 -2.1845
  179SOPE     P20369   4.869   4.621   6.430 -0.1927  0.0661 -0.0240
  179SOPE   O1320370   4.943   4.604   6.297  0.3926  0.1093 -0.1944
  179SOPE   O1420371   4.733   4.678   6.423 -0.9370  0.2831 -0.2097
  179SOPE   O1220372   4.956   4.699   6.536 -0.2877 -0.2935 -0.3340
  179SOPE   O1120373   4.866   4.483   6.494 -0.1624  0.3961 -0.0209
  179SOPE    C120374   4.798   4.458   6.616 -0.1449  0.1086 -0.3607
  179SOPE    HA20375   4.692   4.487   6.601 -0.6405 -1.7805 -0.7211
  179SOPE    HB20376   4.831   4.534   6.690 -1.0255  1.2588 -1.1115
  179SOPE    C220377   4.822   4.318   6.668  0.1801 -0.8940 -0.2583
  179SOPE    HS20378   4.799   4.251   6.583 -0.6579 -0.8145 -0.0970
  179SOPE   O2120379   4.749   4.303   6.794 -0.5319  0.2537  0.1469
  179SOPE   C2120380   4.648   4.217   6.792 -0.5114  0.4162  0.0888
  179SOPE   O2220381   4.612   4.145   6.699 -0.3244 -0.7651 -0.4593
  179SOPE   C2220382   4.589   4.198   6.940  0.2998 -0.0504  0.2200
  179SOPE   H2R20383   4.481   4.219   6.929  0.4512  1.1596  0.8447
  179SOPE   H2S20384   4.630   4.281   7.002 -2.4039  0.4371  1.4659
  179SOPE    C320385   4.975   4.289   6.687 -0.4787 -0.0867 -0.2597
  179SOPE    HX20386   5.008   4.380   6.742  1.0552 -0.4519 -0.5486
  179SOPE    HY20387   5.028   4.290   6.589  0.3856 -1.4619  0.1673
  179SOPE   O3120388   5.017   4.172   6.769  0.0318 -0.6389 -0.0566
  179SOPE   C3120389   5.017   4.057   6.710  0.0252 -0.1223  0.5089
  179SOPE   O3220390   4.985   4.034   6.592 -0.0398  0.2291 -0.3910
  179SOPE   C3220391   5.050   3.946   6.802 -0.0973  0.1151 -0.3848
  179SOPE   H2X20392   5.014   3.851   6.755  2.5006 -1.9513  1.5365
  179SOPE   H2Y20393   4.991   3.952   6.896 -0.5095 -1.9909 -0.4575
  179SOPE   C2320394   4.619   4.056   6.997  0.3788 -0.4652  0.2062
  179SOPE   H3R20395   4.647   3.985   6.916  1.2378  1.0804 -0.9045
  179SOPE   H3S20396   4.526   4.029   7.052 -0.6743  1.9942 -0.2708
  179SOPE   C2420397   4.732   4.068   7.108 -0.1522 -0.0399  0.0879
  179SOPE   H4R20398   4.826   4.085   7.051  0.0362 -1.9613 -0.2456
  179SOPE   H4S20399   4.707   4.154   7.174 -0.1670 -0.2003  0.2929
  179SOPE   C2520400   4.746   3.948   7.198  0.3630  0.9081  0.3775
  179SOPE   H5R20401   4.741   3.856   7.136  0.7646  0.6551  0.7036
  179SOPE   H5S20402   4.848   3.942   7.242  0.6796  0.5901 -0.3910
  179SOPE   C2620403   4.646   3.933   7.313  0.3531  0.7240  0.0239
  179SOPE   H6R20404   4.660   4.028   7.368  1.8902  2.0096 -2.3917
  179SOPE   H6S20405   4.542   3.924   7.274  1.3181  3.4688 -3.7514
  179SOPE   C2720406   4.659   3.801   7.393  0.4653 -0.9937 -0.1333
  179SOPE   H7R20407   4.628   3.712   7.334  1.3253 -1.1726 -0.3224
  179SOPE   H7S20408   4.768   3.788   7.408  0.7855  0.8121 -0.6906
  179SOPE   C2820409   4.586   3.808   7.529  0.1108 -0.1816 -0.4865
  179SOPE   H8R20410   4.619   3.724   7.593  0.8368  0.8241  0.4838
  179SOPE   H8S20411   4.625   3.893   7.588  0.8634  1.1410 -2.7559
  179SOPE   C2920412   4.436   3.796   7.528 -1.0949  0.6282 -0.2119
  179SOPE   H9120413   4.393   3.783   7.427  0.2298 -0.1121 -0.6993
  179SOPE  C21020414   4.351   3.787   7.633  0.0218 -0.0528 -0.0306
  179SOPE  H10120415   4.241   3.781   7.631 -0.1391  1.0228  2.0281
  179SOPE  C21120416   4.394   3.784   7.777 -0.2279  0.4524  0.2028
  179SOPE  H11R20417   4.502   3.793   7.802 -0.4352  0.7291  1.0311
  179SOPE  H11S20418   4.361   3.683   7.811  2.1735 -0.5949 -0.3554
  179SOPE  C21220419   4.307   3.880   7.862 -0.9044  0.2114  0.0231
  179SOPE  H12R20420   4.202   3.846   7.860  0.2627 -3.8116 -0.7704
  179SOPE  H12S20421   4.317   3.981   7.817  0.3268 -0.4546 -1.2986
  179SOPE  C21320422   4.359   3.884   8.012 -1.1873 -0.1152 -0.2904
  179SOPE  H13R20423   4.466   3.915   8.015 -0.9817 -0.8321  0.1934
  179SOPE  H13S20424   4.347   3.781   8.054 -3.1107  1.1276  2.5674
  179SOPE  C21420425   4.270   3.970   8.099  0.4145 -0.6719 -0.1936
  179SOPE  H14R20426   4.178   3.909   8.105 -0.1252  0.1900  0.3029
  179SOPE  H14S20427   4.244   4.072   8.064  1.0486 -1.1806 -2.3311
  179SOPE  C21520428   4.327   3.988   8.241  1.0969  0.8512 -0.1383
  179SOPE  H15R20429   4.370   3.900   8.293 -2.0077 -1.4213 -1.1313
  179SOPE  H15S20430   4.243   4.021   8.307  1.8477 -1.2792  2.0403
  179SOPE  C21620431   4.434   4.103   8.237 -0.0300 -0.3998 -0.1364
  179SOPE  H16R20432   4.385   4.184   8.178  0.8369  0.0176 -0.2950
  179SOPE  H16S20433   4.525   4.069   8.182  1.9493  0.7572  2.2586
  179SOPE  C21720434   4.482   4.150   8.374  0.1164  0.0844  0.0394
  179SOPE  H17R20435   4.504   4.062   8.437 -0.1537  0.5709  0.8395
  179SOPE  H17S20436   4.393   4.198   8.422  1.0002  3.2932 -1.2486
  179SOPE  C21820437   4.598   4.253   8.387 -0.1037  0.2265  0.2727
  179SOPE  H18R20438   4.624   4.283   8.490  2.4057  1.6427 -0.6878
  179SOPE  H18S20439   4.572   4.342   8.325 -0.5859  0.0169  0.1648
  179SOPE  H18T20440   4.698   4.209   8.365  0.3898  1.0032  0.9086
  179SOPE   C3320441   5.203   3.923   6.845 -0.0661 -0.3363 -0.4025
  179SOPE   H3X20442   5.241   4.016   6.893  0.0801  0.6693 -2.3794
  179SOPE   H3Y20443   5.261   3.932   6.751 -0.6626 -0.6935 -0.8101
  179SOPE   C3420444   5.234   3.800   6.935  0.0938 -0.0488  0.6591
  179SOPE   H4X20445   5.336   3.762   6.914  0.4437  0.2408  1.7736
  179SOPE   H4Y20446   5.153   3.728   6.907  0.6516 -0.5719  0.3776
  179SOPE   C3520447   5.230   3.818   7.087 -0.2434 -0.2424 -0.3586
  179SOPE   H5X20448   5.136   3.874   7.107  1.0291  1.9219 -0.1328
  179SOPE   H5Y20449   5.312   3.885   7.123 -1.1928  0.5180  0.4632
  179SOPE   C3620450   5.233   3.691   7.176  0.3241  0.2292 -0.4823
  179SOPE   H6X20451   5.323   3.627   7.163  2.0650  1.7450  2.8260
  179SOPE   H6Y20452   5.143   3.635   7.142  0.8474 -0.3058 -1.0237
  179SOPE   C3720453   5.228   3.736   7.323 -0.3295  0.3778 -0.3221
  179SOPE   H7X20454   5.151   3.814   7.341  0.3308  2.0791 -3.9539
  179SOPE   H7Y20455   5.321   3.786   7.358 -1.3939  1.9502  0.3981
  179SOPE   C3820456   5.207   3.607   7.416 -0.1316  0.3469 -0.6721
  179SOPE   H8X20457   5.300   3.545   7.419 -0.2057  0.2688  0.1974
  179SOPE   H8Y20458   5.127   3.537   7.385 -0.9072  1.3181 -0.8997
  179SOPE   C3920459   5.171   3.644   7.563 -0.0126  0.8596  0.5724
  179SOPE   H9X20460   5.250   3.717   7.590 -0.5064  1.3798  0.6301
  179SOPE   H9Y20461   5.187   3.562   7.636 -1.2139 -0.3298 -0.4593
  179SOPE  C31020462   5.029   3.699   7.585 -0.0511 -0.0738 -0.2929
  179SOPE  H10X20463   4.964   3.613   7.611 -0.2541 -0.0504 -0.7264
  179SOPE  H10Y20464   4.983   3.750   7.498 -1.2539  0.3016  0.5337
  179SOPE  C31120465   5.012   3.795   7.706  0.9566 -0.4039 -0.2457
  179SOPE  H11X20466   5.054   3.893   7.675  1.3671 -0.4100  0.2849
  179SOPE  H11Y20467   5.070   3.763   7.795 -0.2232 -1.1858  0.2597
  179SOPE  C31220468   4.870   3.815   7.743 -0.1996 -0.0933 -0.1438
  179SOPE  H12X20469   4.842   3.723   7.798  1.8550 -0.3562  0.5474
  179SOPE  H12Y20470   4.815   3.823   7.646 -0.1445 -1.3146 -0.2857
  179SOPE  C31320471   4.845   3.936   7.828 -0.0724 -0.6719 -0.0559
  179SOPE  H13X20472   4.892   3.925   7.929  1.2885  0.1837 -0.5631
  179SOPE  H13Y20473   4.735   3.945   7.841  0.2699  1.2676  2.1209
  179SOPE  C31420474   4.899   4.071   7.779  0.2684  0.6789 -0.7662
  179SOPE  H14X20475   4.889   4.075   7.669  0.2488  3.3694 -0.7392
  179SOPE  H14Y20476   5.008   4.079   7.802  0.1022 -1.6675  1.3332
  179SOPE  C31520477   4.830   4.197   7.840 -0.3770 -0.3215  0.2748
  179SOPE  H15X20478   4.878   4.276   7.778 -1.0871 -0.9842 -1.1435
  179SOPE  H15Y20479   4.867   4.222   7.942 -2.5827 -1.3824  1.3918
  179SOPE  C31620480   4.680   4.198   7.830 -0.6143 -0.1885 -0.1894
  179SOPE  H16X20481   4.637   4.124   7.902 -0.4049 -0.9842 -0.8577
  179SOPE  H16Y20482   4.642   4.164   7.731 -1.8294  2.1896 -0.6127
  179SOPE  C31720483   4.619   4.337   7.863  0.0275  0.0632  0.2662
  179SOPE  H17X20484   4.508   4.340   7.856  0.0761 -0.6617 -1.1793
  179SOPE  H17Y20485   4.651   4.412   7.788  0.4942 -0.6602 -0.2792
  179SOPE  C31820486   4.646   4.391   8.006 -0.2057 -0.3750  0.2126
  179SOPE  H18X20487   4.754   4.378   8.030  0.6144  1.4876 -2.1122
  179SOPE  H18Y20488   4.579   4.332   8.072 -0.7215  0.0988  0.1197
  179SOPE  H18Z20489   4.621   4.498   8.020 -1.8237 -0.8470  1.1707
  180SOPE     N20490   4.654   2.682   6.103 -0.2201  0.3983 -0.5259
  180SOPE   HN120491   4.614   2.660   6.196 -0.1260  1.4453 -0.2205
  180SOPE   HN220492   4.658   2.594   6.048  1.1587  0.8603 -1.2081
  180SOPE   HN320493   4.746   2.730   6.111  1.0274 -2.0616  0.8765
  180SOPE   C1220494   4.555   2.780   6.052 -0.1496 -0.2542 -0.1648
  180SOPE  H12A20495   4.589   2.837   5.964 -1.3192 -1.7122 -1.6153
  180SOPE  H12B20496   4.545   2.858   6.131  0.9389  0.3048 -0.5522
  180SOPE   C1120497   4.425   2.704   6.016 -0.7797  0.0213 -0.2151
  180SOPE  H11A20498   4.442   2.663   5.914  0.8193 -0.4482  0.2093
  180SOPE  H11B20499   4.335   2.766   5.996 -1.8551 -0.9933  1.2934
  180SOPE     P20500   4.264   2.524   6.127 -0.0493  0.2460 -0.2381
  180SOPE   O1320501   4.271   2.412   6.227 -0.3121 -0.2401  0.3778
  180SOPE   O1420502   4.226   2.472   5.995  0.8109 -0.6246 -0.2897
  180SOPE   O1220503   4.401   2.603   6.115  0.3048 -0.2377 -0.2674
  180SOPE   O1120504   4.167   2.640   6.173  0.1831  0.0605 -0.2961
  180SOPE    C120505   4.213   2.740   6.265 -0.6260  0.6481 -0.3883
  180SOPE    HA20506   4.207   2.847   6.234 -1.6992  0.7588  0.1591
  180SOPE    HB20507   4.318   2.733   6.303 -0.1770  2.0425 -1.2884
  180SOPE    C220508   4.127   2.731   6.398 -0.4583 -0.3505  0.2472
  180SOPE    HS20509   4.131   2.825   6.458  0.6653 -0.4648  0.3864
  180SOPE   O2120510   4.158   2.609   6.471 -0.2568 -0.1804  0.2629
  180SOPE   C2120511   4.251   2.618   6.560 -0.1095  0.1665 -0.5256
  180SOPE   O2220512   4.311   2.718   6.588 -0.4062 -0.0825 -0.4050
  180SOPE   C2220513   4.260   2.487   6.634  1.8803 -0.1571 -0.1226
  180SOPE   H2R20514   4.307   2.416   6.563 -0.7805 -1.5124 -0.6365
  180SOPE   H2S20515   4.155   2.460   6.658  1.2486  2.3496  0.3004
  180SOPE    C320516   3.979   2.731   6.369  0.7972  0.5910  0.0887
  180SOPE    HX20517   3.950   2.630   6.334  1.0482 -0.1558  1.9433
  180SOPE    HY20518   3.959   2.809   6.292 -0.7233 -1.3256 -1.5725
  180SOPE   O3120519   3.902   2.761   6.489 -0.5263 -0.3709  0.1879
  180SOPE   C3120520   3.855   2.659   6.557 -0.3677 -0.6219 -0.3810
  180SOPE   O3220521   3.866   2.542   6.531  0.3534 -0.0432 -0.2226
  180SOPE   C3220522   3.780   2.713   6.671  0.2232 -0.3652 -0.4658
  180SOPE   H2X20523   3.682   2.741   6.627 -1.1909 -3.7370  0.1707
  180SOPE   H2Y20524   3.833   2.802   6.711 -1.0613  0.0061  0.5051
  180SOPE   C2320525   4.340   2.508   6.761  0.1390 -1.1256 -0.3548
  180SOPE   H3R20526   4.320   2.599   6.822  1.6643 -0.9059 -0.1578
  180SOPE   H3S20527   4.446   2.524   6.733  0.0662  1.2543  0.4164
  180SOPE   C2420528   4.314   2.389   6.858 -0.5703 -0.3513 -0.1457
  180SOPE   H4R20529   4.217   2.412   6.907  0.0742  0.0782  0.9670
  180SOPE   H4S20530   4.307   2.300   6.793 -0.0482 -0.4943 -0.0085
  180SOPE   C2520531   4.426   2.365   6.961  0.0785 -0.2660  0.4781
  180SOPE   H5R20532   4.514   2.341   6.899 -0.0900  1.1866 -0.3450
  180SOPE   H5S20533   4.443   2.465   7.007 -1.3925  0.9511 -1.4826
  180SOPE   C2620534   4.387   2.244   7.048  0.1588  0.5870  0.7329
  180SOPE   H6R20535   4.284   2.253   7.090 -0.9102 -1.4417 -1.2556
  180SOPE   H6S20536   4.390   2.154   6.983 -0.9752  1.2902 -0.3347
  180SOPE   C2720537   4.476   2.220   7.180  0.7246  1.0006  0.3470
  180SOPE   H7R20538   4.583   2.234   7.155  0.1880  1.0812 -2.1231
  180SOPE   H7S20539   4.454   2.309   7.243  1.1499  1.0027  0.4970
  180SOPE   C2820540   4.444   2.086   7.257  0.2683  0.4595  0.2826
  180SOPE   H8R20541   4.397   2.110   7.354  1.3597  3.3195  0.1993
  180SOPE   H8S20542   4.376   2.037   7.184 -0.6289  0.7121  0.9398
  180SOPE   C2920543   4.555   1.981   7.273 -0.0889 -0.6284  0.2826
  180SOPE   H9120544   4.609   1.950   7.183 -2.3089 -3.0823 -0.3437
  180SOPE  C21020545   4.592   1.930   7.385  0.3090  0.0977 -0.5605
  180SOPE  H10120546   4.675   1.858   7.375 -0.2836 -0.4245 -1.9539
  180SOPE  C21120547   4.546   1.946   7.529  0.7167 -0.7301 -0.0881
  180SOPE  H11R20548   4.435   1.935   7.537  0.7075 -0.6345 -0.0803
  180SOPE  H11S20549   4.573   2.043   7.576 -2.0734  1.8829 -3.3301
  180SOPE  C21220550   4.607   1.827   7.618 -0.1928 -0.6037  0.4438
  180SOPE  H12R20551   4.717   1.826   7.605 -0.3395 -0.0714 -1.0288
  180SOPE  H12S20552   4.588   1.726   7.576  1.2034 -0.6652 -0.0785
  180SOPE  C21320553   4.569   1.829   7.768  0.0065  0.0397 -0.0179
  180SOPE  H13R20554   4.461   1.852   7.766 -0.5420 -2.2813 -2.2913
  180SOPE  H13S20555   4.627   1.908   7.822 -0.1802  1.7629 -2.1663
  180SOPE  C21420556   4.604   1.699   7.840  0.4633  1.0869 -0.2894
  180SOPE  H14R20557   4.713   1.687   7.856  0.1085 -2.2684  0.4257
  180SOPE  H14S20558   4.584   1.617   7.769  0.5049 -0.9762  1.9443
  180SOPE  C21520559   4.547   1.679   7.978 -0.3202  0.4168 -0.7159
  180SOPE  H15R20560   4.438   1.700   7.967 -1.1081 -2.1544  1.2776
  180SOPE  H15S20561   4.587   1.760   8.043 -2.1783  2.0871 -1.5526
  180SOPE  C21620562   4.581   1.539   8.034 -0.7640 -0.0044 -0.3984
  180SOPE  H16R20563   4.691   1.524   8.037 -0.6569  0.9002  0.7264
  180SOPE  H16S20564   4.552   1.466   7.955  2.7878 -0.4202 -1.5046
  180SOPE  C21720565   4.510   1.519   8.168  0.2422 -0.3976  0.7383
  180SOPE  H17R20566   4.407   1.484   8.143  0.5948 -0.9083 -0.0316
  180SOPE  H17S20567   4.513   1.618   8.218  1.1921 -0.2772  0.4647
  180SOPE  C21820568   4.562   1.413   8.267 -1.4778  0.1562  0.3403
  180SOPE  H18R20569   4.585   1.319   8.212 -1.3573  0.0014  0.6535
  180SOPE  H18S20570   4.486   1.374   8.338 -0.6664 -0.4691  0.8862
  180SOPE  H18T20571   4.660   1.432   8.316 -2.4331  0.7956  2.1227
  180SOPE   C3320572   3.749   2.614   6.789  0.2174 -0.1972  0.6931
  180SOPE   H3X20573   3.717   2.517   6.746 -1.6581 -0.2866  2.1992
  180SOPE   H3Y20574   3.669   2.656   6.852  2.0326  0.0027  2.9859
  180SOPE   C3420575   3.869   2.605   6.884 -0.9920 -0.1773  0.3807
  180SOPE   H4X20576   3.910   2.701   6.922  0.9529 -0.4914 -0.7843
  180SOPE   H4Y20577   3.950   2.556   6.826 -1.9463  1.0335 -2.1813
  180SOPE   C3520578   3.842   2.521   7.008  0.9754 -0.5210 -0.2818
  180SOPE   H5X20579   3.803   2.423   6.975  1.2353 -0.7368  0.0488
  180SOPE   H5Y20580   3.766   2.577   7.067  0.8321  1.3406 -2.1149
  180SOPE   C3620581   3.963   2.486   7.087  0.9550  0.5389  0.1973
  180SOPE   H6X20582   4.032   2.568   7.118  3.2462 -1.1090 -0.2525
  180SOPE   H6Y20583   4.033   2.431   7.021  0.5015  1.0070 -0.6870
  180SOPE   C3720584   3.931   2.390   7.198 -0.1312  0.5153 -0.1324
  180SOPE   H7X20585   3.895   2.291   7.162  3.7043 -1.8224  1.7595
  180SOPE   H7Y20586   3.845   2.434   7.252 -1.4852 -2.0961 -0.0090
  180SOPE   C3820587   4.052   2.357   7.288  0.1603 -1.0238 -0.1963
  180SOPE   H8X20588   4.107   2.451   7.310 -0.3288 -0.8929  0.5381
  180SOPE   H8Y20589   4.121   2.289   7.234 -0.3204 -1.2021 -0.5938
  180SOPE   C3920590   4.026   2.292   7.427 -0.8977  0.0871  0.4815
  180SOPE   H9X20591   4.129   2.271   7.462 -0.3167  2.3275  0.2064
  180SOPE   H9Y20592   3.973   2.200   7.391  0.5241  0.1376 -1.9418
  180SOPE  C31020593   3.936   2.381   7.513 -0.3782 -0.0373 -0.4893
  180SOPE  H10X20594   3.842   2.417   7.465 -0.5018 -0.8913 -0.9101
  180SOPE  H10Y20595   3.999   2.463   7.553 -1.2463  0.0211  0.8184
  180SOPE  C31120596   3.907   2.322   7.658  0.3448 -0.1090  0.9554
  180SOPE  H11X20597   4.003   2.315   7.712  1.0748  0.8416 -0.1583
  180SOPE  H11Y20598   3.852   2.229   7.631  2.3370 -0.3597 -2.8960
  180SOPE  C31220599   3.810   2.413   7.733 -0.7267  0.3537  0.4065
  180SOPE  H12X20600   3.712   2.412   7.680 -1.6262 -0.6338  1.9917
  180SOPE  H12Y20601   3.846   2.517   7.734 -1.0693  0.4804 -0.1427
  180SOPE  C31320602   3.781   2.368   7.876  0.5446  0.5676 -0.6312
  180SOPE  H13X20603   3.877   2.346   7.929  1.4689  2.7051 -1.2939
  180SOPE  H13Y20604   3.742   2.265   7.866 -0.2968  0.7588  0.5114
  180SOPE  C31420605   3.693   2.460   7.965  0.2241 -0.3841  0.3994
  180SOPE  H14X20606   3.588   2.468   7.930  0.9754 -0.4215 -2.0486
  180SOPE  H14Y20607   3.737   2.562   7.963  1.0511 -0.7417 -1.0157
  180SOPE  C31520608   3.681   2.433   8.113 -0.2796  0.6446 -0.6346
  180SOPE  H15X20609   3.784   2.436   8.156  0.3851  0.4420 -2.1748
  180SOPE  H15Y20610   3.651   2.327   8.125  2.1335  0.0768  1.1730
  180SOPE  C31620611   3.580   2.517   8.190  0.7205 -0.0611  0.4232
  180SOPE  H16X20612   3.481   2.506   8.142 -0.2710  2.3899  1.7253
  180SOPE  H16Y20613   3.605   2.624   8.173  0.0946 -0.1235 -1.0351
  180SOPE  C31720614   3.582   2.479   8.341 -0.6462  0.0929 -0.0325
  180SOPE  H17X20615   3.523   2.553   8.400  0.7531  1.3923 -0.2136
  180SOPE  H17Y20616   3.682   2.477   8.389  1.2497 -0.1702 -3.6375
  180SOPE  C31820617   3.518   2.340   8.366 -0.3137 -1.4914 -0.2066
  180SOPE  H18X20618   3.416   2.356   8.323  0.4509  0.7766 -1.3388
  180SOPE  H18Y20619   3.508   2.316   8.474 -2.6214 -1.8848 -0.4533
  180SOPE  H18Z20620   3.563   2.251   8.318 -0.1296 -1.0155 -0.9264
  181SOPE     N20621   1.651   0.517   6.168 -0.2567 -0.8921 -0.6141
  181SOPE   HN120622   1.679   0.418   6.180  0.0607 -1.1042 -2.7111
  181SOPE   HN220623   1.551   0.523   6.140 -0.3328  0.4832 -0.1036
  181SOPE   HN320624   1.705   0.547   6.084 -0.8618 -0.6848 -0.9408
  181SOPE   C1220625   1.679   0.608   6.284 -0.2785  0.2527 -0.5678
  181SOPE  H12A20626   1.789   0.609   6.301 -0.3125 -0.4799 -0.2279
  181SOPE  H12B20627   1.629   0.566   6.374  0.6197 -0.1688 -0.2484
  181SOPE   C1120628   1.629   0.754   6.253  0.1812 -0.2434 -0.6208
  181SOPE  H11A20629   1.669   0.819   6.334  0.6334 -1.3824  0.1074
  181SOPE  H11B20630   1.519   0.749   6.241  0.1662 -0.3852 -0.4378
  181SOPE     P20631   1.641   0.935   6.066 -0.7902 -0.0666  0.0302
  181SOPE   O1320632   1.510   0.923   6.008 -0.4345 -0.4017  0.1935
  181SOPE   O1420633   1.743   0.984   5.972 -0.6744  0.1636 -0.1526
  181SOPE   O1220634   1.691   0.800   6.131 -0.1427  0.0927 -0.3240
  181SOPE   O1120635   1.637   1.044   6.185 -0.1054 -0.0198  0.3715
  181SOPE    C120636   1.764   1.090   6.234  0.3195  0.2488  0.3343
  181SOPE    HA20637   1.799   1.169   6.164 -0.4883 -0.8511 -1.3562
  181SOPE    HB20638   1.838   1.007   6.234  0.0255 -0.3132  5.0885
  181SOPE    C220639   1.768   1.127   6.383  0.2345  0.3429  0.5874
  181SOPE    HS20640   1.720   1.042   6.437 -1.8892  0.6498 -0.7003
  181SOPE   O2120641   1.690   1.246   6.387  0.3520  0.7428 -0.0089
  181SOPE   C2120642   1.599   1.251   6.486  0.7381  0.2015 -0.7755
  181SOPE   O2220643   1.582   1.170   6.574 -0.1969  0.3645 -0.1141
  181SOPE   C2220644   1.533   1.397   6.485  0.4544 -0.1752  0.3631
  181SOPE   H2R20645   1.474   1.405   6.392  0.0922 -0.8291  0.5269
  181SOPE   H2S20646   1.608   1.478   6.483 -0.6909  0.8914 -0.3218
  181SOPE    C320647   1.913   1.145   6.437  0.3397 -0.1030  0.1491
  181SOPE    HX20648   1.950   1.229   6.374 -1.6806  1.8266  1.4192
  181SOPE    HY20649   1.968   1.050   6.416  0.1746 -0.1794  0.0632
  181SOPE   O3120650   1.906   1.185   6.577  0.6534 -0.0824 -0.2640
  181SOPE   C3120651   1.889   1.089   6.665 -0.5282 -0.4256  0.1893
  181SOPE   O3220652   1.885   0.973   6.644 -0.7180  1.1001  0.2275
  181SOPE   C3220653   1.899   1.158   6.805  0.2880  0.1893  0.4852
  181SOPE   H2X20654   1.852   1.259   6.795 -2.0742 -0.8112  0.9410
  181SOPE   H2Y20655   2.008   1.176   6.816  0.3994  1.2424 -1.6182
  181SOPE   C2320656   1.427   1.430   6.597 -0.4024  0.1166  0.3814
  181SOPE   H3R20657   1.377   1.337   6.631  1.4697 -0.6534  1.1771
  181SOPE   H3S20658   1.362   1.507   6.552 -1.1713 -0.3806  0.6281
  181SOPE   C2420659   1.497   1.477   6.727 -0.3461 -0.2536  0.4968
  181SOPE   H4R20660   1.581   1.412   6.760  1.0751  2.3377  2.2933
  181SOPE   H4S20661   1.544   1.577   6.721  1.9387 -1.1876  1.5994
  181SOPE   C2520662   1.408   1.466   6.855 -0.6932 -1.0068  0.3965
  181SOPE   H5R20663   1.320   1.530   6.834 -0.3824 -0.9154 -0.6836
  181SOPE   H5S20664   1.369   1.362   6.868 -0.6890 -1.0862 -0.1976
  181SOPE   C2620665   1.477   1.509   6.989 -0.0775  0.0268 -0.8337
  181SOPE   H6R20666   1.567   1.445   6.998 -1.0940 -1.4785 -1.0902
  181SOPE   H6S20667   1.482   1.620   6.980 -1.2873  0.1061 -0.7155
  181SOPE   C2720668   1.387   1.471   7.110  0.4150 -0.4527  0.4203
  181SOPE   H7R20669   1.316   1.555   7.124  1.8498  0.6312  1.5517
  181SOPE   H7S20670   1.337   1.376   7.081 -1.4669  0.6668 -0.1560
  181SOPE   C2820671   1.476   1.446   7.238  0.3821 -0.3545 -0.3597
  181SOPE   H8R20672   1.402   1.395   7.303  0.6180  0.8855  0.9375
  181SOPE   H8S20673   1.552   1.366   7.222  1.7896  0.6225  1.0707
  181SOPE   C2920674   1.537   1.563   7.310 -0.0192 -0.4170 -0.1018
  181SOPE   H9120675   1.597   1.627   7.243 -1.3494  0.8320 -0.1533
  181SOPE  C21020676   1.530   1.604   7.435  0.8794 -0.1605 -0.8000
  181SOPE  H10120677   1.571   1.699   7.471  0.4403 -1.3194  3.2973
  181SOPE  C21120678   1.458   1.539   7.558  0.2729 -1.0508 -0.0845
  181SOPE  H11R20679   1.397   1.449   7.537  0.1834 -1.6098  2.3491
  181SOPE  H11S20680   1.395   1.616   7.606 -0.7338 -2.2691  0.6027
  181SOPE  C21220681   1.564   1.492   7.662 -0.1228 -0.3610 -0.1824
  181SOPE  H12R20682   1.627   1.580   7.689 -0.5287 -0.7880  2.4089
  181SOPE  H12S20683   1.627   1.413   7.616 -1.6325 -3.2705  2.3631
  181SOPE  C21320684   1.510   1.450   7.796  0.4246  0.4689 -0.9202
  181SOPE  H13R20685   1.433   1.525   7.825  1.6670  1.9814 -1.3663
  181SOPE  H13S20686   1.598   1.463   7.863  0.1335 -0.2029 -0.4009
  181SOPE  C21420687   1.464   1.307   7.806 -0.0609  0.7820 -0.2268
  181SOPE  H14R20688   1.542   1.230   7.793 -0.6550  0.1217  0.0756
  181SOPE  H14S20689   1.397   1.291   7.719 -0.6540 -2.5717  0.7219
  181SOPE  C21520690   1.381   1.277   7.936 -0.0282  0.2473 -0.2239
  181SOPE  H15R20691   1.280   1.323   7.934 -2.0846 -3.6380  1.6525
  181SOPE  H15S20692   1.434   1.317   8.025 -3.3308 -0.1847  2.1166
  181SOPE  C21620693   1.340   1.126   7.950  0.7069 -0.7963 -0.2822
  181SOPE  H16R20694   1.434   1.067   7.941  1.2236  0.0564 -0.4890
  181SOPE  H16S20695   1.276   1.115   7.860  0.0859  0.5703 -0.0234
  181SOPE  C21720696   1.265   1.095   8.081  0.3312 -0.2590  0.1814
  181SOPE  H17R20697   1.338   1.108   8.164  0.3801  0.3330  0.0497
  181SOPE  H17S20698   1.241   0.986   8.076  0.2704 -0.2721  0.6462
  181SOPE  C21820699   1.146   1.187   8.121 -0.3924  0.1229  0.6133
  181SOPE  H18R20700   1.187   1.290   8.135 -1.5608  0.6705  0.1646
  181SOPE  H18S20701   1.112   1.144   8.217 -0.4743 -3.6340 -0.9367
  181SOPE  H18T20702   1.077   1.210   8.037  1.8432  1.3887 -1.0182
  181SOPE   C3320703   1.835   1.080   6.923 -0.6845 -0.2032  0.8285
  181SOPE   H3X20704   1.895   0.987   6.917  0.0018  0.2617  0.3025
  181SOPE   H3Y20705   1.727   1.065   6.907 -1.2213  2.1083  1.8093
  181SOPE   C3420706   1.865   1.147   7.061  0.0847  0.2564  0.1793
  181SOPE   H4X20707   1.973   1.170   7.067  0.1829 -0.2141  0.2216
  181SOPE   H4Y20708   1.843   1.068   7.135  0.1380  0.7871  0.7659
  181SOPE   C3520709   1.786   1.273   7.103 -0.5030 -0.6264  0.1460
  181SOPE   H5X20710   1.678   1.248   7.112 -1.8961  4.4519  0.6603
  181SOPE   H5Y20711   1.807   1.348   7.024  1.4294 -1.2016  0.0568
  181SOPE   C3620712   1.837   1.334   7.233  0.3253  0.4122 -0.2018
  181SOPE   H6X20713   1.784   1.431   7.246 -1.4323 -0.6976  1.5510
  181SOPE   H6Y20714   1.943   1.359   7.213 -0.1228  1.8269 -0.9350
  181SOPE   C3720715   1.818   1.261   7.366 -0.5246 -0.1933 -0.4817
  181SOPE   H7X20716   1.842   1.156   7.337  0.7077  0.3031 -1.3488
  181SOPE   H7Y20717   1.710   1.258   7.388 -0.5976 -3.2043 -0.7503
  181SOPE   C3820718   1.900   1.300   7.486  0.4840 -0.5777 -0.4232
  181SOPE   H8X20719   1.878   1.404   7.518 -1.9108 -1.1516 -0.0401
  181SOPE   H8Y20720   2.008   1.303   7.458  1.1962  1.1657  2.1716
  181SOPE   C3920721   1.882   1.211   7.606  0.5673  0.6174 -0.3552
  181SOPE   H9X20722   1.912   1.105   7.591 -2.7235 -0.5736  0.4876
  181SOPE   H9Y20723   1.775   1.216   7.637 -0.0104  2.2272 -2.4292
  181SOPE  C31020724   1.954   1.271   7.725 -0.8501  0.0463  0.7226
  181SOPE  H10X20725   1.924   1.377   7.738 -1.5683 -0.2616  1.6999
  181SOPE  H10Y20726   2.062   1.263   7.700 -0.9394 -0.8586  0.5645
  181SOPE  C31120727   1.921   1.208   7.863  0.5125  0.6488 -0.3438
  181SOPE  H11X20728   1.949   1.101   7.855 -1.3988  0.1182 -0.4255
  181SOPE  H11Y20729   1.812   1.203   7.888  0.6728 -0.6948  0.1549
  181SOPE  C31220730   1.996   1.274   7.977  0.1772  0.4396 -0.4999
  181SOPE  H12X20731   1.978   1.384   7.975  2.0315  0.7735 -1.5236
  181SOPE  H12Y20732   2.106   1.268   7.965  0.4681  0.8475  1.6110
  181SOPE  C31320733   1.964   1.197   8.114 -0.2985  0.2807  0.3608
  181SOPE  H13X20734   2.036   1.112   8.114 -1.4848 -0.7660  0.9081
  181SOPE  H13Y20735   1.859   1.159   8.106 -0.0172 -1.3594  3.2713
  181SOPE  C31420736   1.977   1.273   8.243  0.5670  0.2931  0.5858
  181SOPE  H14X20737   2.074   1.327   8.240 -1.1080  3.5236 -0.6131
  181SOPE  H14Y20738   1.964   1.203   8.329  2.5206 -2.0077 -0.8740
  181SOPE  C31520739   1.872   1.392   8.256 -0.0902  0.3006  0.1976
  181SOPE  H15X20740   1.834   1.405   8.152 -2.3637  0.4352  1.0111
  181SOPE  H15Y20741   1.920   1.481   8.302  2.0334 -0.9641  0.5829
  181SOPE  C31620742   1.753   1.351   8.335  0.0174 -0.7531  0.1721
  181SOPE  H16X20743   1.789   1.367   8.439  0.7388  0.2417 -0.2174
  181SOPE  H16Y20744   1.729   1.242   8.335 -0.0994 -0.7648  1.8457
  181SOPE  C31720745   1.635   1.447   8.316  0.5248  0.2317 -0.1628
  181SOPE  H17X20746   1.582   1.421   8.222  0.0768 -0.3693  0.2412
  181SOPE  H17Y20747   1.671   1.551   8.304 -3.5456  1.8882  0.5706
  181SOPE  C31820748   1.532   1.452   8.434  0.2648 -0.3794  0.4841
  181SOPE  H18X20749   1.472   1.544   8.420  1.2401  0.1784 -0.1846
  181SOPE  H18Y20750   1.580   1.465   8.533  2.4153  2.9145 -0.8123
  181SOPE  H18Z20751   1.471   1.359   8.428 -0.0294 -0.1000 -3.7669
  182SOPE     N20752   2.381   2.704   6.394 -0.3025 -0.7880  0.5871
  182SOPE   HN120753   2.356   2.608   6.363 -0.9573  0.3164 -2.7986
  182SOPE   HN220754   2.345   2.722   6.490  0.9207  4.1000  0.4070
  182SOPE   HN320755   2.350   2.774   6.323  0.5971 -0.1147  0.8417
  182SOPE   C1220756   2.529   2.713   6.397 -0.1682  0.2845  0.4187
  182SOPE  H12A20757   2.560   2.680   6.295 -2.6077 -0.0462 -0.2824
  182SOPE  H12B20758   2.559   2.630   6.464  0.6481  0.4431  0.2590
  182SOPE   C1120759   2.571   2.855   6.437  0.2423 -0.1784 -0.8600
  182SOPE  H11A20760   2.677   2.861   6.469  0.0862 -1.0953 -0.1188
  182SOPE  H11B20761   2.506   2.878   6.524  0.1993  1.1147 -1.2240
  182SOPE     P20762   2.510   3.100   6.368 -0.3425 -0.0441  0.0301
  182SOPE   O1320763   2.513   3.167   6.234 -0.1780  0.4333  0.3196
  182SOPE   O1420764   2.603   3.148   6.462 -0.2320 -0.1537 -0.4308
  182SOPE   O1220765   2.537   2.951   6.338 -0.5152 -0.3904  0.2287
  182SOPE   O1120766   2.362   3.097   6.428  0.6268  0.3087 -0.7192
  182SOPE    C120767   2.322   3.183   6.533  0.0585 -0.0760 -0.2826
  182SOPE    HA20768   2.217   3.211   6.512  0.6046  1.8493 -0.6393
  182SOPE    HB20769   2.383   3.273   6.554 -0.6815  0.5347 -0.6974
  182SOPE    C220770   2.313   3.106   6.660  0.3279 -0.0894 -1.1960
  182SOPE    HS20771   2.292   3.168   6.750  1.9745 -1.3060  0.1039
  182SOPE   O2120772   2.432   3.035   6.689  0.0095 -0.5720  0.0618
  182SOPE   C2120773   2.517   3.113   6.743  0.1752 -0.1726  0.1894
  182SOPE   O2220774   2.510   3.234   6.752 -0.3081 -0.4415 -0.6482
  182SOPE   C2220775   2.640   3.049   6.793 -0.2678  0.0754 -0.4989
  182SOPE   H2R20776   2.700   3.127   6.845 -0.7691  1.5548 -2.0618
  182SOPE   H2S20777   2.695   3.015   6.703 -1.5129 -2.6475 -0.3352
  182SOPE    C320778   2.198   3.005   6.639  0.1065  0.8759 -0.0542
  182SOPE    HX20779   2.198   2.952   6.541 -2.3457  0.9923 -0.1821
  182SOPE    HY20780   2.101   3.059   6.638 -0.4903 -0.1597 -1.2466
  182SOPE   O3120781   2.185   2.907   6.751 -0.1484  0.0132  0.7886
  182SOPE   C3120782   2.261   2.800   6.746 -1.0013 -0.2212 -0.4234
  182SOPE   O3220783   2.322   2.752   6.652  0.1095 -0.0559  0.1245
  182SOPE   C3220784   2.265   2.739   6.889  0.0566 -0.7220  1.2758
  182SOPE   H2X20785   2.373   2.744   6.914  0.1834  1.6795  0.5150
  182SOPE   H2Y20786   2.243   2.633   6.868 -1.5362  0.1631 -2.2617
  182SOPE   C2320787   2.633   2.925   6.885 -0.0307 -0.2847  0.0037
  182SOPE   H3R20788   2.738   2.897   6.911 -0.3108 -2.0408 -0.5900
  182SOPE   H3S20789   2.559   2.854   6.842  0.5603  0.5227 -2.5169
  182SOPE   C2420790   2.589   2.961   7.028  0.2469  0.0493 -0.1508
  182SOPE   H4R20791   2.651   3.046   7.062 -1.6573  2.0559 -1.4445
  182SOPE   H4S20792   2.483   2.992   7.035 -0.4622 -2.1032 -0.6404
  182SOPE   C2520793   2.592   2.830   7.115  0.4276 -0.8489  0.1508
  182SOPE   H5R20794   2.534   2.747   7.069 -0.4999 -1.2751  1.9938
  182SOPE   H5S20795   2.697   2.797   7.132 -0.4968 -3.8261  0.6797
  182SOPE   C2620796   2.527   2.853   7.251  0.3097 -0.2901 -0.1392
  182SOPE   H6R20797   2.440   2.922   7.241  0.7370  0.3729  0.6233
  182SOPE   H6S20798   2.499   2.752   7.289 -1.9869  0.4703  0.3438
  182SOPE   C2720799   2.620   2.928   7.353  0.7207 -0.3993 -0.1691
  182SOPE   H7R20800   2.715   2.871   7.347  0.2152 -1.2160 -0.5645
  182SOPE   H7S20801   2.636   3.029   7.311 -0.5783 -1.6405 -4.0277
  182SOPE   C2820802   2.577   2.936   7.498  0.4854  0.7826 -0.1795
  182SOPE   H8R20803   2.661   2.992   7.545 -0.5748  2.0683  0.2498
  182SOPE   H8S20804   2.489   3.001   7.514 -1.8990 -2.2994  0.2718
  182SOPE   C2920805   2.554   2.804   7.565 -0.3206 -0.7448  0.8111
  182SOPE   H9120806   2.467   2.746   7.529 -1.2736 -1.0422  3.3357
  182SOPE  C21020807   2.620   2.753   7.676  0.7727  0.2778  0.7864
  182SOPE  H10120808   2.580   2.657   7.711 -0.9357 -0.3056 -2.3661
  182SOPE  C21120809   2.726   2.825   7.752 -0.2972  0.1274 -0.4907
  182SOPE  H11R20810   2.729   2.931   7.721  1.7377  0.4386  0.5939
  182SOPE  H11S20811   2.821   2.777   7.719 -0.4526  0.8701 -2.0719
  182SOPE  C21220812   2.707   2.814   7.900  0.3072 -0.9135 -0.3489
  182SOPE  H12R20813   2.803   2.817   7.955  2.2175  2.9129 -3.3879
  182SOPE  H12S20814   2.652   2.727   7.942 -2.4570  0.8662 -0.0498
  182SOPE  C21320815   2.636   2.938   7.956  0.1777 -0.4343 -0.2132
  182SOPE  H13R20816   2.531   2.935   7.921  0.2638 -0.9987 -0.4400
  182SOPE  H13S20817   2.685   3.027   7.910 -1.6471  0.6341 -0.1759
  182SOPE  C21420818   2.627   2.941   8.111 -0.1796  0.0548 -0.6906
  182SOPE  H14R20819   2.722   2.907   8.158 -1.3885 -2.6341 -0.0052
  182SOPE  H14S20820   2.555   2.865   8.148  0.0471  0.8594  1.5241
  182SOPE  C21520821   2.563   3.074   8.163  0.2933 -0.0822  0.3469
  182SOPE  H15R20822   2.463   3.089   8.118 -0.6381  1.3077  2.7400
  182SOPE  H15S20823   2.627   3.163   8.143 -0.1282  0.0624 -0.3844
  182SOPE  C21620824   2.530   3.053   8.318  0.1514  0.0814  0.1991
  182SOPE  H16R20825   2.629   3.052   8.369 -0.0384  2.5197  0.7411
  182SOPE  H16S20826   2.476   2.956   8.326 -0.1247  0.2015 -0.1892
  182SOPE  C21720827   2.444   3.162   8.379 -0.6450 -0.4173 -0.6785
  182SOPE  H17R20828   2.349   3.174   8.323 -2.5386  0.3754  2.4183
  182SOPE  H17S20829   2.508   3.253   8.378  1.7604 -2.0113 -0.5336
  182SOPE  C21820830   2.408   3.125   8.521  0.4112  0.2728  0.2044
  182SOPE  H18R20831   2.341   3.205   8.560 -0.0397 -0.4688  0.9753
  182SOPE  H18S20832   2.501   3.096   8.573 -0.6605  0.5990  2.4135
  182SOPE  H18T20833   2.337   3.040   8.517  0.7121  0.0403 -2.5455
  182SOPE   C3320834   2.179   2.805   6.994  0.3011 -0.0309  0.0655
  182SOPE   H3X20835   2.071   2.821   6.972 -0.1719 -2.9447 -0.1353
  182SOPE   H3Y20836   2.228   2.903   7.010 -1.0993  0.2776  3.5487
  182SOPE   C3420837   2.204   2.735   7.128  0.6738  0.0583  0.0184
  182SOPE   H4X20838   2.201   2.823   7.195  0.6021 -0.9128  1.3274
  182SOPE   H4Y20839   2.301   2.681   7.127 -0.1535 -1.5184  0.6943
  182SOPE   C3520840   2.088   2.630   7.155  0.0706  0.3123  0.4677
  182SOPE   H5X20841   2.065   2.599   7.051 -2.4494 -0.1260  1.1026
  182SOPE   H5Y20842   1.997   2.689   7.181  0.6443  0.8928  1.2081
  182SOPE   C3620843   2.112   2.510   7.247 -0.3275  0.4403 -0.1913
  182SOPE   H6X20844   2.196   2.451   7.203 -0.3262  0.6043 -0.4120
  182SOPE   H6Y20845   2.022   2.444   7.245  1.3454 -1.9735 -1.0944
  182SOPE   C3720846   2.144   2.562   7.388 -0.0952 -0.0843  0.0694
  182SOPE   H7X20847   2.079   2.648   7.414 -0.2439  0.1746 -1.0925
  182SOPE   H7Y20848   2.247   2.602   7.387 -0.2343  0.2696 -0.3243
  182SOPE   C3820849   2.125   2.452   7.498 -0.3805  0.0505  0.6213
  182SOPE   H8X20850   2.176   2.493   7.588  1.3236 -0.3912 -0.1005
  182SOPE   H8Y20851   2.170   2.351   7.485 -0.5906  0.0117  0.1763
  182SOPE   C3920852   1.975   2.428   7.526  0.1480 -0.6499 -0.4001
  182SOPE   H9X20853   1.934   2.342   7.469  1.0879 -0.7138 -0.9933
  182SOPE   H9Y20854   1.919   2.520   7.497 -2.8162 -0.6462  4.3032
  182SOPE  C31020855   1.945   2.398   7.669  0.2951 -0.3375  0.8739
  182SOPE  H10X20856   1.840   2.424   7.697  0.3995 -1.8639  2.8316
  182SOPE  H10Y20857   2.004   2.459   7.740  0.6372  1.2094 -0.6817
  182SOPE  C31120858   1.959   2.246   7.709  0.4044 -0.0596 -0.3892
  182SOPE  H11X20859   2.017   2.195   7.629  0.1030  2.7007 -2.5232
  182SOPE  H11Y20860   1.857   2.205   7.719  0.5508 -0.1962  0.6475
  182SOPE  C31220861   2.033   2.233   7.846 -0.1073  0.0365 -0.4420
  182SOPE  H12X20862   1.965   2.279   7.921  1.3402  2.8952 -0.7520
  182SOPE  H12Y20863   2.123   2.298   7.847 -0.0424 -0.0177  1.7236
  182SOPE  C31320864   2.081   2.092   7.885 -0.0939 -0.6169  0.1560
  182SOPE  H13X20865   2.132   2.082   7.983  1.5672 -3.9771 -0.9082
  182SOPE  H13Y20866   2.162   2.079   7.810  1.6309  0.8849  1.6596
  182SOPE  C31420867   1.965   1.989   7.878  0.2752 -0.2521  0.1225
  182SOPE  H14X20868   1.902   1.984   7.786 -0.4952 -0.7623  0.6680
  182SOPE  H14Y20869   1.890   2.019   7.954 -0.4308 -1.0219 -0.2470
  182SOPE  C31520870   1.996   1.842   7.901  0.2733  0.2177 -0.6102
  182SOPE  H15X20871   2.063   1.814   7.817  1.8358  1.5350  0.1406
  182SOPE  H15Y20872   1.907   1.776   7.891 -0.3288  0.5914  1.5722
  182SOPE  C31620873   2.084   1.823   8.025 -0.4163 -0.5382  0.1038
  182SOPE  H16X20874   2.184   1.868   8.010 -0.3593 -0.9606 -0.8636
  182SOPE  H16Y20875   2.110   1.716   8.032 -3.0750 -1.5085 -2.6008
  182SOPE  C31720876   2.016   1.857   8.163 -0.1350 -0.8455 -0.4055
  182SOPE  H17X20877   1.922   1.798   8.165  0.0176 -1.0764 -0.0209
  182SOPE  H17Y20878   1.998   1.966   8.162  1.1803 -0.5734 -2.8499
  182SOPE  C31820879   2.097   1.820   8.289  0.4799 -0.0550 -0.3400
  182SOPE  H18X20880   2.051   1.849   8.386  1.5328  1.5510 -0.2926
  182SOPE  H18Y20881   2.190   1.879   8.291  1.1504 -1.0891  1.4221
  182SOPE  H18Z20882   2.115   1.712   8.308 -0.1282  0.1146  1.4573
  183SOPE     N20883   5.720   3.098   5.792  0.1759  0.1220  0.0463
  183SOPE   HN120884   5.785   3.032   5.744 -3.5511 -1.7749 -2.9809
  183SOPE   HN220885   5.654   3.141   5.724 -1.4046 -0.5339  1.1113
  183SOPE   HN320886   5.782   3.174   5.827  1.0930  0.0296 -1.2939
  183SOPE   C1220887   5.640   3.050   5.913 -0.1197 -0.1510 -0.0525
  183SOPE  H12A20888   5.583   2.966   5.869  2.2398 -1.9607  0.1361
  183SOPE  H12B20889   5.567   3.128   5.943 -0.5449 -0.6602  0.2429
  183SOPE   C1120890   5.727   3.015   6.028 -0.3708 -0.5999  0.6894
  183SOPE  H11A20891   5.674   2.984   6.121 -0.2793  1.1586  1.3693
  183SOPE  H11B20892   5.777   3.112   6.051  1.4424 -1.1796 -0.6002
  183SOPE     P20893   5.816   2.773   6.048  0.0234  0.3093  0.0799
  183SOPE   O1320894   5.947   2.709   6.016 -0.7112 -0.3513 -0.8577
  183SOPE   O1420895   5.701   2.702   5.992 -0.0381  0.2396 -0.4895
  183SOPE   O1220896   5.830   2.922   6.000  0.3086  0.1900 -0.2569
  183SOPE   O1120897   5.814   2.782   6.198 -0.0784 -0.6994  0.4081
  183SOPE    C120898   5.938   2.808   6.273 -0.6028  0.3390  1.0426
  183SOPE    HA20899   5.943   2.906   6.325 -2.8917  0.8169  0.4642
  183SOPE    HB20900   6.032   2.820   6.214 -1.6866  2.5138 -0.3515
  183SOPE    C220901   5.960   2.702   6.387  0.0122 -0.2118 -0.2762
  183SOPE    HS20902   6.001   2.609   6.343  2.3104  0.9025 -0.6177
  183SOPE   O2120903   5.838   2.689   6.459 -0.4485  0.0090 -0.1467
  183SOPE   C2120904   5.757   2.596   6.407  0.6442  0.3643  0.0426
  183SOPE   O2220905   5.799   2.510   6.331  0.2337 -0.1665  0.2528
  183SOPE   C2220906   5.609   2.606   6.468 -0.0653  0.0931  0.7248
  183SOPE   H2R20907   5.546   2.550   6.396  2.0622 -3.0494  1.1227
  183SOPE   H2S20908   5.580   2.713   6.462 -0.7754 -0.1566 -1.3914
  183SOPE    C320909   6.076   2.750   6.484 -0.7566 -0.6442  0.6386
  183SOPE    HX20910   6.050   2.852   6.520 -0.4815 -0.8848  1.5470
  183SOPE    HY20911   6.172   2.771   6.432 -1.3213 -0.0953 -0.2085
  183SOPE   O3120912   6.096   2.659   6.585  0.4561  0.4533 -0.2898
  183SOPE   C3120913   6.161   2.543   6.563  0.0747 -0.2497  0.1855
  183SOPE   O3220914   6.216   2.509   6.458  0.4106 -0.4942 -0.3920
  183SOPE   C3220915   6.135   2.455   6.685  0.2418 -0.1815  0.4010
  183SOPE   H2X20916   6.035   2.414   6.659  1.1150 -0.1208 -3.6635
  183SOPE   H2Y20917   6.120   2.525   6.771 -1.6694  0.8118 -0.6731
  183SOPE   C2320918   5.582   2.538   6.604  0.1560 -0.4632 -0.3686
  183SOPE   H3R20919   5.477   2.554   6.634  0.7366 -0.6837  1.9117
  183SOPE   H3S20920   5.639   2.597   6.679 -0.6548 -0.0392 -0.0773
  183SOPE   C2420921   5.604   2.390   6.607  0.0357  0.7947 -0.4042
  183SOPE   H4R20922   5.517   2.346   6.555  0.6113 -0.6077 -0.2270
  183SOPE   H4S20923   5.692   2.378   6.540 -0.3005  1.0971 -0.9000
  183SOPE   C2520924   5.619   2.319   6.740  0.0017  0.3361 -0.7268
  183SOPE   H5R20925   5.536   2.344   6.809 -0.3017  1.5592 -1.5100
  183SOPE   H5S20926   5.613   2.210   6.720  3.2286 -0.0326 -0.2403
  183SOPE   C2620927   5.759   2.332   6.799  0.3719 -0.0211  0.1255
  183SOPE   H6R20928   5.842   2.279   6.747  0.0082  0.5790 -1.1206
  183SOPE   H6S20929   5.776   2.442   6.796  0.3472 -0.0372 -1.6993
  183SOPE   C2720930   5.767   2.282   6.949 -0.4792 -0.3356  0.4465
  183SOPE   H7R20931   5.687   2.339   7.000 -3.1734 -0.9345 -2.7250
  183SOPE   H7S20932   5.756   2.171   6.948  0.1256 -0.5078 -3.1723
  183SOPE   C2820933   5.901   2.314   7.014 -0.7233  0.4409 -0.0405
  183SOPE   H8R20934   5.900   2.254   7.108 -0.3934 -2.0662 -1.5418
  183SOPE   H8S20935   5.977   2.266   6.949 -0.7446  0.8579 -0.3724
  183SOPE   C2920936   5.922   2.460   7.042 -0.5816  0.7558 -0.2468
  183SOPE   H9120937   5.930   2.512   6.945 -0.0688  0.7041 -0.2344
  183SOPE  C21020938   5.903   2.528   7.159  0.9117 -0.0711  0.3107
  183SOPE  H10120939   5.933   2.634   7.155  0.4718  0.0460  0.1335
  183SOPE  C21120940   5.867   2.459   7.286 -0.3514 -0.9353 -0.2393
  183SOPE  H11R20941   5.856   2.349   7.282  0.6907 -1.1054  1.0253
  183SOPE  H11S20942   5.771   2.510   7.310 -0.3759 -0.1143 -1.9494
  183SOPE  C21220943   5.961   2.490   7.409 -0.3009  0.1069  0.8418
  183SOPE  H12R20944   5.993   2.596   7.408  1.3718 -0.3380 -1.7381
  183SOPE  H12S20945   6.058   2.437   7.396 -0.8437 -0.3387 -2.1529
  183SOPE  C21320946   5.901   2.444   7.539  0.3563 -0.3355 -0.1216
  183SOPE  H13R20947   5.888   2.335   7.521 -0.7667  0.3374 -4.5858
  183SOPE  H13S20948   5.802   2.495   7.543  0.6927  0.2681  1.1606
  183SOPE  C21420949   5.974   2.485   7.675 -0.7543 -0.4964  0.2269
  183SOPE  H14R20950   5.903   2.455   7.754  1.1209 -1.0417  1.7770
  183SOPE  H14S20951   5.984   2.596   7.672  2.2935 -0.6057  2.0636
  183SOPE  C21520952   6.109   2.418   7.705 -0.6012  0.2641 -0.6214
  183SOPE  H15R20953   6.195   2.453   7.643  0.7112  1.0196  1.5394
  183SOPE  H15S20954   6.098   2.308   7.704 -0.0655  0.1556  1.6464
  183SOPE  C21620955   6.154   2.462   7.844 -0.2841  0.0264 -1.2598
  183SOPE  H16R20956   6.123   2.568   7.851 -3.6010 -0.9548  2.4508
  183SOPE  H16S20957   6.263   2.456   7.865 -0.8556 -2.0133  1.8343
  183SOPE  C21720958   6.080   2.382   7.953 -0.2676 -0.2255  0.6241
  183SOPE  H17R20959   6.127   2.281   7.954  1.8169  0.7033  0.6917
  183SOPE  H17S20960   5.972   2.380   7.926  0.2580 -2.1905 -1.6766
  183SOPE  C21820961   6.099   2.439   8.088 -0.0629  0.5567 -0.4529
  183SOPE  H18R20962   6.198   2.410   8.130 -0.7182  2.1896  2.4531
  183SOPE  H18S20963   6.034   2.383   8.158 -0.6545  3.0646  1.1386
  183SOPE  H18T20964   6.098   2.550   8.097 -0.6350  0.4774  0.5036
  183SOPE   C3320965   6.252   2.353   6.702  0.3970 -0.1721 -0.5067
  183SOPE   H3X20966   6.346   2.411   6.711 -0.7130  1.5579  0.7614
  183SOPE   H3Y20967   6.259   2.289   6.611 -0.6415 -0.8441 -0.1347
  183SOPE   C3420968   6.240   2.269   6.835 -0.3252  0.3115 -0.6127
  183SOPE   H4X20969   6.281   2.168   6.818 -1.2330 -0.4217  1.2309
  183SOPE   H4Y20970   6.131   2.250   6.847 -0.4197  0.8999 -0.5287
  183SOPE   C3520971   6.294   2.339   6.959 -0.0971 -0.0725  0.1020
  183SOPE   H5X20972   6.231   2.429   6.979 -0.8330 -0.8136  1.2763
  183SOPE   H5Y20973   6.401   2.368   6.956 -0.4656  1.4812  0.9616
  183SOPE   C3620974   6.273   2.255   7.084 -0.0161 -0.1213  0.4710
  183SOPE   H6X20975   6.349   2.175   7.072 -2.2987 -2.1467 -1.5872
  183SOPE   H6Y20976   6.177   2.199   7.088 -0.3430  0.2945 -0.9891
  183SOPE   C3720977   6.287   2.327   7.217 -0.3254 -1.0943  0.1719
  183SOPE   H7X20978   6.215   2.412   7.221  1.3115  0.3072  1.2650
  183SOPE   H7Y20979   6.385   2.378   7.223  0.1390 -1.9776  0.1978
  183SOPE   C3820980   6.256   2.238   7.347 -0.3206 -0.1612  0.3982
  183SOPE   H8X20981   6.153   2.201   7.330 -0.2871 -0.8009  1.4782
  183SOPE   H8Y20982   6.267   2.307   7.434  3.0419  0.7597 -0.5933
  183SOPE   C3920983   6.351   2.116   7.347 -0.7615  0.6988 -0.1741
  183SOPE   H9X20984   6.448   2.170   7.335 -0.1475 -0.1560  0.8560
  183SOPE   H9Y20985   6.335   2.055   7.255  2.6508 -0.6389 -0.0285
  183SOPE  C31020986   6.352   2.033   7.473  0.5090 -0.9831  0.0065
  183SOPE  H10X20987   6.429   1.953   7.471  0.7769 -0.7148 -0.4327
  183SOPE  H10Y20988   6.250   1.989   7.486  0.2633  0.0036  1.7219
  183SOPE  C31120989   6.385   2.127   7.601  0.3826  0.3862 -0.0133
  183SOPE  H11X20990   6.314   2.212   7.598  0.2718  0.2762 -0.6395
  183SOPE  H11Y20991   6.486   2.172   7.588  1.5123 -1.8893  0.2671
  183SOPE  C31220992   6.379   2.052   7.733 -0.6622 -0.2268  0.2545
  183SOPE  H12X20993   6.421   1.953   7.708  2.7659  0.4061  2.7475
  183SOPE  H12Y20994   6.273   2.038   7.763 -0.2433 -1.1924  1.3701
  183SOPE  C31320995   6.460   2.112   7.862 -0.1330  0.2492  0.1622
  183SOPE  H13X20996   6.417   2.213   7.877  0.4414  0.3559  1.2181
  183SOPE  H13Y20997   6.565   2.129   7.833  0.7831 -2.2527  1.6560
  183SOPE  C31420998   6.438   2.030   7.992  0.0495 -0.9748 -0.2500
  183SOPE  H14X20999   6.483   1.929   7.996  0.1000 -0.9518 -0.2332
  183SOPE  H14Y21000   6.329   2.014   7.981 -0.0633 -0.8213  0.5979
  183SOPE  C31521001   6.464   2.119   8.113  0.0332  0.2433 -0.1281
  183SOPE  H15X21002   6.415   2.218   8.105  1.3280  0.7923 -1.9823
  183SOPE  H15Y21003   6.575   2.127   8.105 -0.0946  0.8160 -1.5123
  183SOPE  C31621004   6.423   2.058   8.246  0.4003  0.1191 -0.9508
  183SOPE  H16X21005   6.321   2.014   8.246  1.4792 -2.6012  1.1262
  183SOPE  H16Y21006   6.426   2.135   8.326 -0.2846  0.6634 -1.4323
  183SOPE  C31721007   6.506   1.933   8.303  0.2679 -0.3277  0.8005
  183SOPE  H17X21008   6.486   1.838   8.249  0.8444 -1.0596  1.8236
  183SOPE  H17Y21009   6.476   1.920   8.409  3.4274 -2.1539  1.6155
  183SOPE  C31821010   6.657   1.953   8.311 -0.9183  0.0209  0.1323
  183SOPE  H18X21011   6.680   2.053   8.354 -1.6336 -0.2253  1.1320
  183SOPE  H18Y21012   6.686   1.958   8.204 -0.7529  1.7028  0.2238
  183SOPE  H18Z21013   6.705   1.871   8.368 -0.7524 -0.0962 -0.1735
  184SOPE     N21014   6.301   0.029   6.424 -0.6035 -0.1199  0.0271
  184SOPE   HN121015   6.289   0.008   6.525  1.1713 -1.4256  0.0126
  184SOPE   HN221016   6.289  -0.063   6.376 -2.8782  1.0164 -1.7820
  184SOPE   HN321017   6.397   0.059   6.401 -0.9246  0.3347 -0.7598
  184SOPE   C1221018   6.191   0.115   6.369  0.4093 -1.0648 -0.1700
  184SOPE  H12A21019   6.095   0.072   6.404  0.0693 -1.3990 -1.4401
  184SOPE  H12B21020   6.191   0.102   6.258  0.3246  0.5724 -0.3919
  184SOPE   C1121021   6.200   0.260   6.422 -0.0736  0.0297 -0.0263
  184SOPE  H11A21022   6.192   0.257   6.532 -0.6288 -1.3754 -0.0905
  184SOPE  H11B21023   6.120   0.324   6.381  0.7153  0.6140 -0.6929
  184SOPE     P21024   6.384   0.384   6.264 -0.1324 -0.0864 -0.2179
  184SOPE   O1321025   6.288   0.367   6.154 -0.1671 -0.0951 -0.3297
  184SOPE   O1421026   6.521   0.329   6.241  0.2220 -0.1841  0.2756
  184SOPE   O1221027   6.332   0.328   6.396  0.4957  0.6678  0.5051
  184SOPE   O1121028   6.389   0.543   6.295  0.2199  0.1588  0.0547
  184SOPE    C121029   6.292   0.621   6.361  0.3751 -0.1609  0.2303
  184SOPE    HA21030   6.198   0.562   6.363 -0.6234  1.3370 -0.9382
  184SOPE    HB21031   6.263   0.702   6.291  1.8872 -0.0452 -0.3078
  184SOPE    C221032   6.354   0.676   6.495  0.8824 -0.3496  0.4328
  184SOPE    HS21033   6.432   0.750   6.467  0.9896 -0.2371  1.0302
  184SOPE   O2121034   6.411   0.569   6.575  0.3104 -0.2408 -0.4952
  184SOPE   C2121035   6.541   0.548   6.556 -0.3596  0.3975  0.2181
  184SOPE   O2221036   6.618   0.622   6.494  0.3490 -0.6424  0.5579
  184SOPE   C2221037   6.576   0.416   6.627  0.6795 -0.4906 -0.2106
  184SOPE   H2R21038   6.550   0.338   6.553 -0.1233 -0.1420 -0.3050
  184SOPE   H2S21039   6.503   0.396   6.707  0.3172  1.7184  0.0812
  184SOPE    C321040   6.258   0.765   6.572 -0.2760 -0.6000  0.2631
  184SOPE    HX21041   6.317   0.813   6.653  0.9727 -2.2382  0.3707
  184SOPE    HY21042   6.178   0.696   6.607 -1.9869  1.7683  1.2510
  184SOPE   O3121043   6.208   0.876   6.493  0.0613  0.1726 -0.4767
  184SOPE   C3121044   6.080   0.916   6.505 -0.0627 -0.3684  0.1068
  184SOPE   O3221045   5.993   0.854   6.560 -0.0258 -0.3562  0.0380
  184SOPE   C3221046   6.072   1.038   6.412  0.7099 -0.3622  0.3413
  184SOPE   H2X21047   5.964   1.050   6.388  0.9097  0.3094 -0.2594
  184SOPE   H2Y21048   6.131   1.031   6.319 -1.4842  2.2479 -1.4095
  184SOPE   C2321049   6.723   0.401   6.676  0.3001  0.0539  0.0382
  184SOPE   H3R21050   6.790   0.404   6.587  0.2093  0.1431 -0.0279
  184SOPE   H3S21051   6.732   0.299   6.719 -0.6588 -0.6144 -1.2899
  184SOPE   C2421052   6.768   0.503   6.780  0.8668 -0.1596  0.3212
  184SOPE   H4R21053   6.873   0.493   6.814  0.4769 -0.3709  1.5240
  184SOPE   H4S21054   6.766   0.607   6.743  1.6360 -0.0633  0.5344
  184SOPE   C2521055   6.688   0.502   6.903 -0.1342 -0.3526 -0.3608
  184SOPE   H5R21056   6.657   0.608   6.917 -1.2822 -0.8356  1.1021
  184SOPE   H5S21057   6.592   0.447   6.892 -0.9969  1.2204 -1.0545
  184SOPE   C2621058   6.759   0.435   7.019 -0.5838 -0.8987 -0.0373
  184SOPE   H6R21059   6.787   0.331   6.991 -0.7641 -1.4917  1.8398
  184SOPE   H6S21060   6.857   0.487   7.025 -0.9816 -0.1090 -0.3912
  184SOPE   C2721061   6.674   0.449   7.142 -0.2657 -0.2237  0.0413
  184SOPE   H7R21062   6.655   0.558   7.152 -0.6900 -0.4031  1.4175
  184SOPE   H7S21063   6.573   0.403   7.140 -1.3276  2.0251 -1.3584
  184SOPE   C2821064   6.736   0.389   7.276 -0.0899  0.3931 -0.7641
  184SOPE   H8R21065   6.675   0.425   7.363  2.7738  0.1879  1.4781
  184SOPE   H8S21066   6.759   0.280   7.273 -0.7305  0.1076  1.6957
  184SOPE   C2921067   6.866   0.461   7.293  0.3730 -0.1223 -0.2951
  184SOPE   H9121068   6.954   0.426   7.238  0.1703  1.1421 -1.4938
  184SOPE  C21021069   6.897   0.556   7.379  0.3756  0.1375  0.3565
  184SOPE  H10121070   7.001   0.588   7.365  0.5143 -1.0496 -1.7051
  184SOPE  C21121071   6.807   0.614   7.490 -0.7600  0.2687 -0.2901
  184SOPE  H11R21072   6.703   0.574   7.490 -0.6434 -0.2957  3.0838
  184SOPE  H11S21073   6.799   0.722   7.465  2.3232  0.7632  0.5571
  184SOPE  C21221074   6.854   0.600   7.642 -1.0241  0.2425 -0.1040
  184SOPE  H12R21075   6.836   0.495   7.671 -2.0814 -0.2187 -2.2546
  184SOPE  H12S21076   6.781   0.648   7.711 -1.6799 -0.9574  0.0644
  184SOPE  C21321077   7.004   0.640   7.670  0.0329  0.1826  0.1630
  184SOPE  H13R21078   7.016   0.747   7.645  0.0024  0.0325 -0.5378
  184SOPE  H13S21079   7.076   0.572   7.618  1.2221  1.8944 -0.5446
  184SOPE  C21421080   7.040   0.629   7.823  0.2527 -0.3404 -0.2228
  184SOPE  H14R21081   7.019   0.526   7.858  1.5932 -0.7755 -0.6534
  184SOPE  H14S21082   6.975   0.695   7.885 -0.3089 -2.2931  1.3630
  184SOPE  C21521083   7.193   0.644   7.845 -0.1070  0.4110 -0.3175
  184SOPE  H15R21084   7.235   0.742   7.812  2.5019  0.2875  2.2484
  184SOPE  H15S21085   7.238   0.566   7.781 -1.3548 -1.1554  0.6314
  184SOPE  C21621086   7.240   0.637   7.992 -0.0299  0.6532  0.0855
  184SOPE  H16R21087   7.162   0.634   8.071  0.7129  2.1433  0.9108
  184SOPE  H16S21088   7.296   0.731   8.012  2.4592 -1.3401  3.8935
  184SOPE  C21721089   7.351   0.523   8.011  0.6604 -0.1405 -0.1960
  184SOPE  H17R21090   7.400   0.518   7.911 -0.3578 -0.7398 -0.6880
  184SOPE  H17S21091   7.303   0.425   8.032  2.5609 -0.8751  1.0485
  184SOPE  C21821092   7.451   0.543   8.119  0.1500 -0.5347 -1.1205
  184SOPE  H18R21093   7.410   0.512   8.218 -2.0823 -0.3554 -1.9502
  184SOPE  H18S21094   7.476   0.651   8.120 -0.3151 -0.4250 -0.1208
  184SOPE  H18T21095   7.539   0.476   8.104  0.1017 -1.0108  0.5022
  184SOPE   C3321096   6.110   1.171   6.483  0.2573  0.0699 -0.2662
  184SOPE   H3X21097   6.113   1.254   6.409  0.5616  0.5741  0.3090
  184SOPE   H3Y21098   6.212   1.160   6.524  0.9140  0.9223 -1.5741
  184SOPE   C3421099   6.007   1.220   6.585 -0.4299  0.3331 -0.0098
  184SOPE   H4X21100   5.931   1.140   6.599 -1.9259  1.9967  1.9705
  184SOPE   H4Y21101   5.949   1.304   6.544  0.7856  0.8841 -0.6470
  184SOPE   C3521102   6.071   1.252   6.718 -0.6998  0.0516 -0.5078
  184SOPE   H5X21103   6.121   1.349   6.702 -0.7403  0.1756  0.0971
  184SOPE   H5Y21104   6.145   1.176   6.751 -0.6363  0.5056  0.4136
  184SOPE   C3621105   5.966   1.264   6.837  0.4369  0.1502 -0.0036
  184SOPE   H6X21106   5.888   1.184   6.829  0.4436 -0.3088  3.1748
  184SOPE   H6Y21107   5.916   1.361   6.819 -0.8406 -0.7759 -1.7667
  184SOPE   C3721108   6.030   1.238   6.975  0.0001 -0.2409 -0.6004
  184SOPE   H7X21109   6.121   1.301   6.990 -0.0381 -0.6596  2.0209
  184SOPE   H7Y21110   6.071   1.135   6.973  3.4596  0.9421  0.9499
  184SOPE   C3821111   5.923   1.257   7.085 -0.1809  0.3122  0.0496
  184SOPE   H8X21112   5.837   1.187   7.073 -2.1972  1.7910  4.1643
  184SOPE   H8Y21113   5.872   1.356   7.084 -0.6336  0.0917  0.9775
  184SOPE   C3921114   5.978   1.220   7.225 -0.1239 -0.1907 -0.2170
  184SOPE   H9X21115   6.029   1.121   7.225 -1.3703 -0.8604  0.5901
  184SOPE   H9Y21116   5.899   1.219   7.303  0.6930 -0.6752  0.6326
  184SOPE  C31021117   6.089   1.315   7.275  0.5386 -0.4268 -0.1011
  184SOPE  H10X21118   6.046   1.407   7.320 -1.9089 -1.3195 -0.4488
  184SOPE  H10Y21119   6.157   1.345   7.193 -0.3764 -3.0889 -2.0013
  184SOPE  C31121120   6.165   1.239   7.380 -0.9775 -0.5455  0.1557
  184SOPE  H11X21121   6.241   1.307   7.424 -1.9398  2.3022 -2.2438
  184SOPE  H11Y21122   6.219   1.156   7.329 -0.3417  1.0890 -1.9859
  184SOPE  C31221123   6.080   1.178   7.490 -0.8173 -0.9561 -0.2552
  184SOPE  H12X21124   6.046   1.080   7.449 -0.3322 -0.2909 -2.3147
  184SOPE  H12Y21125   5.984   1.234   7.488 -1.6404 -2.3140 -0.8225
  184SOPE  C31321126   6.138   1.168   7.631  0.6094  0.6765  0.0477
  184SOPE  H13X21127   6.198   1.256   7.661  2.8644 -0.1541 -1.7493
  184SOPE  H13Y21128   6.210   1.084   7.621 -0.7775 -0.4555 -0.9297
  184SOPE  C31421129   6.043   1.108   7.733  0.4980 -0.1137 -1.1916
  184SOPE  H14X21130   5.989   1.019   7.693 -0.9294 -0.1015  0.6041
  184SOPE  H14Y21131   5.953   1.166   7.762  0.8514 -0.0616 -0.1595
  184SOPE  C31521132   6.116   1.063   7.861 -0.2287  0.1993 -0.5395
  184SOPE  H15X21133   6.170   1.153   7.898 -1.4479  1.1174 -0.9205
  184SOPE  H15Y21134   6.191   0.985   7.838 -0.3121  0.5657 -2.2325
  184SOPE  C31621135   6.019   1.003   7.972 -0.2115 -0.6857  0.1164
  184SOPE  H16X21136   5.984   0.902   7.940 -0.4394 -0.4878 -0.2583
  184SOPE  H16Y21137   5.926   1.063   7.980 -0.2475 -0.7690  0.3156
  184SOPE  C31721138   6.086   1.003   8.111  0.1300  0.1901  0.6099
  184SOPE  H17X21139   6.185   0.955   8.104  0.2205  0.4705 -0.2741
  184SOPE  H17Y21140   6.022   0.943   8.179 -0.6573  3.2387  2.7756
  184SOPE  C31821141   6.091   1.145   8.168 -0.0317 -0.1813  0.2149
  184SOPE  H18X21142   6.156   1.215   8.111  1.0131 -1.4232 -0.1643
  184SOPE  H18Y21143   6.146   1.131   8.264 -0.6902 -0.7857  0.5079
  184SOPE  H18Z21144   5.991   1.189   8.186  0.4296  0.9027  0.2356
  185SAPI   C1221145   1.433   2.218  10.609  0.2748  0.1033 -0.0682
  185SAPI    H221146   1.340   2.213  10.548  0.6025 -0.3331 -0.5353
  185SAPI    O221147   1.472   2.082  10.628  0.1220 -0.0632 -0.0727
  185SAPI   HO221148   1.397   2.024  10.618  0.8131 -0.6817 -2.3499
  185SAPI   C1321149   1.530   2.287  10.526 -0.1492 -0.8941 -0.0516
  185SAPI    H321150   1.490   2.389  10.504  2.6034  0.4016  0.4715
  185SAPI    O321151   1.552   2.226  10.400  0.2853 -0.3635  0.4434
  185SAPI   HO321152   1.581   2.135  10.414  1.7432 -0.1903 -1.0365
  185SAPI   C1421153   1.660   2.307  10.599 -0.2072  0.6486  0.4418
  185SAPI    H421154   1.706   2.206  10.611 -3.3294 -0.8564  0.8602
  185SAPI    O421155   1.750   2.382  10.514  0.1634  0.5398  0.0252
  185SAPI   HO421156   1.785   2.318  10.452  0.4347  0.6955  0.0167
  185SAPI   C1521157   1.647   2.380  10.727  0.2567  0.5524  0.3021
  185SAPI    H521158   1.603   2.478  10.699  2.9496  1.7730  0.0164
  185SAPI    O521159   1.772   2.400  10.793  0.5525  0.3805  0.3165
  185SAPI   HO521160   1.832   2.449  10.736 -1.6125  1.7713 -0.9345
  185SAPI   C1621161   1.548   2.299  10.817  0.3193 -0.1334  0.1958
  185SAPI    H621162   1.588   2.199  10.846 -0.2139  0.0356  1.6011
  185SAPI    O621163   1.534   2.375  10.938 -0.0223 -0.0233  0.0720
  185SAPI   HO621164   1.625   2.400  10.957  0.1377  0.5408 -1.3182
  185SAPI   C1121165   1.412   2.290  10.741 -0.4165  0.2587  0.1581
  185SAPI    H121166   1.385   2.394  10.715  0.8464  0.3022 -1.0981
  185SAPI     P21167   1.154   2.245  10.783  0.4055  0.3319 -0.4556
  185SAPI   O1321168   1.121   2.367  10.708 -0.3219 -0.8144 -0.4159
  185SAPI   O1421169   1.083   2.236  10.915 -0.1444  0.7791  0.3591
  185SAPI   O1221170   1.312   2.218  10.812 -0.5195 -0.2677  0.0859
  185SAPI   O1121171   1.110   2.120  10.690 -0.3645 -0.4305 -0.3396
  185SAPI    C121172   0.980   2.105  10.642 -0.0762 -0.4119  0.4288
  185SAPI    HA21173   0.976   1.998  10.614  0.0898 -0.2708 -0.1337
  185SAPI    HB21174   0.901   2.130  10.715  1.9457  2.0619  1.9385
  185SAPI    C221175   0.944   2.192  10.517  0.1538 -0.6623  0.0160
  185SAPI    HS21176   0.941   2.298  10.552  3.2495 -0.1462 -0.9822
  185SAPI   O2121177   0.813   2.148  10.471 -0.4252  0.5892 -0.2947
  185SAPI   C2121178   0.763   2.239  10.392 -0.2157 -0.1236  0.0759
  185SAPI   O2221179   0.788   2.355  10.386 -0.3039  0.2246 -0.4078
  185SAPI   C2221180   0.657   2.168  10.306  0.4927  0.1101  0.6991
  185SAPI   H2R21181   0.705   2.129  10.215 -0.1441 -0.2787  0.5212
  185SAPI   H2S21182   0.615   2.091  10.374 -1.2451  1.6820  1.5392
  185SAPI    C321183   1.061   2.178  10.417 -0.2187  0.5655  0.0831
  185SAPI    HX21184   1.083   2.069  10.407 -0.1121  0.6217 -0.3269
  185SAPI    HY21185   1.158   2.210  10.460  0.7702  0.1024 -1.7173
  185SAPI   O3121186   1.042   2.241  10.286 -0.2100  0.3491 -0.1352
  185SAPI   C3121187   1.070   2.368  10.286 -0.4028  0.2218 -0.4153
  185SAPI   O3221188   1.128   2.432  10.373 -0.3386  0.3111 -0.4466
  185SAPI   C3221189   1.038   2.427  10.146  0.2991  0.1901  0.9155
  185SAPI   H2X21190   1.110   2.375  10.079  0.6314  1.3437  0.3527
  185SAPI   H2Y21191   1.080   2.530  10.137  0.9326 -0.2433 -4.2074
  185SAPI   C2321192   0.538   2.265  10.268  0.3437 -0.3987  1.1061
  185SAPI   H3R21193   0.563   2.333  10.183 -0.7405 -1.2267  0.0905
  185SAPI   H3S21194   0.525   2.330  10.357  0.4698 -1.0265  1.5881
  185SAPI   C2421195   0.399   2.206  10.226  0.0359  0.2843 -0.9356
  185SAPI   H4R21196   0.343   2.296  10.192  1.5898  2.2129  1.3204
  185SAPI   H4S21197   0.353   2.172  10.321  2.2606  1.1973  0.5492
  185SAPI   C2521198   0.424   2.086  10.134 -0.3014 -0.3090 -0.1985
  185SAPI   H5R21199   0.470   2.001  10.187 -3.8738 -1.0349  2.0854
  185SAPI   C2621200   0.377   2.079  10.008 -0.3383  0.4289  0.0860
  185SAPI   H6R21201   0.403   1.990   9.949 -1.4238  0.3092 -0.2215
  185SAPI   C2721202   0.296   2.185   9.939  0.0345 -0.2184  0.7080
  185SAPI   H7R21203   0.224   2.236  10.006 -1.4297 -0.1014 -0.8889
  185SAPI   H7S21204   0.238   2.128   9.864 -0.8353 -0.0309  1.2227
  185SAPI   C2821205   0.386   2.286   9.881  0.0010 -0.3532  0.4193
  185SAPI   H8R21206   0.471   2.324   9.940 -1.2036  1.5833  1.0210
  185SAPI   C2921207   0.373   2.345   9.757 -0.0814 -0.0600 -0.3824
  185SAPI   H9R21208   0.448   2.418   9.720 -0.2584  0.4508  0.2421
  185SAPI  C21021209   0.278   2.323   9.654 -0.1047 -0.7010 -0.3899
  185SAPI  H10R21210   0.274   2.413   9.589 -1.2575 -2.0277 -2.2610
  185SAPI  H10S21211   0.180   2.316   9.705 -0.2930  0.6512 -0.5347
  185SAPI  C21121212   0.296   2.189   9.579 -0.4920  0.3322  0.2095
  185SAPI  H11R21213   0.356   2.116   9.636  1.9296 -0.9007 -3.5454
  185SAPI  C21221214   0.242   2.164   9.456 -0.3479  0.2725 -0.9131
  185SAPI  H12R21215   0.268   2.061   9.427  1.8738  0.5256 -0.0402
  185SAPI  C21321216   0.161   2.245   9.368  0.7797 -1.0732 -0.2070
  185SAPI  H13R21217   0.150   2.340   9.426 -0.4589 -0.5984 -1.1716
  185SAPI  H13S21218   0.065   2.189   9.362  2.1602 -3.4003 -2.2746
  185SAPI  C21421219   0.237   2.268   9.237  0.3308 -0.3723 -0.0715
  185SAPI  H14R21220   0.205   2.205   9.153  0.5360  2.6594 -2.5917
  185SAPI  C21521221   0.337   2.352   9.217  0.2269  0.0696  1.3145
  185SAPI  H15R21222   0.383   2.349   9.117 -0.6705  0.3877  0.8774
  185SAPI  C21621223   0.401   2.456   9.308 -0.8301  0.3899  0.0004
  185SAPI  H16R21224   0.492   2.412   9.356 -0.7928 -0.6888 -1.0126
  185SAPI  H16S21225   0.328   2.491   9.383 -0.0970  0.6528  0.6102
  185SAPI  C21721226   0.471   2.573   9.229 -0.4380 -0.7341 -0.4369
  185SAPI  H17R21227   0.515   2.523   9.140  2.1505  1.7935 -0.7122
  185SAPI  H17S21228   0.559   2.621   9.278 -1.2669  1.1975 -0.7752
  185SAPI  C21821229   0.373   2.688   9.178  0.0230  0.6944 -0.0696
  185SAPI  H18R21230   0.437   2.752   9.114 -2.1801  2.4459 -0.6246
  185SAPI  H18S21231   0.333   2.745   9.264 -0.6188  1.2434 -0.7204
  185SAPI  C21921232   0.258   2.648   9.084 -0.5673  0.1363 -0.6625
  185SAPI  H19R21233   0.204   2.560   9.125 -2.9809  0.9662 -1.8216
  185SAPI  H19S21234   0.283   2.618   8.980 -0.3070  0.6349 -0.7438
  185SAPI  C22021235   0.158   2.758   9.080 -0.0348  0.4742 -1.0295
  185SAPI  H20R21236   0.199   2.844   9.023 -0.4955  2.0917  0.9960
  185SAPI  H20S21237   0.148   2.781   9.188  2.5053  1.5279 -0.9496
  185SAPI  H20T21238   0.069   2.723   9.023  1.2198 -2.9524 -1.1559
  185SAPI   C3321239   0.887   2.425  10.095 -0.2501  0.0811 -0.0999
  185SAPI   H3X21240   0.849   2.509  10.157  1.7382 -0.7200  2.3771
  185SAPI   H3Y21241   0.845   2.325  10.118  0.4520 -0.0964  0.4501
  185SAPI   C3421242   0.873   2.458   9.948 -0.0378  0.5810 -0.2890
  185SAPI   H4X21243   0.913   2.558   9.922  1.0511 -0.2493 -2.0438
  185SAPI   H4Y21244   0.762   2.459   9.936 -0.4901 -2.8054  2.1492
  185SAPI   C3521245   0.927   2.351   9.858 -0.1112 -0.3936 -0.0014
  185SAPI   H5X21246   0.870   2.257   9.871 -1.3774  0.2399 -0.8302
  185SAPI   H5Y21247   1.038   2.343   9.858 -0.1235 -0.6290  0.9113
  185SAPI   C3621248   0.895   2.392   9.710  0.2074 -0.1558  0.2753
  185SAPI   H6X21249   0.921   2.496   9.681 -0.8143 -0.1222 -0.5409
  185SAPI   H6Y21250   0.784   2.383   9.708  0.3483 -2.6094 -0.6390
  185SAPI   C3721251   0.969   2.301   9.606  0.5271 -0.2242 -0.3678
  185SAPI   H7X21252   0.945   2.199   9.642 -0.4659 -0.2441 -1.0626
  185SAPI   H7Y21253   1.078   2.321   9.619  0.7096 -1.7667  0.7295
  185SAPI   C3821254   0.913   2.301   9.467 -0.0368  0.5682  0.6054
  185SAPI   H8X21255   0.803   2.307   9.477 -0.2590 -1.5220 -0.0831
  185SAPI   H8Y21256   0.940   2.203   9.420  0.7414 -0.3663  2.8783
  185SAPI   C3921257   0.946   2.410   9.374  0.3856  0.2138  0.2955
  185SAPI   H9X21258   1.054   2.408   9.351  0.4520 -0.4299  0.6437
  185SAPI   H9Y21259   0.928   2.503   9.432 -0.6727  0.3065 -0.1442
  185SAPI  C31021260   0.854   2.420   9.247 -0.5012  0.6241 -0.8711
  185SAPI  H10X21261   0.887   2.506   9.185 -0.3361  0.9496 -0.3334
  185SAPI  H10Y21262   0.746   2.436   9.270 -0.7707 -1.7759 -0.2521
  185SAPI  C31121263   0.884   2.303   9.151 -0.7078  0.0485  0.6108
  185SAPI  H11X21264   0.842   2.212   9.199  1.0153 -1.1930 -0.1273
  185SAPI  H11Y21265   0.993   2.283   9.153 -0.6560  0.2526  2.9814
  185SAPI  C31221266   0.831   2.306   9.008 -0.4774  0.4384  0.3570
  185SAPI  H12X21267   0.805   2.208   8.964 -1.3542  0.3797  0.9845
  185SAPI  H12Y21268   0.912   2.341   8.941 -1.5215  1.9147 -0.1983
  185SAPI  C31321269   0.704   2.392   8.978 -0.2059  0.0664 -0.1724
  185SAPI  H13X21270   0.721   2.498   9.006  2.3140 -0.3816  0.2440
  185SAPI  H13Y21271   0.627   2.337   9.036  1.0739 -0.8278  0.7365
  185SAPI  C31421272   0.674   2.389   8.830  0.4895  0.3945 -0.0322
  185SAPI  H14X21273   0.646   2.291   8.784  1.2815  0.1216  0.0500
  185SAPI  H14Y21274   0.771   2.420   8.786  0.6184  2.6379  1.6443
  185SAPI  C31521275   0.568   2.499   8.800 -0.1227  0.0117  0.2612
  185SAPI  H15X21276   0.605   2.602   8.819 -0.5774  0.5745 -1.6955
  185SAPI  H15Y21277   0.477   2.473   8.857  1.5773 -1.9084  2.2917
  185SAPI  C31621278   0.526   2.509   8.651 -0.8677 -0.8327 -0.0364
  185SAPI  H16X21279   0.503   2.409   8.609 -1.4535 -0.8967  0.4237
  185SAPI  H16Y21280   0.606   2.547   8.585 -3.5360  1.2489 -2.3349
  185SAPI  C31721281   0.399   2.594   8.633 -0.4662  0.6186 -0.4527
  185SAPI  H17X21282   0.426   2.701   8.650  1.0495  0.5618 -2.1438
  185SAPI  H17Y21283   0.324   2.567   8.710 -0.5279  3.3432  0.5780
  185SAPI  C31821284   0.330   2.580   8.494 -0.4063 -0.4955  0.7012
  185SAPI  H18X21285   0.396   2.608   8.409 -2.4468  4.8377  0.5110
  185SAPI  H18Y21286   0.250   2.657   8.493  1.5174  1.6251 -0.5931
  185SAPI  H18Z21287   0.302   2.474   8.476 -0.1896 -0.4394 -0.0044
  186SAPI   C1221288   2.457   1.865  10.525 -0.2948 -0.1030 -0.5063
  186SAPI    H221289   2.407   1.854  10.426  0.6068 -1.1503 -0.8734
  186SAPI    O221290   2.427   1.743  10.595  0.0595  0.2858 -0.4478
  186SAPI   HO221291   2.337   1.759  10.624 -0.5509 -4.0742  0.8118
  186SAPI   C1321292   2.608   1.883  10.506  0.3938  0.1105  0.0206
  186SAPI    H321293   2.618   1.970  10.437 -2.4487 -0.2952 -1.0432
  186SAPI    O321294   2.661   1.770  10.433 -0.2092  0.3792  0.4056
  186SAPI   HO321295   2.637   1.689  10.480 -2.3930  1.4872  1.3486
  186SAPI   C1421296   2.677   1.904  10.641  0.1082 -0.5438 -0.3984
  186SAPI    H421297   2.660   1.820  10.711 -3.4568  2.9848  3.5827
  186SAPI    O421298   2.814   1.928  10.625  0.1398  0.8425  0.0776
  186SAPI   HO421299   2.841   1.838  10.604 -0.3523  0.5341  0.7170
  186SAPI   C1521300   2.611   2.026  10.716 -0.5961  0.4223  0.3220
  186SAPI    H521301   2.624   2.112  10.647  2.1889 -0.6716 -0.6608
  186SAPI    O521302   2.688   2.053  10.837  0.4080  0.0198  0.5315
  186SAPI   HO521303   2.772   2.097  10.821  3.4585 -4.0826  3.2025
  186SAPI   C1621304   2.456   2.000  10.728 -0.2966 -0.1829  0.5375
  186SAPI    H621305   2.453   1.906  10.789  0.4979 -0.8599 -0.4246
  186SAPI    O621306   2.399   2.107  10.793 -0.1763  0.2152 -0.0158
  186SAPI   HO621307   2.338   2.144  10.728 -0.1424  1.9065  0.8627
  186SAPI   C1121308   2.398   1.984  10.594  0.3922  0.1675  0.1278
  186SAPI    H121309   2.423   2.068  10.526 -1.9737 -0.4516 -1.6725
  186SAPI     P21310   2.133   2.065  10.609 -0.2616 -0.5322  0.4377
  186SAPI   O1321311   2.194   2.198  10.623 -0.5039  0.4301  0.6590
  186SAPI   O1421312   2.046   2.029  10.724 -0.0235  0.1870 -0.2874
  186SAPI   O1221313   2.257   1.957  10.588  0.2905  0.1190  0.2616
  186SAPI   O1121314   2.063   2.058  10.470 -0.6751 -0.4462  0.2993
  186SAPI    C121315   2.135   2.082  10.346 -0.4831  0.5434  0.4928
  186SAPI    HA21316   2.235   2.035  10.346 -0.4771  0.5582  0.2308
  186SAPI    HB21317   2.069   2.033  10.271  0.5716 -3.4383  1.9615
  186SAPI    C221318   2.150   2.231  10.315  0.0731 -0.8831  0.1983
  186SAPI    HS21319   2.093   2.287  10.392 -3.0920 -1.3236 -1.6329
  186SAPI   O2121320   2.081   2.260  10.194  0.2362 -0.1021 -0.2070
  186SAPI   C2121321   1.947   2.238  10.200 -0.1634  0.7075  0.7805
  186SAPI   O2221322   1.877   2.213  10.296 -0.0561 -0.0522 -0.2638
  186SAPI   C2221323   1.896   2.254  10.056 -0.3710  0.0127 -0.7920
  186SAPI   H2R21324   1.842   2.350  10.047  0.1837  0.2471 -1.6845
  186SAPI   H2S21325   1.986   2.250   9.991 -1.6588 -1.5837 -2.5937
  186SAPI    C321326   2.302   2.276  10.312  0.8417  0.8448  0.6532
  186SAPI    HX21327   2.325   2.288  10.420 -3.6476 -0.3941  1.9863
  186SAPI    HY21328   2.296   2.379  10.269 -0.8231  0.5633  0.1192
  186SAPI   O3121329   2.390   2.184  10.241  0.6831 -0.3609 -0.1137
  186SAPI   C3121330   2.468   2.234  10.146 -0.0224 -0.9329 -0.5079
  186SAPI   O3221331   2.476   2.355  10.117  0.7297 -0.1134 -0.0868
  186SAPI   C3221332   2.548   2.115  10.079  0.5983 -1.0792 -0.0998
  186SAPI   H2X21333   2.482   2.026  10.079 -0.5912 -0.2328  0.9669
  186SAPI   H2Y21334   2.644   2.114  10.135  1.7481 -0.2628 -1.9734
  186SAPI   C2321335   1.795   2.152  10.004  0.1820  0.0540  0.4139
  186SAPI   H3R21336   1.763   2.194   9.907  1.3227  0.3618  0.1539
  186SAPI   H3S21337   1.710   2.144  10.074  0.5762  0.4233  0.9407
  186SAPI   C2421338   1.849   2.008   9.979  0.3027 -0.6406 -0.2924
  186SAPI   H4R21339   1.769   1.945   9.935 -1.0188  1.3645 -0.9283
  186SAPI   H4S21340   1.879   1.970  10.080 -2.1945  2.2974  1.7404
  186SAPI   C2521341   1.975   2.003   9.895 -0.5115 -0.1706 -0.3837
  186SAPI   H5R21342   2.072   1.991   9.945  0.6813 -2.2328 -2.9508
  186SAPI   C2621343   1.980   1.974   9.762 -0.0236 -0.4571  0.0340
  186SAPI   H6R21344   2.080   1.986   9.716 -1.0895  0.6341 -2.1588
  186SAPI   C2721345   1.860   1.952   9.673 -0.1983  0.0056 -0.1790
  186SAPI   H7R21346   1.765   2.002   9.704  0.2552  1.7174 -1.3805
  186SAPI   H7S21347   1.842   1.843   9.675  1.5033 -0.3071  1.1021
  186SAPI   C2821348   1.883   1.997   9.527 -0.4098 -0.5194  0.1247
  186SAPI   H8R21349   1.828   2.088   9.502  1.1165  0.9042  1.6840
  186SAPI   C2921350   1.954   1.923   9.436  0.3936 -0.3813 -0.1265
  186SAPI   H9R21351   1.957   1.964   9.334  0.1270 -0.2849 -0.0955
  186SAPI  C21021352   2.040   1.799   9.445  0.5426  0.6329 -0.5255
  186SAPI  H10R21353   2.021   1.744   9.350  1.2341 -0.0405 -0.2817
  186SAPI  H10S21354   2.016   1.727   9.526  2.4019  0.7440  0.1588
  186SAPI  C21121355   2.187   1.832   9.453  0.1242 -0.0465  0.0552
  186SAPI  H11R21356   2.222   1.869   9.551 -0.8326  0.3347  0.2586
  186SAPI  C21221357   2.276   1.847   9.349  0.1229 -0.0741 -0.3586
  186SAPI  H12R21358   2.379   1.877   9.374 -0.8928  2.9033  0.5638
  186SAPI  C21321359   2.247   1.811   9.201 -0.0397 -0.3109 -0.3255
  186SAPI  H13R21360   2.181   1.722   9.200  1.5261 -1.5028 -0.5480
  186SAPI  H13S21361   2.347   1.782   9.163 -0.7512  2.1625 -4.7579
  186SAPI  C21421362   2.202   1.921   9.113 -0.5355  0.6655  0.2008
  186SAPI  H14R21363   2.258   2.015   9.125  1.4953 -0.4383 -0.0744
  186SAPI  C21521364   2.112   1.899   9.018 -0.4957 -0.2033 -0.7277
  186SAPI  H15R21365   2.078   1.988   8.963 -0.3476 -0.7093 -1.6522
  186SAPI  C21621366   2.048   1.775   8.982  0.6262  0.8385 -0.0365
  186SAPI  H16R21367   1.981   1.741   9.064  0.4309 -0.9359 -0.8768
  186SAPI  H16S21368   2.119   1.690   8.988 -1.1539 -0.8825 -1.7093
  186SAPI  C21721369   1.983   1.773   8.846  0.0194  0.4449 -0.1370
  186SAPI  H17R21370   1.942   1.670   8.838 -0.2972  0.4231  1.4702
  186SAPI  H17S21371   2.060   1.788   8.767 -0.6604  0.4904 -0.8079
  186SAPI  C21821372   1.860   1.865   8.824  0.3715  0.2778 -0.0605
  186SAPI  H18R21373   1.883   1.970   8.853 -1.3121  0.5458  0.3884
  186SAPI  H18S21374   1.770   1.836   8.881 -1.4385  2.6931 -1.5040
  186SAPI  C21921375   1.824   1.854   8.670  0.0600  0.2018 -0.3990
  186SAPI  H19R21376   1.916   1.881   8.614  0.3536  0.2843  0.1171
  186SAPI  H19S21377   1.754   1.936   8.643 -1.2026 -0.1517  1.5669
  186SAPI  C22021378   1.759   1.720   8.626 -0.1327 -0.2706 -0.1047
  186SAPI  H20R21379   1.833   1.639   8.607 -0.0248 -0.8681  2.4632
  186SAPI  H20S21380   1.696   1.730   8.535 -0.7862 -0.2886  0.3359
  186SAPI  H20T21381   1.690   1.678   8.703  1.3099  2.1738  2.7349
  186SAPI   C3321382   2.593   2.166   9.942  0.0357  0.9755 -0.0321
  186SAPI   H3X21383   2.654   2.087   9.892  0.9224 -0.1177  2.5960
  186SAPI   H3Y21384   2.663   2.250   9.925  1.3511 -0.3914 -1.8494
  186SAPI   C3421385   2.477   2.200   9.841  0.4712  0.6896 -0.3864
  186SAPI   H4X21386   2.413   2.278   9.889 -1.1742 -2.1200  2.3897
  186SAPI   H4Y21387   2.414   2.109   9.828 -0.3372  1.5802 -3.3996
  186SAPI   C3521388   2.513   2.240   9.699  0.2569 -0.1050  0.0868
  186SAPI   H5X21389   2.580   2.328   9.693  1.3443 -0.8256  1.0213
  186SAPI   H5Y21390   2.419   2.274   9.651 -0.1635  0.4938  1.3057
  186SAPI   C3621391   2.558   2.119   9.615 -0.5242  0.2517 -0.2378
  186SAPI   H6X21392   2.469   2.052   9.619  0.4866 -1.1261  0.1089
  186SAPI   H6Y21393   2.643   2.071   9.667  0.7445  2.0277 -0.6086
  186SAPI   C3721394   2.601   2.160   9.480 -0.7797 -0.6812  1.0143
  186SAPI   H7X21395   2.643   2.067   9.436  3.0590  1.0394  0.6837
  186SAPI   H7Y21396   2.678   2.240   9.478 -0.0251 -1.3382  2.3712
  186SAPI   C3821397   2.481   2.214   9.400  0.2598 -1.0069  0.2193
  186SAPI   H8X21398   2.450   2.309   9.447  0.3650 -0.2608 -1.1500
  186SAPI   H8Y21399   2.394   2.146   9.411 -1.4789  0.9160 -0.9504
  186SAPI   C3921400   2.509   2.245   9.253 -0.0098 -0.2740 -0.3409
  186SAPI   H9X21401   2.538   2.147   9.209  1.3089 -1.6731  3.2054
  186SAPI   H9Y21402   2.599   2.309   9.235  2.3535 -2.6757  1.8736
  186SAPI  C31021403   2.384   2.309   9.186  0.1329  0.6953 -0.4683
  186SAPI  H10X21404   2.354   2.395   9.249  1.6423  1.9984 -1.4307
  186SAPI  H10Y21405   2.302   2.235   9.196  0.6123 -0.0150 -1.5808
  186SAPI  C31121406   2.400   2.358   9.045  0.5306 -0.3649 -0.2003
  186SAPI  H11X21407   2.484   2.429   9.033 -1.0048  1.4320 -0.8227
  186SAPI  H11Y21408   2.309   2.419   9.023  0.2027 -1.3077 -1.6302
  186SAPI  C31221409   2.412   2.240   8.947 -0.5385  0.3627 -0.5478
  186SAPI  H12X21410   2.312   2.191   8.949 -0.7031  0.7041  0.5555
  186SAPI  H12Y21411   2.479   2.167   8.998 -1.7037  0.4739  1.2423
  186SAPI  C31321412   2.473   2.277   8.813  0.7223  0.0498 -0.5877
  186SAPI  H13X21413   2.536   2.191   8.779 -0.3642 -1.2744  0.6145
  186SAPI  H13Y21414   2.545   2.361   8.821  0.5103  0.2105 -0.3623
  186SAPI  C31421415   2.373   2.303   8.699  0.0311 -0.0097  0.4135
  186SAPI  H14X21416   2.308   2.392   8.713  0.5554  0.2817  1.0976
  186SAPI  H14Y21417   2.306   2.216   8.684  1.0336 -0.8560  0.7372
  186SAPI  C31521418   2.451   2.312   8.568  0.0933  0.6558 -0.5906
  186SAPI  H15X21419   2.511   2.219   8.567  0.2525  0.5306  3.8012
  186SAPI  H15Y21420   2.531   2.386   8.588  0.7986 -0.2003 -0.1929
  186SAPI  C31621421   2.356   2.316   8.447 -0.8144 -0.1424  0.1911
  186SAPI  H16X21422   2.279   2.397   8.447 -0.4351  0.2666 -1.5437
  186SAPI  H16Y21423   2.299   2.222   8.430  0.3923 -0.6995 -0.9445
  186SAPI  C31721424   2.440   2.314   8.315  0.1625  0.5231  0.0492
  186SAPI  H17X21425   2.527   2.246   8.324 -0.4413 -0.4327 -1.1101
  186SAPI  H17Y21426   2.478   2.418   8.302 -1.3553  1.1972  0.6038
  186SAPI  C31821427   2.357   2.265   8.193 -0.0102 -0.9125  0.0530
  186SAPI  H18X21428   2.337   2.156   8.202  0.1300 -1.0154 -0.7851
  186SAPI  H18Y21429   2.420   2.267   8.102 -0.4635  0.8755 -0.2559
  186SAPI  H18Z21430   2.265   2.325   8.183  0.0097 -0.4304  2.2293
  187SAPI   C1221431   6.287   1.889   5.808  0.2700  0.5503  0.1241
  187SAPI    H221432   6.209   1.821   5.848 -0.0392 -0.0416 -1.4266
  187SAPI    O221433   6.408   1.819   5.812 -0.4262  0.2670  0.0329
  187SAPI   HO221434   6.384   1.749   5.873 -2.7889  0.1028 -0.9468
  187SAPI   C1321435   6.243   1.907   5.658 -0.1046 -0.1977 -0.5258
  187SAPI    H321436   6.136   1.937   5.658 -0.2073 -0.5615 -0.6519
  187SAPI    O321437   6.249   1.784   5.591  0.1865 -0.2202  0.0370
  187SAPI   HO321438   6.341   1.756   5.594  0.7559  1.5894  1.5100
  187SAPI   C1421439   6.315   2.021   5.590  0.7129  0.1467  0.1614
  187SAPI    H421440   6.420   1.984   5.582  0.9610  0.7075  0.7193
  187SAPI    O421441   6.255   2.037   5.459  0.2662  0.1265 -0.4837
  187SAPI   HO421442   6.272   1.958   5.408  0.7771 -0.4261  0.5059
  187SAPI   C1521443   6.323   2.147   5.669 -0.5526 -0.1798 -0.7222
  187SAPI    H521444   6.222   2.186   5.694 -0.7087 -0.8098 -0.3211
  187SAPI    O521445   6.388   2.260   5.601  0.1068  0.8095 -0.7950
  187SAPI   HO521446   6.482   2.244   5.604  0.3290  2.0774  1.5732
  187SAPI   C1621447   6.379   2.120   5.816  0.3243 -0.0597 -0.1921
  187SAPI    H621448   6.486   2.094   5.802 -0.2891 -2.4119 -0.8834
  187SAPI    O621449   6.387   2.237   5.899  0.0933 -0.3543 -0.0145
  187SAPI   HO621450   6.449   2.226   5.972  1.8744  0.3474 -1.3433
  187SAPI   C1121451   6.288   2.016   5.882  0.3674  0.3959 -0.3490
  187SAPI    H121452   6.182   2.048   5.870  0.1802  0.1391  0.5145
  187SAPI     P21453   6.217   2.038   6.144 -0.0427 -0.3553 -0.0028
  187SAPI   O1321454   6.085   2.051   6.080  0.1613 -0.8332  0.2791
  187SAPI   O1421455   6.275   2.155   6.207 -0.5513  0.2027 -0.1051
  187SAPI   O1221456   6.322   1.981   6.020 -0.0033 -0.5921 -0.2708
  187SAPI   O1121457   6.208   1.910   6.246 -0.1052  0.2485  0.3083
  187SAPI    C121458   6.328   1.896   6.327 -0.5765  0.2527  0.1543
  187SAPI    HA21459   6.363   1.791   6.318 -0.0273  0.5768 -2.8464
  187SAPI    HB21460   6.413   1.961   6.296 -0.9156  0.5290 -0.2009
  187SAPI    C221461   6.287   1.917   6.474 -1.0926 -0.2512 -0.1934
  187SAPI    HS21462   6.270   2.024   6.498  0.1112 -0.1700  0.3742
  187SAPI   O2121463   6.388   1.869   6.563 -0.4202 -0.2576  0.3798
  187SAPI   C2121464   6.479   1.950   6.615  0.9522  0.4986 -0.1961
  187SAPI   O2221465   6.493   2.069   6.594 -0.0841 -0.3080 -0.0193
  187SAPI   C2221466   6.544   1.869   6.726  1.0448 -0.1321 -0.8586
  187SAPI   H2R21467   6.462   1.858   6.801  1.2912 -1.9168 -0.7982
  187SAPI   H2S21468   6.572   1.767   6.691 -1.3360 -2.0428  2.2196
  187SAPI    C321469   6.157   1.843   6.502  0.5234  0.1421 -0.2603
  187SAPI    HX21470   6.172   1.737   6.472 -0.0754 -0.0162 -0.0115
  187SAPI    HY21471   6.073   1.878   6.440  1.1424  0.8019 -0.7434
  187SAPI   O3121472   6.131   1.854   6.643  0.2839  0.1602 -0.0954
  187SAPI   C3121473   6.019   1.911   6.680 -0.6014 -0.3794 -0.5022
  187SAPI   O3221474   5.934   1.964   6.614 -0.0636  0.2056 -0.2597
  187SAPI   C3221475   6.032   1.930   6.831 -0.1863 -0.3245 -0.0446
  187SAPI   H2X21476   6.022   2.037   6.857  0.5526 -0.0698 -0.7430
  187SAPI   H2Y21477   6.136   1.911   6.865  0.1370  1.3280 -0.0476
  187SAPI   C2321478   6.674   1.939   6.785 -0.0838 -0.2294 -0.2695
  187SAPI   H3R21479   6.670   2.045   6.754 -0.7010 -0.4333 -0.9180
  187SAPI   H3S21480   6.758   1.907   6.721  1.6224  0.7634  1.3801
  187SAPI   C2421481   6.710   1.930   6.932 -0.3336 -0.5281 -0.3406
  187SAPI   H4R21482   6.818   1.954   6.927 -0.4632  1.1836  2.7204
  187SAPI   H4S21483   6.705   1.827   6.972  0.9791 -0.2135  0.6858
  187SAPI   C2521484   6.647   2.031   7.026  0.3842 -0.2774 -0.5515
  187SAPI   H5R21485   6.562   2.090   6.987  1.2005  1.3936  0.0794
  187SAPI   C2621486   6.679   2.050   7.159 -0.5262 -0.0960  0.4198
  187SAPI   H6R21487   6.614   2.120   7.214  0.4888  1.2225 -0.0086
  187SAPI   C2721488   6.787   1.982   7.238  0.4520  0.5412  0.0254
  187SAPI   H7R21489   6.841   1.918   7.166  1.5121 -0.6287  1.7969
  187SAPI   H7S21490   6.730   1.910   7.300  0.8869 -0.3004 -0.5486
  187SAPI   C2821491   6.863   2.073   7.330  0.0087 -0.3557 -0.4813
  187SAPI   H8R21492   6.938   2.137   7.281  0.6137 -0.6787 -0.0030
  187SAPI   C2921493   6.846   2.086   7.464  0.1335 -0.3177  0.2851
  187SAPI   H9R21494   6.914   2.148   7.523 -0.0381 -0.1389  0.2984
  187SAPI  C21021495   6.755   1.996   7.545 -0.5592 -0.1005 -0.2558
  187SAPI  H10R21496   6.671   1.966   7.479  2.1785  0.2357 -4.2440
  187SAPI  H10S21497   6.716   2.054   7.631 -0.0238 -0.0863 -0.0176
  187SAPI  C21121498   6.837   1.874   7.579 -0.2786 -0.4167  0.5490
  187SAPI  H11R21499   6.893   1.833   7.494 -1.8673  1.6510 -1.6432
  187SAPI  C21221500   6.832   1.805   7.694 -0.6376  0.2630  0.4881
  187SAPI  H12R21501   6.890   1.711   7.691 -1.9018 -0.5186 -1.3109
  187SAPI  C21321502   6.738   1.834   7.808 -0.0369 -0.0329 -0.2561
  187SAPI  H13R21503   6.691   1.934   7.814  1.0741  0.5049 -0.3501
  187SAPI  H13S21504   6.798   1.826   7.901 -0.1207  2.3444  0.0629
  187SAPI  C21421505   6.622   1.739   7.801 -0.2020 -0.3529  0.3468
  187SAPI  H14R21506   6.561   1.774   7.717  2.0430  0.6423 -0.9786
  187SAPI  C21521507   6.596   1.630   7.869  0.4194  0.0335 -0.2313
  187SAPI  H15R21508   6.504   1.581   7.834  0.3716 -1.4214  1.7898
  187SAPI  C21621509   6.674   1.574   7.982  0.4513 -0.1149 -0.5476
  187SAPI  H16R21510   6.783   1.595   7.972  0.4920  0.5240  0.8857
  187SAPI  H16S21511   6.651   1.466   7.993 -0.4147  0.0594 -0.5669
  187SAPI  C21721512   6.628   1.631   8.113  0.3839  0.3563 -0.5449
  187SAPI  H17R21513   6.521   1.615   8.136  0.9610 -0.2024  2.0674
  187SAPI  H17S21514   6.652   1.740   8.123  2.7899 -0.2743  1.8142
  187SAPI  C21821515   6.709   1.582   8.234  0.1532 -0.3826 -0.2593
  187SAPI  H18R21516   6.688   1.660   8.310  0.6312  0.1037 -0.6212
  187SAPI  H18S21517   6.814   1.579   8.197 -0.2479 -0.3470 -1.4061
  187SAPI  C21921518   6.686   1.443   8.295 -0.4563 -0.5438  0.1848
  187SAPI  H19R21519   6.755   1.424   8.380  0.2002  0.0460 -0.2088
  187SAPI  H19S21520   6.712   1.370   8.215 -1.0926 -0.2730 -0.2822
  187SAPI  C22021521   6.541   1.427   8.349  0.1377  0.3045 -0.4148
  187SAPI  H20R21522   6.523   1.328   8.396  2.3692  0.3139  0.5857
  187SAPI  H20S21523   6.482   1.436   8.255  0.0210  2.2599 -0.1958
  187SAPI  H20T21524   6.522   1.515   8.414 -0.0165 -0.2276  0.2717
  187SAPI   C3321525   5.917   1.849   6.901  0.3363  0.8087 -0.3558
  187SAPI   H3X21526   5.924   1.750   6.851 -0.5873  1.3649 -1.6510
  187SAPI   H3Y21527   5.818   1.894   6.877 -0.5214 -1.0559 -0.5546
  187SAPI   C3421528   5.959   1.833   7.050 -0.2173  1.2412 -0.4802
  187SAPI   H4X21529   6.063   1.797   7.055 -0.3605  0.5894 -1.7394
  187SAPI   H4Y21530   5.888   1.756   7.087  1.5133 -0.2970 -0.2507
  187SAPI   C3521531   5.940   1.955   7.137 -0.2055  0.4397  0.1467
  187SAPI   H5X21532   5.853   2.011   7.095 -0.3406  0.2406  0.1585
  187SAPI   H5Y21533   6.037   2.007   7.130 -0.4435  1.0618  1.2273
  187SAPI   C3621534   5.903   1.925   7.274  0.4237 -0.2095 -0.1415
  187SAPI   H6X21535   5.956   1.834   7.309  0.2674 -1.2113 -2.3155
  187SAPI   H6Y21536   5.798   1.889   7.278  0.4224 -0.4140 -1.5383
  187SAPI   C3721537   5.933   2.019   7.383  0.4385 -0.1009 -0.6704
  187SAPI   H7X21538   5.872   2.112   7.380  0.0795 -0.3553 -1.3566
  187SAPI   H7Y21539   6.039   2.052   7.386 -0.1720  1.9947  1.2299
  187SAPI   C3821540   5.909   1.966   7.521  0.1887  0.2863 -0.2431
  187SAPI   H8X21541   5.964   1.870   7.529 -0.5061 -0.0845  0.1649
  187SAPI   H8Y21542   5.801   1.948   7.538  0.3840  0.8769  1.9558
  187SAPI   C3921543   5.957   2.050   7.636 -0.3805 -0.2657  0.1120
  187SAPI   H9X21544   5.922   2.156   7.636  1.7980  0.5047  0.9500
  187SAPI   H9Y21545   6.067   2.049   7.653 -0.3152 -1.3640 -0.3022
  187SAPI  C31021546   5.904   1.983   7.770 -0.0171  0.1187 -0.7203
  187SAPI  H10X21547   5.920   1.874   7.755  0.3369  0.2892 -1.6435
  187SAPI  H10Y21548   5.793   1.994   7.765  0.0544  1.0994 -0.1947
  187SAPI  C31121549   5.959   2.057   7.891  0.0647  0.1988 -0.1253
  187SAPI  H11X21550   5.923   2.158   7.862 -0.7248 -1.0940 -4.2005
  187SAPI  H11Y21551   6.069   2.059   7.910 -0.1561 -2.2517  1.9702
  187SAPI  C31221552   5.888   2.047   8.031 -0.1756 -0.0270  0.6182
  187SAPI  H12X21553   5.783   2.069   8.002  0.4308  2.8090  0.3328
  187SAPI  H12Y21554   5.925   2.122   8.104 -3.4231 -1.3870  3.9776
  187SAPI  C31321555   5.922   1.921   8.095  0.8073  0.6394 -0.8876
  187SAPI  H13X21556   6.033   1.915   8.099  0.7088 -1.1791  0.4278
  187SAPI  H13Y21557   5.890   1.833   8.035 -0.3099  1.5483 -1.6759
  187SAPI  C31421558   5.877   1.908   8.244  0.5183 -0.1017  0.5202
  187SAPI  H14X21559   5.766   1.903   8.242  0.5280 -0.4165  0.6256
  187SAPI  H14Y21560   5.908   1.999   8.300  0.0177 -0.0580  0.7339
  187SAPI  C31521561   5.941   1.785   8.319  0.2324  0.0212  0.6157
  187SAPI  H15X21562   5.925   1.699   8.250 -0.4000  0.2652  0.4554
  187SAPI  H15Y21563   5.883   1.766   8.412 -2.5251 -0.3358 -1.0747
  187SAPI  C31621564   6.091   1.792   8.353 -0.6702  0.1302 -0.4398
  187SAPI  H16X21565   6.111   1.881   8.416 -0.6907  0.1862 -0.5133
  187SAPI  H16Y21566   6.147   1.808   8.258 -1.1064  0.6188 -0.6133
  187SAPI  C31721567   6.142   1.665   8.424 -0.3182 -0.4652 -0.1505
  187SAPI  H17X21568   6.113   1.567   8.381 -0.8689 -0.3401 -0.0747
  187SAPI  H17Y21569   6.107   1.662   8.529  2.0148  0.8740  0.7236
  187SAPI  C31821570   6.294   1.685   8.435 -0.0333  1.0042 -0.0073
  187SAPI  H18X21571   6.344   1.666   8.337 -0.0839 -1.2535  0.3571
  187SAPI  H18Y21572   6.327   1.598   8.495  1.3539  0.2424 -1.7757
  187SAPI  H18Z21573   6.327   1.781   8.481  1.9927 -0.9643  2.9574
  188SAPI   C1221574   0.538   5.882   6.302 -1.0239  0.3350 -0.2978
  188SAPI    H221575   0.522   5.933   6.205  1.4847  0.6105 -0.6340
  188SAPI    O221576   0.420   5.825   6.354  0.7075  0.6191  0.0258
  188SAPI   HO221577   0.371   5.897   6.394  1.7723  0.8252  1.0288
  188SAPI   C1321578   0.637   5.771   6.265  0.0147  0.4676  0.2831
  188SAPI    H321579   0.733   5.812   6.227 -0.3362 -0.7968 -2.1660
  188SAPI    O321580   0.586   5.680   6.167 -0.4244 -0.2937  0.1237
  188SAPI   HO321581   0.641   5.684   6.089  0.3705  0.1176  0.6952
  188SAPI   C1421582   0.671   5.700   6.397 -0.3530  0.5576  0.6816
  188SAPI    H421583   0.579   5.655   6.440  0.3921 -1.6974  0.0427
  188SAPI    O421584   0.755   5.586   6.375  0.8372  0.1969  1.2010
  188SAPI   HO421585   0.779   5.553   6.462 -1.3642  0.5536  2.0079
  188SAPI   C1521586   0.723   5.797   6.503  0.4930  0.1670 -0.6944
  188SAPI    H521587   0.825   5.828   6.469  1.3558 -0.4227  1.2019
  188SAPI    O521588   0.742   5.723   6.628  0.8486  0.2539 -0.5733
  188SAPI   HO521589   0.830   5.687   6.618  1.5403  1.6894  0.0100
  188SAPI   C1621590   0.637   5.915   6.529 -0.1533  0.4585  0.0506
  188SAPI    H621591   0.547   5.875   6.580  0.5376  1.3420  2.0465
  188SAPI    O621592   0.696   6.011   6.623 -0.6077  0.6505  0.0227
  188SAPI   HO621593   0.748   6.069   6.568 -1.4793  1.0136 -0.4475
  188SAPI   C1121594   0.605   5.979   6.398  0.3856  0.3828 -0.6109
  188SAPI    H121595   0.703   5.995   6.347 -0.1589 -2.9440 -3.0095
  188SAPI     P21596   0.574   6.245   6.401 -0.1064 -0.2073  0.0144
  188SAPI   O1321597   0.453   6.328   6.373  0.1023 -0.0803  0.2803
  188SAPI   O1421598   0.678   6.261   6.296  0.2989  0.4614 -0.2605
  188SAPI   O1221599   0.525   6.095   6.402  0.2691  0.0473  0.3032
  188SAPI   O1121600   0.625   6.280   6.549 -0.5230 -0.3712 -0.8365
  188SAPI    C121601   0.658   6.423   6.569  0.3122  0.4532 -0.2317
  188SAPI    HA21602   0.758   6.437   6.523  0.2013  0.4465 -0.4752
  188SAPI    HB21603   0.581   6.491   6.527 -0.9808 -1.1190 -0.4890
  188SAPI    C221604   0.686   6.460   6.720 -0.4995  0.6269  0.3585
  188SAPI    HS21605   0.744   6.554   6.728 -1.3062  1.3523 -1.6384
  188SAPI   O2121606   0.751   6.356   6.798  0.2512 -0.3849 -0.4491
  188SAPI   C2121607   0.865   6.313   6.764  0.0383  0.3143 -0.1547
  188SAPI   O2221608   0.928   6.343   6.656 -0.1333 -0.2020 -0.2483
  188SAPI   C2221609   0.914   6.223   6.876  0.6050 -0.2619  0.0984
  188SAPI   H2R21610   0.844   6.136   6.876  1.6036 -1.0867  0.9722
  188SAPI   H2S21611   1.015   6.191   6.842  0.1933  0.0503 -1.5340
  188SAPI    C321612   0.554   6.506   6.791 -0.8246 -0.3127  0.9297
  188SAPI    HX21613   0.482   6.422   6.797 -2.2321  0.5575 -1.7840
  188SAPI    HY21614   0.507   6.580   6.722 -0.8501 -0.7719  0.4476
  188SAPI   O3121615   0.583   6.550   6.920 -0.2934 -0.0813  0.1672
  188SAPI   C3121616   0.601   6.676   6.926 -0.1986  0.2896 -0.1057
  188SAPI   O3221617   0.606   6.757   6.831  0.0515  0.3451  0.0560
  188SAPI   C3221618   0.625   6.716   7.071  0.4102  0.0291 -0.2664
  188SAPI   H2X21619   0.540   6.776   7.109  0.9047 -0.1130  1.1579
  188SAPI   H2Y21620   0.715   6.781   7.081  0.3608 -0.1649  2.0085
  188SAPI   C2321621   0.914   6.291   7.013 -0.6671  0.0683  0.4869
  188SAPI   H3R21622   0.811   6.305   7.053 -0.0753  0.1871  2.0475
  188SAPI   H3S21623   0.959   6.391   6.994 -2.9004  0.8654 -0.9520
  188SAPI   C2421624   1.001   6.202   7.109 -0.2422  0.1702 -0.4400
  188SAPI   H4R21625   1.091   6.160   7.059  1.1552  2.2406  0.1969
  188SAPI   H4S21626   0.940   6.113   7.134  1.2883 -0.9789 -0.6400
  188SAPI   C2521627   1.062   6.273   7.228 -0.0371 -1.0807  0.2002
  188SAPI   H5R21628   1.145   6.339   7.201  0.6695 -2.2196 -0.4805
  188SAPI   C2621629   1.029   6.253   7.357 -0.6938 -0.0987 -0.0227
  188SAPI   H6R21630   1.072   6.319   7.435  1.0930  1.3768 -2.1300
  188SAPI   C2721631   0.935   6.150   7.403  0.9079 -0.1932  0.0831
  188SAPI   H7R21632   0.957   6.049   7.363 -1.5461  0.1421 -2.4043
  188SAPI   H7S21633   0.830   6.175   7.377 -0.0145 -0.7866  2.9057
  188SAPI   C2821634   0.935   6.135   7.551  0.0819  0.1518 -0.0216
  188SAPI   H8R21635   0.888   6.218   7.606  1.6956 -0.2547  2.1382
  188SAPI   C2921636   0.982   6.037   7.625  0.1529  0.1922 -0.1244
  188SAPI   H9R21637   0.976   6.052   7.734  0.7478  0.1129 -0.0800
  188SAPI  C21021638   1.064   5.916   7.594 -0.1585 -0.1564 -0.0558
  188SAPI  H10R21639   1.040   5.869   7.496  2.5871 -2.7954  0.3695
  188SAPI  H10S21640   1.040   5.837   7.668  0.8950 -1.0711 -0.6480
  188SAPI  C21121641   1.208   5.952   7.592  0.1118  0.1423  0.3230
  188SAPI  H11R21642   1.237   6.038   7.530  0.7395 -0.6766 -0.5429
  188SAPI  C21221643   1.305   5.882   7.643  0.1035  0.4053  0.4581
  188SAPI  H12R21644   1.406   5.917   7.617 -0.1643  1.0798  0.3135
  188SAPI  C21321645   1.303   5.749   7.726  0.3233  1.0005 -0.8693
  188SAPI  H13R21646   1.201   5.721   7.761  0.3447 -2.5722 -3.1348
  188SAPI  H13S21647   1.371   5.752   7.814  1.9785  2.9119 -2.1154
  188SAPI  C21421648   1.346   5.637   7.629 -0.8943 -0.9186  0.1607
  188SAPI  H14R21649   1.334   5.665   7.524 -1.2363  0.2001  0.4827
  188SAPI  C21521650   1.395   5.517   7.653 -0.0828 -0.4360  0.3010
  188SAPI  H15R21651   1.425   5.455   7.568  0.3125  0.5003 -0.2617
  188SAPI  C21621652   1.421   5.456   7.787 -0.3242  0.7457 -0.4307
  188SAPI  H16R21653   1.458   5.535   7.856  0.0131 -0.4443  0.7922
  188SAPI  H16S21654   1.503   5.381   7.784  0.6687  1.7709 -0.0254
  188SAPI  C21721655   1.293   5.392   7.849 -0.1063  0.8178 -0.5665
  188SAPI  H17R21656   1.201   5.445   7.817 -0.0915  1.2415  0.0961
  188SAPI  H17S21657   1.303   5.390   7.959 -0.7314  0.3592 -0.5097
  188SAPI  C21821658   1.278   5.239   7.806  0.2548  0.3158  0.4738
  188SAPI  H18R21659   1.332   5.168   7.872 -0.4183  0.2743  0.9975
  188SAPI  H18S21660   1.311   5.220   7.702 -1.1828 -0.2004  0.0815
  188SAPI  C21921661   1.142   5.174   7.823 -0.1149 -1.0807  0.1835
  188SAPI  H19R21662   1.154   5.067   7.796  1.7745 -1.0826  0.8690
  188SAPI  H19S21663   1.059   5.226   7.770  0.4658 -0.7863 -0.4540
  188SAPI  C22021664   1.109   5.178   7.974 -0.1479 -0.1327  0.6516
  188SAPI  H20R21665   1.056   5.267   8.013 -1.8784 -0.6616 -0.4077
  188SAPI  H20S21666   1.189   5.136   8.040  0.5075 -0.7051 -0.4720
  188SAPI  H20T21667   1.033   5.098   7.980  2.0464 -2.3302  0.6013
  188SAPI   C3321668   0.630   6.602   7.168  0.1567 -0.1605  0.3653
  188SAPI   H3X21669   0.721   6.540   7.153 -0.0188 -0.1309 -0.8957
  188SAPI   H3Y21670   0.545   6.535   7.142  0.3733 -0.8368  1.3164
  188SAPI   C3421671   0.623   6.648   7.318 -0.3495 -0.5566  0.2141
  188SAPI   H4X21672   0.521   6.693   7.315 -0.1347 -0.0006  0.8191
  188SAPI   H4Y21673   0.702   6.722   7.345 -2.4235  1.3244  1.5652
  188SAPI   C3521674   0.643   6.526   7.405  0.8012 -0.7326 -0.3147
  188SAPI   H5X21675   0.729   6.460   7.384  0.8580 -0.1031 -2.2847
  188SAPI   H5Y21676   0.553   6.463   7.388 -0.0783  0.4551 -0.2187
  188SAPI   C3621677   0.659   6.565   7.550 -0.4867  0.6228 -0.4863
  188SAPI   H6X21678   0.575   6.634   7.574 -0.8014 -0.0731  0.4891
  188SAPI   H6Y21679   0.748   6.629   7.570 -2.5024  3.0656  1.4146
  188SAPI   C3721680   0.659   6.443   7.642 -0.5482 -0.4452  0.2419
  188SAPI   H7X21681   0.738   6.372   7.612 -0.3009  0.0420 -0.2880
  188SAPI   H7Y21682   0.564   6.388   7.625 -1.7485  1.4448  0.4403
  188SAPI   C3821683   0.671   6.477   7.797  0.0638 -0.1291  0.0275
  188SAPI   H8X21684   0.606   6.565   7.816 -1.9431 -0.9864 -2.3889
  188SAPI   H8Y21685   0.777   6.497   7.823  0.1193 -1.2279  0.7104
  188SAPI   C3921686   0.618   6.362   7.885 -0.6946  0.1144 -0.2516
  188SAPI   H9X21687   0.529   6.321   7.834  0.4836 -1.3774 -1.1988
  188SAPI   H9Y21688   0.601   6.406   7.985  1.1651  0.7055 -0.1548
  188SAPI  C31021689   0.730   6.258   7.918  0.5924  0.0452 -0.8887
  188SAPI  H10X21690   0.788   6.227   7.828  1.0639  0.1059 -0.6089
  188SAPI  H10Y21691   0.681   6.160   7.934  0.2501  0.4820  1.0207
  188SAPI  C31121692   0.813   6.275   8.050 -0.2369 -0.7910 -0.2191
  188SAPI  H11X21693   0.729   6.283   8.122  1.7418 -1.6980  2.3496
  188SAPI  H11Y21694   0.871   6.368   8.028  0.6706 -1.8547 -2.7703
  188SAPI  C31221695   0.905   6.160   8.083 -0.5826 -0.2112  0.8834
  188SAPI  H12X21696   0.981   6.152   8.003 -2.3435  2.6133 -1.2424
  188SAPI  H12Y21697   0.844   6.067   8.071 -3.0743  1.6857 -3.3504
  188SAPI  C31321698   0.965   6.170   8.225 -0.2655  0.7606  0.1509
  188SAPI  H13X21699   0.885   6.161   8.301 -0.1391  1.5649  0.3916
  188SAPI  H13Y21700   1.013   6.265   8.258  2.1721 -0.4334  0.1932
  188SAPI  C31421701   1.072   6.070   8.257  0.0767  0.4213  0.6490
  188SAPI  H14X21702   1.032   5.966   8.262  1.0388 -0.0049 -0.0126
  188SAPI  H14Y21703   1.122   6.095   8.353  0.8285  1.9744 -0.0979
  188SAPI  C31521704   1.184   6.069   8.150 -0.3774  0.4979 -0.6319
  188SAPI  H15X21705   1.228   6.168   8.125  2.7228 -0.4649  0.5236
  188SAPI  H15Y21706   1.133   6.030   8.060 -0.4217 -0.3502 -0.2442
  188SAPI  C31621707   1.296   5.965   8.189 -0.4732 -0.3019  0.0542
  188SAPI  H16X21708   1.257   5.897   8.268 -1.9295 -1.3695 -1.5115
  188SAPI  H16Y21709   1.383   6.021   8.230  0.9227 -3.5980  2.0597
  188SAPI  C31721710   1.348   5.881   8.066 -0.1604  0.5052 -0.2940
  188SAPI  H17X21711   1.363   5.945   7.977  0.3042 -1.5210 -1.7285
  188SAPI  H17Y21712   1.269   5.811   8.031  0.0692 -0.0369  0.2518
  188SAPI  C31821713   1.486   5.808   8.094  0.3249  0.2203 -0.2634
  188SAPI  H18X21714   1.472   5.739   8.180 -1.3834  1.4898  0.5261
  188SAPI  H18Y21715   1.559   5.892   8.097  0.3375  0.5068 -4.2156
  188SAPI  H18Z21716   1.513   5.739   8.011 -0.7845 -1.2233  0.5328
  189POPC     N21717   0.544   0.165  10.636 -0.4957 -0.0645 -0.2773
  189POPC   C1221718   0.530   0.034  10.557  0.2919 -0.0123 -0.5974
  189POPC  H12A21719   0.480   0.067  10.467 -3.7085  0.1548  1.4156
  189POPC  H12B21720   0.455  -0.025  10.608 -0.2256  0.1333 -1.1729
  189POPC   C1321721   0.614   0.264  10.562  0.7620 -0.1510 -0.3229
  189POPC  H13A21722   0.716   0.232  10.549  0.5080 -2.1437  1.9412
  189POPC  H13B21723   0.583   0.298  10.464 -1.3135 -1.2086 -0.0852
  189POPC  H13C21724   0.620   0.355  10.621  0.5752 -1.3168  1.5841
  189POPC   C1421725   0.408   0.213  10.685  0.3876 -0.3370 -0.5019
  189POPC  H14A21726   0.342   0.226  10.601  1.8210 -1.0654 -1.7973
  189POPC  H14B21727   0.357   0.143  10.750  2.3064 -1.3768 -0.0200
  189POPC  H14C21728   0.414   0.301  10.747 -1.5937 -0.6061  0.1351
  189POPC   C1521729   0.624   0.142  10.764 -0.3084 -0.1896  0.4776
  189POPC  H15A21730   0.675   0.232  10.797  1.5145 -1.7080  2.1343
  189POPC  H15B21731   0.706   0.075  10.741  1.9315  2.0278  1.4266
  189POPC  H15C21732   0.563   0.096  10.840 -1.2479 -2.1525 -1.3740
  189POPC   C1121733   0.655  -0.057  10.522  0.0227  0.2806 -0.0521
  189POPC  H11A21734   0.727   0.002  10.461  1.2849 -0.9598  0.1892
  189POPC  H11B21735   0.632  -0.142  10.456  0.3926 -0.2442  0.4825
  189POPC     P21736   0.648  -0.212  10.736  0.2008  0.0256 -0.1333
  189POPC   O1321737   0.608  -0.146  10.864  0.0284  0.0980  0.0893
  189POPC   O1421738   0.734  -0.332  10.755 -0.5745  0.1558 -0.6771
  189POPC   O1221739   0.721  -0.106  10.637 -0.2163  0.0668 -0.6177
  189POPC   O1121740   0.520  -0.262  10.659  0.3083 -0.2654  0.4032
  189POPC    C121741   0.473  -0.394  10.657  0.0962 -0.1499 -0.2383
  189POPC    HA21742   0.362  -0.392  10.643  0.0941 -0.9407 -0.3721
  189POPC    HB21743   0.499  -0.447  10.752 -0.7336  1.3175  0.8565
  189POPC    C221744   0.535  -0.483  10.546  0.6270  0.5835 -0.7998
  189POPC    HS21745   0.644  -0.475  10.562  1.0188  2.6528 -3.7514
  189POPC   O2121746   0.491  -0.428  10.422 -0.1072 -0.3980 -0.9350
  189POPC   C2121747   0.565  -0.464  10.318 -0.6880  0.1303  1.3922
  189POPC   O2221748   0.661  -0.538  10.326 -0.0345 -0.9794 -0.7211
  189POPC   C2221749   0.486  -0.422  10.188 -0.4419  0.3904 -0.5518
  189POPC   H2R21750   0.467  -0.313  10.202 -1.7510 -0.1994  3.8061
  189POPC   H2S21751   0.395  -0.484  10.200 -0.0755  0.0179  0.3979
  189POPC    C321752   0.489  -0.622  10.583  0.0109  0.4357  0.9634
  189POPC    HX21753   0.393  -0.616  10.638 -0.6018 -2.7838  0.4653
  189POPC    HY21754   0.561  -0.652  10.663  1.4584  0.2952 -0.3361
  189POPC   O3121755   0.479  -0.725  10.481  0.3312  0.2085 -0.2167
  189POPC   C3121756   0.574  -0.816  10.468 -0.1164  1.0648  0.0101
  189POPC   O3221757   0.664  -0.835  10.544 -0.5915 -0.3701  0.2630
  189POPC   C3221758   0.545  -0.902  10.349 -0.0534 -0.1706  0.1865
  189POPC   H2X21759   0.468  -0.979  10.369 -1.9127  1.2268 -1.2820
  189POPC   H2Y21760   0.638  -0.950  10.312  1.0130  2.2661 -0.5386
  189POPC   C2321761   0.561  -0.449  10.054 -0.2251 -1.4712  0.4742
  189POPC   H3R21762   0.603  -0.553  10.056 -0.3978 -1.6619 -2.2321
  189POPC   H3S21763   0.647  -0.378  10.054  1.9163 -3.8651  1.1637
  189POPC   C2421764   0.472  -0.408   9.930  0.0640 -0.0836 -1.1512
  189POPC   H4R21765   0.445  -0.301   9.938  2.2575  0.3714  2.0029
  189POPC   H4S21766   0.373  -0.458   9.935 -0.3301  0.6088 -1.8819
  189POPC   C2521767   0.548  -0.437   9.794 -0.3350  1.0642 -0.7543
  189POPC   H5R21768   0.491  -0.425   9.700 -0.9315 -2.0774 -0.8850
  189POPC   H5S21769   0.583  -0.542   9.790  0.0179  1.0119  1.8014
  189POPC   C2621770   0.674  -0.352   9.775 -0.0485  0.0131 -0.3202
  189POPC   H6R21771   0.735  -0.374   9.865  0.2223  0.3316 -0.4206
  189POPC   H6S21772   0.630  -0.249   9.779  0.2104  0.0892  2.2606
  189POPC   C2721773   0.751  -0.389   9.651  0.1946  0.0621  0.2515
  189POPC   H7R21774   0.706  -0.347   9.559 -0.6972 -0.6364  0.3617
  189POPC   H7S21775   0.749  -0.499   9.642 -0.3783  0.2402 -2.5959
  189POPC   C2821776   0.904  -0.350   9.655  0.1366  0.0776 -0.9626
  189POPC   H8R21777   0.954  -0.387   9.563  2.0858 -0.8818  0.4111
  189POPC   H8S21778   0.964  -0.402   9.733 -0.0530  0.0426 -0.8385
  189POPC   C2921779   0.926  -0.204   9.670  0.5138 -0.6537  0.0948
  189POPC   H9121780   0.905  -0.167   9.771 -2.2379  0.8012 -0.8920
  189POPC  C21021781   0.961  -0.117   9.575  0.8780 -0.5537  0.4425
  189POPC  H10121782   0.963  -0.009   9.594  0.3676 -0.0721 -1.9036
  189POPC  C21121783   0.984  -0.155   9.423 -0.4265  0.1283 -0.0758
  189POPC  H11R21784   0.987  -0.266   9.416  0.0446  0.1163  0.3169
  189POPC  H11S21785   1.086  -0.119   9.401 -0.0616  1.1582  2.8971
  189POPC  C21221786   0.889  -0.106   9.315  0.4953 -0.1925 -0.0344
  189POPC  H12R21787   0.887   0.004   9.328  2.2454 -0.0456 -0.7449
  189POPC  H12S21788   0.790  -0.149   9.339  1.3548 -2.0547  0.4076
  189POPC  C21321789   0.919  -0.163   9.183 -0.3350 -0.4826  1.1092
  189POPC  H13R21790   0.837  -0.141   9.111  0.4570 -0.5158  0.1743
  189POPC  H13S21791   0.924  -0.273   9.197 -1.3991 -0.5483  1.0606
  189POPC  C21421792   1.044  -0.108   9.127 -0.4637 -0.3782  0.9090
  189POPC  H14R21793   1.123  -0.134   9.200 -0.2904 -0.1647  0.7973
  189POPC  H14S21794   1.029   0.002   9.120  1.0227 -0.2156 -0.3143
  189POPC  C21521795   1.076  -0.157   8.979  0.7085  0.3343 -0.7711
  189POPC  H15R21796   1.084  -0.268   8.978  2.3247  0.3347  1.9469
  189POPC  H15S21797   1.178  -0.117   8.963  1.5651 -2.0024 -1.6528
  189POPC  C21621798   0.973  -0.121   8.880 -0.0003  0.0821  0.2648
  189POPC  H16R21799   0.971  -0.010   8.880 -1.3989  0.0724  0.3631
  189POPC  H16S21800   0.871  -0.158   8.902  0.4448  0.3470  3.1443
  189POPC  C21721801   0.983  -0.161   8.736  0.5487 -0.6817  0.6216
  189POPC  H17R21802   0.906  -0.107   8.678  2.5627  0.4456 -1.1720
  189POPC  H17S21803   0.968  -0.270   8.718 -2.2929 -0.1034 -0.9751
  189POPC  C21821804   1.118  -0.113   8.666 -0.1826  0.9994  0.4826
  189POPC  H18R21805   1.107  -0.147   8.561  0.2318 -2.1076  1.3190
  189POPC  H18S21806   1.201  -0.161   8.722 -1.0381 -1.6852 -0.3659
  189POPC  H18T21807   1.123  -0.002   8.669  1.5924  1.1733 -3.3192
  189POPC   C3321808   0.484  -0.819  10.230 -0.7644 -0.1324  0.1089
  189POPC   H3X21809   0.564  -0.742  10.222 -0.3379 -0.5039  0.7246
  189POPC   H3Y21810   0.391  -0.767  10.262 -0.6914 -0.1778  0.3968
  189POPC   C3421811   0.463  -0.907  10.100  0.2851 -0.1880  0.2830
  189POPC   H4X21812   0.368  -0.965  10.104  0.9331 -1.2989 -0.1027
  189POPC   H4Y21813   0.548  -0.978  10.101  1.2443  0.8213 -2.0532
  189POPC   C3521814   0.473  -0.818   9.974  0.0659 -0.2126 -0.2062
  189POPC   H5X21815   0.563  -0.754   9.977 -0.1695  0.3143 -2.7007
  189POPC   H5Y21816   0.385  -0.750   9.977  0.1093 -0.0517 -1.7924
  189POPC   C3621817   0.467  -0.887   9.837  0.6431  0.4224 -0.0865
  189POPC   H6X21818   0.375  -0.949   9.834  1.2291 -0.4210 -1.7636
  189POPC   H6Y21819   0.545  -0.966   9.844  2.1779  1.9576  1.6922
  189POPC   C3721820   0.487  -0.795   9.714  0.1231  0.1579 -0.1016
  189POPC   H7X21821   0.593  -0.763   9.711 -0.0406  1.0578  1.9167
  189POPC   H7Y21822   0.420  -0.707   9.719 -1.5840 -0.9010 -2.4056
  189POPC   C3821823   0.455  -0.867   9.581  0.5767  0.6967  0.0445
  189POPC   H8X21824   0.353  -0.910   9.593  0.3412  1.4711  0.9654
  189POPC   H8Y21825   0.515  -0.960   9.568 -1.3199 -0.9382  2.2310
  189POPC   C3921826   0.468  -0.785   9.460 -0.2531  0.2257  0.3190
  189POPC   H9X21827   0.456  -0.844   9.367  1.3852  2.0085 -1.1285
  189POPC   H9Y21828   0.571  -0.742   9.452  0.0813 -0.6629 -0.2932
  189POPC  C31021829   0.378  -0.656   9.451  0.6430  0.1578  0.9785
  189POPC  H10X21830   0.407  -0.584   9.530 -2.1873  0.6219  1.7032
  189POPC  H10Y21831   0.274  -0.694   9.466  0.5884  0.4976  1.4941
  189POPC  C31121832   0.364  -0.588   9.310 -0.2427 -0.0969 -0.0913
  189POPC  H11X21833   0.467  -0.570   9.274 -0.2130 -1.0379 -0.5098
  189POPC  H11Y21834   0.330  -0.485   9.334  0.2412  0.0034  0.1733
  189POPC  C31221835   0.283  -0.670   9.200 -0.1045 -0.6700 -0.3784
  189POPC  H12X21836   0.175  -0.683   9.223 -0.5275  0.9824 -1.2606
  189POPC  H12Y21837   0.331  -0.770   9.185  0.1950 -0.1818 -3.3784
  189POPC  C31321838   0.294  -0.604   9.059  0.1625 -0.1095 -1.0083
  189POPC  H13X21839   0.375  -0.644   8.995  0.0810 -0.2485 -1.0246
  189POPC  H13Y21840   0.295  -0.493   9.062 -0.9508 -0.0820 -1.1474
  189POPC  C31421841   0.159  -0.646   8.989  0.1751  0.1824 -0.9751
  189POPC  H14X21842   0.077  -0.613   9.056 -1.4838  0.2915 -2.9322
  189POPC  H14Y21843   0.147  -0.754   8.965 -0.6797  0.0047  0.1721
  189POPC  C31521844   0.142  -0.556   8.867  0.1822 -0.0879  0.2692
  189POPC  H15X21845   0.234  -0.570   8.806  0.1311 -2.4517  0.6148
  189POPC  H15Y21846   0.132  -0.453   8.906 -1.0248 -0.4403  0.9642
  189POPC  C31621847   0.026  -0.589   8.779 -0.4353  0.1002  0.3200
  189POPC  H16X21848  -0.072  -0.563   8.824 -0.0400 -0.1994  1.3785
  189POPC  H16Y21849   0.041  -0.694   8.746 -0.4430  0.3143 -0.3757
  189POPC  H16Z21850   0.044  -0.526   8.690 -1.9051 -1.2272 -0.9931
  190POPC     N21851   0.704   3.554  11.009  0.1200  0.2980  0.0710
  190POPC   C1221852   0.717   3.570  10.851  0.3903  0.2821  0.1108
  190POPC  H12A21853   0.737   3.471  10.814 -1.6246 -1.2022  2.7227
  190POPC  H12B21854   0.811   3.621  10.838  0.1782  1.5617  2.8276
  190POPC   C1321855   0.730   3.688  11.062  1.1243  0.3589 -0.4551
  190POPC  H13A21856   0.829   3.729  11.050  0.7568  1.1003 -1.0541
  190POPC  H13B21857   0.663   3.761  11.019  1.2638  1.4870  1.1309
  190POPC  H13C21858   0.700   3.702  11.165  1.5213 -0.4238 -0.2222
  190POPC   C1421859   0.568   3.497  11.045  0.4188  0.0744  0.2798
  190POPC  H14A21860   0.561   3.484  11.152 -1.1971 -2.1545 -0.0117
  190POPC  H14B21861   0.490   3.563  11.011  1.0405  2.2152  2.7271
  190POPC  H14C21862   0.558   3.407  10.985  1.5424 -0.0095  0.1928
  190POPC   C1521863   0.810   3.460  11.055 -0.2269  0.1205 -0.1076
  190POPC  H15A21864   0.798   3.423  11.156  0.9388 -0.3094 -0.1059
  190POPC  H15B21865   0.911   3.496  11.043 -0.1346  1.3194  3.2467
  190POPC  H15C21866   0.804   3.361  11.011 -1.6904  0.4180 -0.6176
  190POPC   C1121867   0.600   3.638  10.778  0.0744  0.2021  0.2232
  190POPC  H11A21868   0.509   3.574  10.783  0.6105 -0.7318 -1.2838
  190POPC  H11B21869   0.623   3.633  10.669 -0.1025 -1.5827  0.2347
  190POPC     P21870   0.684   3.892  10.796  0.4997 -0.1058  0.1189
  190POPC   O1321871   0.821   3.846  10.792  0.0101  0.6919  0.1830
  190POPC   O1421872   0.650   4.003  10.893 -0.4414 -0.0652  0.1581
  190POPC   O1221873   0.579   3.774  10.818 -0.4708 -0.5416  0.5151
  190POPC   O1121874   0.652   3.940  10.647 -0.1025  0.0595  0.6211
  190POPC    C121875   0.528   3.979  10.606 -0.2796 -0.2092 -0.6588
  190POPC    HA21876   0.470   4.032  10.684  0.0875  1.0954 -1.2422
  190POPC    HB21877   0.470   3.891  10.571  0.4059 -1.8411  2.0271
  190POPC    C221878   0.546   4.090  10.491  0.1356  0.8421 -0.4705
  190POPC    HS21879   0.443   4.107  10.452  0.1222  1.0422 -0.3476
  190POPC   O2121880   0.630   4.035  10.386  0.3200  0.3795  0.1664
  190POPC   C2121881   0.566   3.962  10.303 -0.2058  0.3031  0.0410
  190POPC   O2221882   0.442   3.947  10.301  0.4498 -0.8128 -0.0074
  190POPC   C2221883   0.650   3.903  10.190  0.0743 -0.1846  0.2012
  190POPC   H2R21884   0.682   3.804  10.230  0.5572 -1.2469 -2.5209
  190POPC   H2S21885   0.738   3.964  10.158 -1.1271  1.7974  0.5180
  190POPC    C321886   0.595   4.226  10.551  0.2239 -0.2688  0.2557
  190POPC    HX21887   0.687   4.198  10.607  0.4850  1.6759  0.8752
  190POPC    HY21888   0.512   4.264  10.614 -0.2489  0.0251 -0.5209
  190POPC   O3121889   0.624   4.314  10.446  0.0576  0.5399  0.1635
  190POPC   C3121890   0.755   4.322  10.414 -0.2026  1.8315  0.2880
  190POPC   O3221891   0.847   4.283  10.477  0.8494  0.0045  0.1279
  190POPC   C3221892   0.781   4.400  10.284 -0.4061 -0.0192  1.1098
  190POPC   H2X21893   0.890   4.397  10.264 -0.4978 -0.8470  0.6734
  190POPC   H2Y21894   0.748   4.506  10.291  1.1577  0.4351  2.2059
  190POPC   C2321895   0.570   3.868  10.063 -0.6710 -0.1712 -0.6190
  190POPC   H3R21896   0.518   3.964  10.040 -1.7321 -0.3432  0.8812
  190POPC   H3S21897   0.497   3.790  10.093 -1.3123 -0.0036 -1.6978
  190POPC   C2421898   0.664   3.828   9.954 -0.5836 -0.8030  0.0505
  190POPC   H4R21899   0.707   3.726   9.965  1.0566 -0.0093  1.5403
  190POPC   H4S21900   0.744   3.905   9.946 -0.7275 -0.2645  2.7647
  190POPC   C2521901   0.587   3.835   9.825 -0.1631 -0.1241  0.1016
  190POPC   H5R21902   0.543   3.936   9.835 -1.1051 -0.5789  0.7126
  190POPC   H5S21903   0.502   3.765   9.816 -0.0720 -0.1864 -0.2899
  190POPC   C2621904   0.686   3.828   9.706 -0.2282  0.5726  0.3135
  190POPC   H6R21905   0.740   3.731   9.709  1.2113  1.1723 -2.6008
  190POPC   H6S21906   0.761   3.908   9.723  0.2541 -0.1202  1.6033
  190POPC   C2721907   0.609   3.846   9.577 -0.1813 -0.0202 -0.5128
  190POPC   H7R21908   0.581   3.953   9.575  2.1163  0.7354  1.8221
  190POPC   H7S21909   0.524   3.774   9.577  2.1709 -3.0165 -0.3380
  190POPC   C2821910   0.683   3.814   9.450  0.0166  0.1460 -0.0918
  190POPC   H8R21911   0.703   3.705   9.462  2.0508  0.6375  1.5868
  190POPC   H8S21912   0.770   3.882   9.437 -1.0907  1.6093 -0.0506
  190POPC   C2921913   0.606   3.837   9.323 -0.2369  0.2255 -1.0649
  190POPC   H9121914   0.505   3.879   9.336 -0.1789  1.0764 -3.0229
  190POPC  C21021915   0.647   3.825   9.200  0.2302 -1.2896 -0.2032
  190POPC  H10121916   0.571   3.845   9.122  0.9107  1.2189 -0.2912
  190POPC  C21121917   0.777   3.777   9.147  1.0676  0.5390  0.4131
  190POPC  H11R21918   0.846   3.736   9.223  1.4985  0.2377 -0.1277
  190POPC  H11S21919   0.832   3.868   9.114 -1.6321  1.9112 -0.6177
  190POPC  C21221920   0.778   3.689   9.027  0.0948  0.2017 -0.2674
  190POPC  H12R21921   0.724   3.593   9.040 -0.9183  0.7072 -0.5883
  190POPC  H12S21922   0.884   3.658   9.017  0.2610  0.0567  1.5858
  190POPC  C21321923   0.738   3.759   8.906  0.1505 -0.2635 -0.4720
  190POPC  H13R21924   0.814   3.834   8.877  1.1918 -1.4756 -0.9681
  190POPC  H13S21925   0.650   3.823   8.928  0.9496  0.1108  1.8742
  190POPC  C21421926   0.726   3.679   8.778 -0.7855  0.8371  0.6254
  190POPC  H14R21927   0.823   3.627   8.764 -1.7057 -0.6603 -0.4881
  190POPC  H14S21928   0.709   3.746   8.691 -0.1151 -2.0936 -1.9036
  190POPC  C21521929   0.617   3.568   8.771 -0.5479 -0.5415  0.1284
  190POPC  H15R21930   0.519   3.613   8.797 -0.7583 -0.0952 -1.3708
  190POPC  H15S21931   0.644   3.499   8.854  1.4871  0.3003  0.2136
  190POPC  C21621932   0.610   3.480   8.644 -1.0003  0.0594 -0.3423
  190POPC  H16R21933   0.714   3.455   8.611 -0.3596  2.8889 -0.7748
  190POPC  H16S21934   0.557   3.522   8.556 -0.7817 -0.8869 -0.9390
  190POPC  C21721935   0.541   3.343   8.680  0.1193  0.0198  0.6511
  190POPC  H17R21936   0.606   3.277   8.742 -1.7992 -2.2394  0.3699
  190POPC  H17S21937   0.537   3.298   8.578  1.8036  0.7590  0.2125
  190POPC  C21821938   0.399   3.341   8.738 -0.7600  0.0831  0.6202
  190POPC  H18R21939   0.354   3.245   8.707  0.2676  0.3778 -2.0169
  190POPC  H18S21940   0.340   3.425   8.697  1.3392  2.6189  2.4241
  190POPC  H18T21941   0.395   3.356   8.848 -2.9836  0.3145  0.5556
  190POPC   C3321942   0.716   4.326  10.164  0.2135  0.4767  0.5360
  190POPC   H3X21943   0.605   4.331  10.167  0.1482  1.7598 -1.7432
  190POPC   H3Y21944   0.743   4.219  10.153 -0.0687  0.3801  0.7548
  190POPC   C3421945   0.754   4.388  10.029 -0.0296  0.1083 -0.2741
  190POPC   H4X21946   0.864   4.376  10.027  0.2939  2.7445 -1.3814
  190POPC   H4Y21947   0.711   4.490  10.027  1.1054  0.7440  2.6915
  190POPC   C3521948   0.706   4.306   9.908  0.1849 -0.3387  0.0016
  190POPC   H5X21949   0.595   4.310   9.912  0.1823 -1.4794  1.4741
  190POPC   H5Y21950   0.747   4.204   9.919  2.7722  0.3380 -2.2263
  190POPC   C3621951   0.743   4.365   9.777  0.5240 -0.0435 -0.3665
  190POPC   H6X21952   0.853   4.380   9.781  0.3827  0.6964  1.1826
  190POPC   H6Y21953   0.696   4.465   9.773 -1.2970 -0.8705 -0.8560
  190POPC   C3721954   0.716   4.265   9.666 -0.2088  0.2636 -0.4513
  190POPC   H7X21955   0.608   4.239   9.662 -0.1194 -0.8810  2.1339
  190POPC   H7Y21956   0.779   4.174   9.679  0.0354  0.2540 -1.6004
  190POPC   C3821957   0.754   4.328   9.526 -0.2923  0.1737  0.2248
  190POPC   H8X21958   0.861   4.355   9.539 -0.7594  1.9935  0.5645
  190POPC   H8Y21959   0.691   4.419   9.520  2.0985  1.9225  0.1372
  190POPC   C3921960   0.743   4.233   9.401 -0.0867 -0.0759 -0.2554
  190POPC   H9X21961   0.794   4.135   9.419  0.5020  0.2270 -0.2572
  190POPC   H9Y21962   0.789   4.282   9.313 -1.2342  0.2251 -0.7086
  190POPC  C31021963   0.592   4.225   9.368 -0.4787 -0.5497  0.4689
  190POPC  H10X21964   0.533   4.221   9.462 -0.0868  0.0165  0.7424
  190POPC  H10Y21965   0.563   4.124   9.330 -0.0241 -2.3061  4.2932
  190POPC  C31121966   0.558   4.322   9.260  0.1358 -0.1628 -1.0940
  190POPC  H11X21967   0.629   4.298   9.178  0.3480 -0.9264 -0.6985
  190POPC  H11Y21968   0.580   4.427   9.290 -0.4449 -0.3096 -0.1409
  190POPC  C31221969   0.414   4.322   9.219 -0.2726  0.7465  0.6446
  190POPC  H12X21970   0.338   4.344   9.297  1.5121 -1.3464  3.1325
  190POPC  H12Y21971   0.398   4.214   9.198  0.6311  0.4694  1.3336
  190POPC  C31321972   0.388   4.388   9.087  0.2179  0.0404 -0.0205
  190POPC  H13X21973   0.421   4.494   9.090  2.4972 -0.6513  0.6493
  190POPC  H13Y21974   0.278   4.403   9.078  0.3274  2.9603  2.1431
  190POPC  C31421975   0.453   4.315   8.964  0.2961 -0.1892 -0.0493
  190POPC  H14X21976   0.384   4.233   8.935 -0.5675  0.1204  1.0346
  190POPC  H14Y21977   0.559   4.285   8.978 -0.1973 -1.9522  0.1842
  190POPC  C31521978   0.453   4.411   8.831 -0.2086  0.2576  0.3982
  190POPC  H15X21979   0.351   4.448   8.808 -0.3566 -0.3176  0.1055
  190POPC  H15Y21980   0.475   4.346   8.743  1.6489  0.0450  0.9687
  190POPC  C31621981   0.547   4.528   8.826  0.1582 -0.5038  0.3701
  190POPC  H16X21982   0.653   4.496   8.838  0.0651 -1.0291 -0.1789
  190POPC  H16Y21983   0.518   4.598   8.907 -1.8322 -0.8931  0.0385
  190POPC  H16Z21984   0.525   4.591   8.737 -0.1211  0.3159  1.0029
  191POPC     N21985   2.927   5.239   5.814  0.9029  0.3379 -0.4948
  191POPC   C1221986   2.957   5.150   5.936 -0.1674  0.0609 -0.3253
  191POPC  H12A21987   3.064   5.160   5.944  0.0862 -1.2611 -1.6161
  191POPC  H12B21988   2.935   5.047   5.914  0.9559  0.0740 -1.6543
  191POPC   C1321989   2.975   5.386   5.827 -0.0632  0.8376 -0.0301
  191POPC  H13A21990   2.942   5.438   5.738  0.1563 -0.8715 -1.1480
  191POPC  H13B21991   2.932   5.429   5.916 -0.7440 -1.6856  0.9427
  191POPC  H13C21992   3.083   5.398   5.828  0.3692 -2.0993  2.4881
  191POPC   C1421993   2.987   5.172   5.699 -0.1940  0.1343 -0.1004
  191POPC  H14A21994   2.939   5.080   5.669 -0.6206  0.0504  0.8188
  191POPC  H14B21995   2.973   5.231   5.609  0.7869  0.4944 -0.0321
  191POPC  H14C21996   3.088   5.137   5.714  0.2817  1.1188 -0.8586
  191POPC   C1521997   2.771   5.255   5.805 -1.0024 -0.2246  0.3806
  191POPC  H15A21998   2.749   5.302   5.900 -1.1006 -1.3968  0.9526
  191POPC  H15B21999   2.715   5.166   5.784 -1.3738 -0.4484  2.1655
  191POPC  H15C22000   2.755   5.320   5.720  2.8173  1.5254  0.7755
  191POPC   C1122001   2.897   5.176   6.070 -0.2231 -0.8525 -0.0638
  191POPC  H11A22002   2.906   5.095   6.146 -0.1409  1.1723  2.1968
  191POPC  H11B22003   2.787   5.187   6.059 -0.3739  1.3105  2.5721
  191POPC     P22004   3.098   5.319   6.164 -0.1988 -0.4128 -0.3177
  191POPC   O1322005   3.132   5.463   6.145 -0.0918  0.0506  0.2690
  191POPC   O1422006   3.195   5.216   6.109 -0.0290 -0.1228  0.2789
  191POPC   O1222007   2.956   5.302   6.103 -0.6709  0.1986  0.0016
  191POPC   O1122008   3.084   5.281   6.321 -0.4510  0.3324 -0.2684
  191POPC    C122009   2.978   5.331   6.406 -0.4531 -0.0273  0.1192
  191POPC    HA22010   2.946   5.254   6.479 -0.6753  0.0101  0.0649
  191POPC    HB22011   2.888   5.361   6.347 -2.1886 -0.5085  2.3839
  191POPC    C222012   3.032   5.455   6.478 -0.1637  0.3027 -0.2990
  191POPC    HS22013   3.087   5.524   6.410  1.0373 -0.4901 -0.1604
  191POPC   O2122014   3.118   5.407   6.586 -1.0266 -0.1360 -0.7846
  191POPC   C2122015   3.232   5.471   6.603  0.4395  0.2799  0.2233
  191POPC   O2222016   3.252   5.584   6.566 -0.2896 -0.2529 -0.7036
  191POPC   C2222017   3.338   5.387   6.670  0.1394  0.0237  0.3394
  191POPC   H2R22018   3.438   5.414   6.630  1.2306 -1.7886  1.6562
  191POPC   H2S22019   3.327   5.278   6.650  1.0310 -0.0629  0.2701
  191POPC    C322020   2.921   5.542   6.537 -0.1333 -0.4126  0.5780
  191POPC    HX22021   2.858   5.590   6.459 -2.0437 -1.9992  1.0515
  191POPC    HY22022   2.974   5.624   6.590 -1.3518  1.3253 -0.7588
  191POPC   O3122023   2.830   5.470   6.623 -0.4714  0.2066  0.0259
  191POPC   C3122024   2.748   5.555   6.689  0.0670 -0.3854 -0.5021
  191POPC   O3222025   2.748   5.675   6.672  0.0907 -0.1482 -0.0729
  191POPC   C3222026   2.649   5.483   6.781 -0.0047  0.2392  0.5624
  191POPC   H2X22027   2.592   5.401   6.732  0.7304  0.3130 -0.4474
  191POPC   H2Y22028   2.574   5.558   6.811 -0.3911 -0.1658  0.6149
  191POPC   C2322029   3.319   5.405   6.821 -0.5833  0.6707  0.4223
  191POPC   H3R22030   3.312   5.513   6.847 -3.5436  0.5430  0.5342
  191POPC   H3S22031   3.396   5.354   6.882 -0.2739  1.3985  0.6500
  191POPC   C2422032   3.181   5.338   6.874 -0.7452 -0.7107 -0.2491
  191POPC   H4R22033   3.188   5.228   6.858 -0.8542 -0.7390 -0.0989
  191POPC   H4S22034   3.094   5.384   6.823  0.3742  0.0964 -1.5003
  191POPC   C2522035   3.162   5.353   7.026 -0.1778  0.0123 -0.2366
  191POPC   H5R22036   3.057   5.327   7.053 -0.0715 -0.1231  0.0481
  191POPC   H5S22037   3.167   5.461   7.052  0.8661  0.2049 -1.1697
  191POPC   C2622038   3.259   5.275   7.111  0.1193  0.3606 -0.4221
  191POPC   H6R22039   3.363   5.292   7.075  0.3255 -1.5427 -0.8332
  191POPC   H6S22040   3.242   5.165   7.106  0.3158  0.3789 -2.8073
  191POPC   C2722041   3.255   5.305   7.264  0.1748 -0.0937  0.0909
  191POPC   H7R22042   3.154   5.296   7.311  0.7557  0.8558  1.5728
  191POPC   H7S22043   3.267   5.414   7.282 -0.9227 -0.0731  0.7553
  191POPC   C2822044   3.363   5.240   7.357 -0.1837 -0.4109  0.0890
  191POPC   H8R22045   3.457   5.226   7.299 -1.6568 -2.3664 -2.0111
  191POPC   H8S22046   3.325   5.140   7.388  1.0812 -0.5378  1.3056
  191POPC   C2922047   3.393   5.317   7.486 -0.3581 -0.4671 -0.8117
  191POPC   H9122048   3.467   5.395   7.462 -0.1930 -0.7037 -1.0849
  191POPC  C21022049   3.356   5.301   7.614  0.2920 -0.5741 -0.4044
  191POPC  H10122050   3.388   5.372   7.691 -2.2959 -0.7951  1.0117
  191POPC  C21122051   3.269   5.184   7.657  1.1187 -0.0145 -0.1978
  191POPC  H11R22052   3.319   5.125   7.737  0.9000  2.0719  1.5847
  191POPC  H11S22053   3.245   5.122   7.568  0.2129  1.0840 -0.7558
  191POPC  C21222054   3.123   5.230   7.705 -0.2366 -0.4239 -0.7633
  191POPC  H12R22055   3.069   5.134   7.716  0.7240 -0.9700 -0.6962
  191POPC  H12S22056   3.074   5.295   7.629  2.0215 -1.3629 -3.1628
  191POPC  C21322057   3.123   5.291   7.852 -0.2687 -0.3327 -0.0138
  191POPC  H13R22058   3.029   5.346   7.875 -0.2925 -0.9655  1.4973
  191POPC  H13S22059   3.196   5.374   7.853 -1.6082  0.8718  1.0414
  191POPC  C21422060   3.146   5.193   7.965  0.4376  0.6965 -0.9848
  191POPC  H14R22061   3.090   5.100   7.943  1.9107 -0.6066  0.5893
  191POPC  H14S22062   3.099   5.243   8.052  0.0749  2.4272 -2.1082
  191POPC  C21522063   3.296   5.169   8.000  0.4502 -0.3824  0.3087
  191POPC  H15R22064   3.332   5.089   7.932 -1.8929 -2.2900  1.1826
  191POPC  H15S22065   3.310   5.136   8.105 -0.9603  0.0094  0.6403
  191POPC  C21622066   3.390   5.292   8.001  0.3602  0.0325  1.0206
  191POPC  H16R22067   3.336   5.387   8.020  1.2001  1.0189 -1.2087
  191POPC  H16S22068   3.431   5.315   7.900  0.8311 -1.7747  0.7660
  191POPC  C21722069   3.511   5.271   8.095  0.4799 -0.2797  0.0731
  191POPC  H17R22070   3.476   5.248   8.198  4.2852  0.0321  1.6068
  191POPC  H17S22071   3.568   5.366   8.104 -0.1171  0.1237 -0.2723
  191POPC  C21822072   3.598   5.152   8.054 -0.1227 -0.1111 -0.2765
  191POPC  H18R22073   3.679   5.192   7.988 -1.0790  1.8710 -0.3277
  191POPC  H18S22074   3.534   5.081   7.998  1.1959 -0.4872 -1.3525
  191POPC  H18T22075   3.640   5.109   8.147  0.1186 -1.5592 -1.0270
  191POPC   C3322076   2.721   5.425   6.908 -0.2956  0.6167 -0.3144
  191POPC   H3X22077   2.802   5.489   6.951  0.6625 -0.3188 -0.6809
  191POPC   H3Y22078   2.789   5.344   6.874 -0.5078  0.5480 -0.5701
  191POPC   C3422079   2.627   5.384   7.019  0.3490 -0.2444  0.5400
  191POPC   H4X22080   2.550   5.309   6.990 -1.4607  1.2258  1.2744
  191POPC   H4Y22081   2.563   5.464   7.063  0.9536 -0.1637  1.2921
  191POPC   C3522082   2.703   5.321   7.140  0.1062  0.8890  0.4499
  191POPC   H5X22083   2.808   5.322   7.103  0.1148 -1.5011  0.2571
  191POPC   H5Y22084   2.678   5.213   7.149 -0.0222  0.7513 -1.1771
  191POPC   C3622085   2.682   5.393   7.276  0.6749 -0.0906  0.0126
  191POPC   H6X22086   2.573   5.412   7.291  1.1833  2.9227  0.5078
  191POPC   H6Y22087   2.727   5.494   7.281 -0.9926  0.7965 -1.7199
  191POPC   C3722088   2.717   5.308   7.401  0.7508  0.0049 -0.7157
  191POPC   H7X22089   2.815   5.259   7.383  0.0786 -1.2213 -1.1546
  191POPC   H7Y22090   2.641   5.228   7.418  0.3889  0.7206  1.4489
  191POPC   C3822091   2.716   5.388   7.534  0.7983  0.0678 -0.0554
  191POPC   H8X22092   2.624   5.449   7.546  0.1799 -0.7113 -0.7293
  191POPC   H8Y22093   2.802   5.459   7.532 -0.2965  1.4588  0.9709
  191POPC   C3922094   2.739   5.288   7.649  0.1755  0.7971  0.2544
  191POPC   H9X22095   2.833   5.231   7.631  0.2752  0.7593  0.8830
  191POPC   H9Y22096   2.652   5.220   7.652  1.4779 -0.9369  2.5620
  191POPC  C31022097   2.753   5.362   7.788  0.4908 -0.3066  0.6913
  191POPC  H10X22098   2.663   5.427   7.785  0.1647 -0.7693 -0.5138
  191POPC  H10Y22099   2.840   5.430   7.783 -0.7231  1.2658 -0.0867
  191POPC  C31122100   2.764   5.272   7.914  0.2065 -0.0352 -0.2564
  191POPC  H11X22101   2.844   5.198   7.890 -0.9482 -1.4992  0.2425
  191POPC  H11Y22102   2.672   5.209   7.917  0.5221 -0.4801  0.3397
  191POPC  C31222103   2.777   5.346   8.042 -0.4533  0.5169  0.0268
  191POPC  H12X22104   2.697   5.419   8.064 -0.4281  0.5187  0.1146
  191POPC  H12Y22105   2.873   5.401   8.032 -0.4291  0.3588 -0.6849
  191POPC  C31322106   2.819   5.253   8.165  0.6104  0.6320  0.2681
  191POPC  H13X22107   2.888   5.176   8.124 -0.2378 -0.6564  1.2101
  191POPC  H13Y22108   2.730   5.190   8.182  0.7186 -0.4073 -2.4897
  191POPC  C31422109   2.849   5.319   8.296  0.1141  0.2860 -0.0353
  191POPC  H14X22110   2.760   5.378   8.326 -0.1572  0.8230 -1.7532
  191POPC  H14Y22111   2.934   5.390   8.281  0.7120 -0.6091 -0.9798
  191POPC  C31522112   2.891   5.221   8.406 -0.0184  0.3654 -0.1103
  191POPC  H15X22113   2.986   5.175   8.371  0.3033  1.3974 -0.6434
  191POPC  H15Y22114   2.811   5.144   8.405 -1.3058  1.6512 -0.4407
  191POPC  C31622115   2.933   5.280   8.539 -0.3406 -0.5198  0.5327
  191POPC  H16X22116   2.994   5.205   8.592  0.0967 -0.3286  0.3091
  191POPC  H16Y22117   2.844   5.303   8.601 -2.3715 -1.8404 -1.6937
  191POPC  H16Z22118   2.992   5.371   8.514  4.2339 -3.1291  0.6836
  192POPC     N22119   2.189   1.433   5.711  0.6134  0.3727 -0.4450
  192POPC   C1222120   2.194   1.330   5.825 -0.3720  0.0785  0.4739
  192POPC  H12A22121   2.272   1.256   5.808 -1.7495 -0.9581 -1.6569
  192POPC  H12B22122   2.102   1.274   5.834 -0.1444 -0.2425  0.8886
  192POPC   C1322123   2.088   1.538   5.744 -0.0709 -0.4747  0.2317
  192POPC  H13A22124   2.085   1.613   5.667  0.4315  0.4228  1.0577
  192POPC  H13B22125   1.989   1.495   5.743 -1.9382  3.3992 -0.6330
  192POPC  H13C22126   2.113   1.590   5.836 -1.2270  0.1960  0.1930
  192POPC   C1422127   2.317   1.504   5.705 -0.6179  0.0923  0.0595
  192POPC  H14A22128   2.327   1.557   5.799  0.6072  0.5725 -0.3270
  192POPC  H14B22129   2.403   1.439   5.692 -0.5733  0.6747 -3.4917
  192POPC  H14C22130   2.315   1.580   5.629 -2.0385  0.5016  0.4730
  192POPC   C1522131   2.151   1.368   5.582 -0.7149 -0.3627 -0.3421
  192POPC  H15A22132   2.178   1.429   5.497  1.9686 -1.1169 -0.1158
  192POPC  H15B22133   2.044   1.355   5.588 -0.5323 -1.2127  2.0565
  192POPC  H15C22134   2.205   1.275   5.573  0.6866  0.5909 -2.5965
  192POPC   C1122135   2.236   1.387   5.967 -0.3648 -0.0140 -0.2005
  192POPC  H11A22136   2.339   1.427   5.980 -0.6664  0.1652  2.0316
  192POPC  H11B22137   2.243   1.296   6.031  1.4489  1.4032  1.7797
  192POPC     P22138   2.016   1.433   6.099 -0.5164 -0.1437 -0.1704
  192POPC   O1322139   1.968   1.304   6.046  0.9022  0.3341  0.2484
  192POPC   O1422140   1.915   1.542   6.107  0.4323 -0.0923 -0.2689
  192POPC   O1222141   2.140   1.481   6.011 -0.1121  0.5306 -0.2889
  192POPC   O1122142   2.071   1.410   6.247 -0.3592  0.3099 -0.0512
  192POPC    C122143   2.132   1.519   6.319  0.2323 -0.3091  0.1749
  192POPC    HA22144   2.110   1.617   6.271  2.5801 -0.4361 -1.3104
  192POPC    HB22145   2.242   1.510   6.306  0.5992  3.4108 -0.3786
  192POPC    C222146   2.091   1.529   6.474  0.6211 -0.0949  0.5334
  192POPC    HS22147   2.142   1.622   6.508 -1.4708  1.6688 -0.8801
  192POPC   O2122148   2.134   1.412   6.544  0.4967 -0.6080 -0.2510
  192POPC   C2122149   2.209   1.431   6.651  0.2842  0.0267  0.4335
  192POPC   O2222150   2.248   1.538   6.693  0.6684  0.2152 -0.2103
  192POPC   C2222151   2.252   1.301   6.702 -0.1417  0.0966  0.1044
  192POPC   H2R22152   2.353   1.277   6.665  0.3810  0.8362  0.9957
  192POPC   H2S22153   2.176   1.222   6.682 -1.0152  1.2065 -1.1093
  192POPC    C322154   1.944   1.553   6.508  0.3429 -0.1461 -0.6036
  192POPC    HX22155   1.883   1.465   6.478  0.6131 -0.7746  0.6085
  192POPC    HY22156   1.898   1.638   6.454 -0.9622  0.1826  0.9495
  192POPC   O3122157   1.914   1.579   6.647 -0.2271  0.3123  0.1070
  192POPC   C3122158   1.955   1.702   6.689  0.4991  0.1868  0.5931
  192POPC   O3222159   1.992   1.792   6.611  0.5379  0.1542  0.2361
  192POPC   C3222160   1.932   1.719   6.830  0.6346  0.3769 -0.2107
  192POPC   H2X22161   1.821   1.721   6.831  0.5976 -0.9569 -0.3907
  192POPC   H2Y22162   1.962   1.822   6.858  0.0899  0.1974  1.1110
  192POPC   C2322163   2.259   1.304   6.855 -0.1441  0.6516 -0.2442
  192POPC   H3R22164   2.165   1.344   6.898 -0.0563  0.5721  0.0251
  192POPC   H3S22165   2.344   1.369   6.886  0.5913 -0.2322 -0.3551
  192POPC   C2422166   2.281   1.170   6.932  0.1075  0.4262  0.6484
  192POPC   H4R22167   2.382   1.137   6.898 -1.0544 -1.9522 -0.7189
  192POPC   H4S22168   2.206   1.090   6.913 -0.7857  1.2165  0.7976
  192POPC   C2522169   2.280   1.202   7.078  0.3706  0.4344  0.1373
  192POPC   H5R22170   2.173   1.222   7.100  0.3286 -1.5698  2.2178
  192POPC   H5S22171   2.343   1.290   7.104  0.1327  0.8006 -0.5198
  192POPC   C2622172   2.313   1.075   7.165 -0.5355 -0.1996  0.4525
  192POPC   H6R22173   2.330   1.118   7.266  0.2347  2.7607 -0.8337
  192POPC   H6S22174   2.414   1.037   7.138  0.0080  0.9173  0.8556
  192POPC   C2722175   2.197   0.978   7.160  0.5918  0.3471 -0.0811
  192POPC   H7R22176   2.225   0.917   7.071  1.8472  0.6003  0.1133
  192POPC   H7S22177   2.107   1.034   7.127 -0.9831 -1.8378  0.3212
  192POPC   C2822178   2.180   0.886   7.281  0.3509 -0.0683  0.7031
  192POPC   H8R22179   2.279   0.837   7.294  0.4527  0.1881  0.9129
  192POPC   H8S22180   2.105   0.809   7.253  0.1510  0.5730 -0.6033
  192POPC   C2922181   2.135   0.968   7.400  0.3741  0.1368 -0.4043
  192POPC   H9122182   2.031   1.006   7.402  0.9540  1.7762  0.5797
  192POPC  C21022183   2.195   0.983   7.518 -0.1066 -0.2841  0.0878
  192POPC  H10122184   2.143   1.045   7.592 -1.0152 -1.6611  0.6439
  192POPC  C21122185   2.331   0.928   7.565  0.5293  0.1336  0.6358
  192POPC  H11R22186   2.407   0.934   7.484 -0.5315  1.5648 -0.3137
  192POPC  H11S22187   2.308   0.824   7.596  2.6313 -0.5790 -0.0127
  192POPC  C21222188   2.397   0.988   7.693  0.4997  0.0242  1.0400
  192POPC  H12R22189   2.408   1.098   7.687  0.9789 -0.0044  1.2778
  192POPC  H12S22190   2.500   0.950   7.711  0.2643 -0.6676  0.9572
  192POPC  C21322191   2.320   0.936   7.826 -0.1924  0.1106  0.2457
  192POPC  H13R22192   2.343   0.827   7.831  0.2111  0.2022  0.4012
  192POPC  H13S22193   2.211   0.954   7.819 -0.2040 -0.2575 -0.7980
  192POPC  C21422194   2.358   1.009   7.958 -0.0848 -0.2029  0.0139
  192POPC  H14R22195   2.330   1.114   7.938  2.5354  0.4988 -0.4051
  192POPC  H14S22196   2.469   1.006   7.952  0.0966  0.2492  2.2532
  192POPC  C21522197   2.292   0.954   8.086  0.4970 -0.1650 -0.2159
  192POPC  H15R22198   2.329   0.850   8.100  0.3424 -0.0707  1.0861
  192POPC  H15S22199   2.181   0.961   8.081  0.5255  1.2258  0.6220
  192POPC  C21622200   2.338   1.025   8.215 -0.6099 -0.1694  0.5177
  192POPC  H16R22201   2.299   1.129   8.210 -3.0744 -0.8626  3.0052
  192POPC  H16S22202   2.449   1.025   8.211 -0.5798 -0.7335  1.1464
  192POPC  C21722203   2.296   0.957   8.347  0.2048 -0.0271  1.1149
  192POPC  H17R22204   2.359   0.868   8.364 -1.0547 -1.1129  0.2564
  192POPC  H17S22205   2.190   0.930   8.328 -0.1476  2.1014 -0.3281
  192POPC  C21822206   2.317   1.052   8.462 -0.2542 -1.0112 -0.0942
  192POPC  H18R22207   2.423   1.084   8.449  0.3964 -3.5906 -2.0068
  192POPC  H18S22208   2.289   1.018   8.564  1.6230 -1.9017  0.1670
  192POPC  H18T22209   2.265   1.148   8.440  0.1458 -1.5731 -4.1627
  192POPC   C3322210   2.001   1.613   6.923  0.2092  0.0414 -0.0009
  192POPC   H3X22211   2.108   1.623   6.896 -0.2467 -0.0776 -1.9870
  192POPC   H3Y22212   1.973   1.511   6.890  0.7690  0.2953 -1.2989
  192POPC   C3422213   1.989   1.633   7.070 -0.0304  0.2294 -0.4074
  192POPC   H4X22214   1.890   1.594   7.102  0.2038 -1.0458 -1.1748
  192POPC   H4Y22215   1.982   1.740   7.100 -1.7501  0.2575 -0.7988
  192POPC   C3522216   2.102   1.559   7.159  0.4691 -0.7896  0.7615
  192POPC   H5X22217   2.203   1.589   7.122  0.0129 -0.7377 -0.4965
  192POPC   H5Y22218   2.094   1.449   7.141  0.7261 -0.4881 -1.6145
  192POPC   C3622219   2.094   1.586   7.309  0.0739 -0.2314 -0.1580
  192POPC   H6X22220   2.002   1.553   7.361  0.8501  0.6356  1.8978
  192POPC   H6Y22221   2.088   1.697   7.311 -0.0273 -0.2014  2.7066
  192POPC   C3722222   2.215   1.535   7.387  0.3225 -0.3218 -0.0306
  192POPC   H7X22223   2.303   1.591   7.349  1.1392 -1.8349 -0.4337
  192POPC   H7Y22224   2.230   1.428   7.362  1.0905 -1.1442  3.3596
  192POPC   C3822225   2.186   1.551   7.539  0.1268  0.7232  0.0052
  192POPC   H8X22226   2.088   1.515   7.575 -0.3504  1.2076 -0.7832
  192POPC   H8Y22227   2.187   1.660   7.561 -0.4253  1.5765 -3.5435
  192POPC   C3922228   2.286   1.472   7.623  0.2125 -0.2027  0.9735
  192POPC   H9X22229   2.386   1.503   7.587  0.1964 -1.6056 -0.4055
  192POPC   H9Y22230   2.272   1.363   7.609  0.2869 -0.6054  3.4759
  192POPC  C31022231   2.284   1.491   7.769  0.1918  0.7004 -0.1216
  192POPC  H10X22232   2.188   1.454   7.811  1.3620  0.6862  2.7007
  192POPC  H10Y22233   2.300   1.596   7.802  0.0397  2.0964 -3.9418
  192POPC  C31122234   2.388   1.404   7.843  0.4228 -0.1225  0.5539
  192POPC  H11X22235   2.489   1.428   7.801 -0.5390  1.1622 -1.1532
  192POPC  H11Y22236   2.373   1.299   7.813 -0.6047  0.6470 -1.8604
  192POPC  C31222237   2.374   1.422   7.994 -0.6862  0.1777  0.3536
  192POPC  H12X22238   2.277   1.380   8.029 -0.2050  0.1067  1.6360
  192POPC  H12Y22239   2.385   1.529   8.019 -0.9205  0.9217 -2.3528
  192POPC  C31322240   2.488   1.351   8.064 -0.3058 -0.3576  0.3545
  192POPC  H13X22241   2.581   1.363   8.005 -0.1373 -0.9652  0.4894
  192POPC  H13Y22242   2.456   1.245   8.056 -0.3567 -0.2190 -1.9151
  192POPC  C31422243   2.518   1.381   8.207 -0.0524 -0.4999  0.0494
  192POPC  H14X22244   2.427   1.344   8.260 -0.8897 -1.5995 -2.0605
  192POPC  H14Y22245   2.534   1.490   8.219 -1.1120 -0.2627 -0.5207
  192POPC  C31522246   2.635   1.302   8.256  0.5441 -0.6802 -0.3537
  192POPC  H15X22247   2.725   1.346   8.209  1.2794 -3.8932 -2.2568
  192POPC  H15Y22248   2.633   1.196   8.224 -1.4027 -1.0504  0.8290
  192POPC  C31622249   2.653   1.300   8.407  0.4080 -0.6398 -0.0422
  192POPC  H16X22250   2.649   1.404   8.448  0.0537 -0.2996 -0.9095
  192POPC  H16Y22251   2.753   1.263   8.438 -0.0120  0.3626  2.8173
  192POPC  H16Z22252   2.575   1.241   8.459 -0.4377 -0.6607 -1.2943
  193SOD    SOD22253   6.134   6.419   2.632  0.2672  0.1785 -0.2417
  194SOD    SOD22254   0.394   2.768   0.003  0.2869 -0.3097 -0.1397
  195SOD    SOD22255   3.354   5.977  16.969 -0.4378  0.1259  0.4494
  196SOD    SOD22256   2.475   0.797   6.232 -0.1787  0.6058 -0.2008
  197SOD    SOD22257   3.002   4.634   1.540  0.1243  0.0436 -0.4930
  198SOD    SOD22258   0.891   6.532  16.474 -0.1780  0.0844  0.2838
  199SOD    SOD22259   2.222   1.609  11.425 -0.2476  0.4903 -0.1949
  200SOD    SOD22260   3.998   3.036  16.239 -0.3543  0.0152 -0.1227
  201SOD    SOD22261   2.479   3.525  13.131  0.2995  0.2173  0.2786
  202SOD    SOD22262   1.039   4.842  14.013 -0.0803 -0.2269 -0.0526
  203SOD    SOD22263   0.389   5.818  15.184 -0.0760  0.6595 -0.0142
  204SOD    SOD22264   1.808   3.798   0.832  0.4001 -0.2297 -0.3388
  205SOD    SOD22265   5.978   5.018   6.555  0.4185 -0.3373 -0.4833
  206SOD    SOD22266   2.739   6.405  11.407 -0.2064 -0.5593  0.1549
  207SOD    SOD22267   4.376   4.378  13.269  0.4003 -0.5328 -0.4935
  208SOD    SOD22268   6.650   5.264   5.118 -0.1299  0.3442 -0.1647
  209SOD    SOD22269   5.984   1.532  14.392 -0.2556  0.4367 -0.1084
  210SOD    SOD22270   1.404   6.653  10.865 -0.1701  0.0350  0.0654
  211SOD    SOD22271   1.963   6.486   3.524 -0.0777  0.3226 -0.2636
  212SOD    SOD22272   6.111   2.743  11.641  0.3024 -0.2806  0.1440
  213SOD    SOD22273   3.094   1.284  12.424 -0.2952 -0.0256  0.1812
  214SOD    SOD22274   2.601   2.649  11.432  0.3506  0.0639  0.1856
  215SOD    SOD22275   1.540   3.795   2.469  0.1761  0.0867 -0.1807
  216SOD    SOD22276   1.671   5.802   1.734 -0.4311  0.1817 -0.5110
  217SOD    SOD22277   3.975   1.664   5.470 -0.4121 -0.6252  0.2414
  218SOD    SOD22278   0.608   6.010   0.562  0.1742 -0.1464  0.2374
  219SOD    SOD22279   1.913   3.144   5.374 -0.4340 -0.1135  0.3353
  220SOD    SOD22280   1.098   6.392  12.204 -0.5140 -0.1330 -0.3970
  221SOD    SOD22281   3.240   2.553   3.642  0.0615  0.6020 -0.6453
  222SOD    SOD22282   5.400   1.679   5.734 -0.3118 -0.2767 -0.1739
  223SOD    SOD22283   3.842   6.169   6.184 -0.3893 -0.8441  0.6711
  224SOD    SOD22284   4.352   5.086  10.478  0.0273  0.4367 -0.2863
  225SOD    SOD22285   1.145   2.547  10.566 -0.0568  0.1574 -0.6297
  226SOD    SOD22286   6.227   2.340   6.318 -0.8929  0.1034 -0.9848
  227SOD    SOD22287   3.497   2.319  12.164 -0.4859  0.3211 -0.1185
  228SOD    SOD22288   1.886   5.795  13.663 -0.2848 -0.0239 -0.4824
  229SOD    SOD22289   6.515   2.770  15.460 -0.2352 -0.1276 -0.2914
  230SOD    SOD22290   1.037   4.739  10.901  0.2089 -0.1083  0.0223
  231SOD    SOD22291   5.753   0.935  15.240  0.4961 -0.5155 -0.0368
  232SOD    SOD22292   5.848   5.288  15.948  0.2682  0.0276 -0.0921
  233SOD    SOD22293   3.924   0.080   1.520 -0.2594 -0.1379  0.2629
  234SOD    SOD22294   1.040   3.936   5.874  0.7977 -0.3240 -0.2779
  235SOD    SOD22295   5.881   6.783  13.295 -0.5478 -0.6361 -0.2269
  236SOD    SOD22296   2.943   0.287   5.972  0.3137  0.0860 -0.0001
  237SOD    SOD22297   1.404   3.813   6.768  0.0158 -0.5103  0.2031
  238SOD    SOD22298   0.244   3.965  14.582  0.4997  0.5607 -0.0329
  239SOD    SOD22299   4.332   3.059  10.946 -0.0281 -0.1811 -0.7671
  240SOD    SOD22300   6.265   1.959   2.103  0.0912 -0.2888 -0.3682
  241SOD    SOD22301   4.972   0.904  11.219  0.2268  0.7650  0.1624
  242SOD    SOD22302   0.720   2.558  13.604 -0.2447  0.2251 -0.2919
  243SOD    SOD22303   1.099   6.703  10.994  0.2363 -0.1495 -0.1941
  244SOD    SOD22304   4.180   5.585  13.330  0.3117 -0.0530  0.1705
  245SOD    SOD22305   4.872   5.639   2.897 -0.1452 -0.0375 -0.9992
  246SOD    SOD22306   1.371   1.658   2.407 -0.3746 -0.2127 -0.0566
  247SOD    SOD22307   5.468   0.720   3.765 -0.1379  0.3597 -0.1552
  248SOD    SOD22308   3.428   2.620  15.423  0.0795  0.5949  0.1580
  249SOD    SOD22309   0.461   5.772   5.086  0.5693  0.1117  0.1888
  250SOD    SOD22310   6.804   5.442  14.596  0.2161 -0.3200 -0.1439
  251SOD    SOD22311   2.961   1.746  14.244 -0.2956 -0.2391  0.2376
  252SOD    SOD22312   1.931   1.400  11.882 -0.1609 -0.2762 -0.6040
  253SOD    SOD22313   1.447   0.298   5.019 -0.4639 -0.1542  0.4385
  254SOD    SOD22314   0.720   1.811  10.795 -0.5637 -0.5064 -0.3385
  255SOD    SOD22315   3.527   3.132  13.676 -0.6581  0.2985 -0.2264
  256SOD    SOD22316   3.369   6.267   1.140  0.0884  0.0365 -0.1222
  257SOD    SOD22317   2.181   6.222   2.332  0.0739 -0.5092  0.6029
  258SOD    SOD22318   0.950   4.345  12.169  0.2530  0.2790 -0.1942
  259SOD    SOD22319   0.264   4.617   2.423  0.1987  0.1736  0.2517
  260SOD    SOD22320   3.430   2.884  11.255 -0.1521  0.2092 -0.5207
  261SOD    SOD22321   0.096   3.375   5.886 -0.2917 -0.3842 -0.1935
  262SOD    SOD22322   2.357   5.884   5.870 -0.2347 -0.0915  0.0576
  263SOD    SOD22323   5.692   6.427  10.442 -0.1982 -0.5282 -0.0022
  264SOD    SOD22324   6.352   3.675   4.078  0.5349 -0.0033  0.2804
  265SOD    SOD22325   3.889   4.695  12.704  0.2095  0.0594 -0.2662
  266SOD    SOD22326   3.692   5.877   2.664 -0.9890  0.1233 -0.1550
  267SOD    SOD22327   2.551   3.310   5.548 -0.3008  0.6607  0.2772
  268SOD    SOD22328   1.622   6.612   5.908  0.1122 -0.4264 -0.0383
  269SOD    SOD22329   6.575   0.217   1.663  0.9045 -0.2228  0.3657
  270CLA    CLA22330   0.770   5.466   1.387 -0.0832  0.4277  0.1146
  271CLA    CLA22331   0.409   3.548   1.530  0.4017 -0.2052 -0.2206
  272CLA    CLA22332   4.885   0.927   5.316  0.1036  0.4839 -0.2660
  273CLA    CLA22333   1.610   6.442   4.114 -0.0254  0.4194  0.3817
  274CLA    CLA22334   3.718   4.777  14.112 -0.0711  0.3418  0.2220
  275CLA    CLA22335   2.677   1.829  11.498  0.0349  0.0743 -0.1882
  276CLA    CLA22336   2.813   3.323   0.194 -0.2593  0.4449 -0.3433
  277CLA    CLA22337   1.070   6.448  13.363  0.0695  0.3092  0.0012
  278CLA    CLA22338   1.789   6.455   2.948  0.3724 -0.0953 -0.1330
  279CLA    CLA22339   1.055   0.678   0.476 -0.2250 -0.2504 -0.0783
  280CLA    CLA22340   4.685   2.001   1.668 -0.2763  0.2265  0.1495
  281CLA    CLA22341   5.801   2.869   2.191 -0.1462 -0.3822  0.1637
  282CLA    CLA22342   5.601   1.518   0.682 -0.3680  0.5387  0.2205
  283CLA    CLA22343   5.530   6.045  13.620 -0.5346 -0.6350 -0.1932
  284CLA    CLA22344   4.173   4.901  13.026  0.0799  0.0297 -0.1424
  285CLA    CLA22345   1.999   6.792   5.680  0.1177 -0.4555  0.4742
  286CLA    CLA22346   6.239   2.580   4.371 -0.2676  0.0117  0.0848
  287CLA    CLA22347   6.153   4.445   1.108  0.1997 -0.2130 -0.0004
  288CLA    CLA22348   3.574   2.999   2.568  0.0205 -0.0747  0.3652
  289CLA    CLA22349   6.139   3.579  15.102 -0.2725 -0.1130 -0.1333
  290CLA    CLA22350   0.005   3.940  13.517 -0.3250 -0.2240 -0.1843
  291CLA    CLA22351   5.218   3.854  13.685  0.3300 -0.0130  0.1293
  292CLA    CLA22352   2.801   1.421  15.896 -0.4272 -0.4633  0.0134
  293CLA    CLA22353   0.992   5.387  13.996 -0.0959 -0.2544 -0.2152
  294CLA    CLA22354   3.601   2.072  11.082  0.0218  0.2484  0.3899
  295CLA    CLA22355   5.101   0.218  13.465 -0.2553 -0.0722  0.0169
  296CLA    CLA22356   0.633   3.187   0.056  0.0782  0.0810 -0.0568
  297CLA    CLA22357   2.756   2.722   3.210 -0.3789 -0.1252  0.4944
  298CLA    CLA22358   0.578   3.260   0.824  0.3253 -0.2620 -0.0149
  299CLA    CLA22359   5.396   1.553   3.695  0.7256  0.4057 -0.1937
  300CLA    CLA22360   3.475   4.592  11.250  0.1352  0.0383  0.2910
  301CLA    CLA22361   6.066   1.910  13.019 -0.1836  0.0301 -0.0285
  302CLA    CLA22362   5.835   4.554  13.330 -0.1293 -0.1880  0.1706
  303CLA    CLA22363   2.070   4.865   5.625 -0.1616 -0.0535  0.2282
  304CLA    CLA22364   2.806   0.962  13.060 -0.0970  0.2429  0.1004
  305CLA    CLA22365   5.507   6.476   3.888  0.2097  0.1085  0.0455
  306CLA    CLA22366   1.191   5.706  12.382  0.2536  0.4061  0.0790
  307CLA    CLA22367   0.494   6.805  11.289  0.3487 -0.3867  0.2780
  308CLA    CLA22368   6.269   4.585  16.203  0.1223  0.0233  0.1313
  309CLA    CLA22369   2.249   5.891  13.933  0.0815 -0.0918  0.0924
  310CLA    CLA22370   5.059   2.865   1.441 -0.2370 -0.1015 -0.0710
  311CLA    CLA22371   2.023   1.643  11.883  0.1042  0.0892 -0.0015
  312CLA    CLA22372   4.197   2.251   4.913 -0.2133  0.1586 -0.1586
  313CLA    CLA22373   2.631   1.593   5.053 -0.0937  0.0402 -0.6824
  314CLA    CLA22374   1.296   0.599  12.437  0.1156 -0.3238 -0.1258
  315CLA    CLA22375   4.753   4.723  12.755 -0.3213 -0.0758  0.0581
  316CLA    CLA22376   1.948   6.154  16.355 -0.1550  0.0006 -0.1894
  317CLA    CLA22377   5.659   3.765  16.690  0.1435 -0.2584  0.1181
  318CLA    CLA22378   4.498   4.399   2.322  0.2752 -0.1880 -0.4530
  319CLA    CLA22379   6.227   6.447  14.045 -0.0550 -0.3206 -0.0284
  320CLA    CLA22380   3.399   0.015   1.646  0.4853 -0.4132  0.3139
  321CLA    CLA22381   6.236   6.494   3.157  0.1950 -0.2691  0.0705
  322CLA    CLA22382   2.084   3.075  15.784 -0.0320  0.0966  0.0163
  323TIP3   OH222383   5.079   2.974   0.385 -0.1138 -0.0454  0.0174
  323TIP3    H122384   5.119   3.060   0.399  0.3480 -0.5771  2.3496
  323TIP3    H222385   4.997   2.977   0.435 -0.7838 -0.5215 -1.0185
  324TIP3   OH222386   6.770   6.592   3.580 -0.2223  0.2008 -0.3695
  324TIP3    H122387   6.795   6.508   3.621  2.5584  0.3983 -1.4381
  324TIP3    H222388   6.750   6.649   3.654  2.4384 -0.1226  0.7292
  325TIP3   OH222389   1.742   5.109   0.979 -0.5133 -0.4432 -0.0882
  325TIP3    H122390   1.786   5.047   0.921 -0.6374  1.7240 -2.6516
  325TIP3    H222391   1.649   5.085   0.973 -0.3936 -0.9814  0.1827
  326TIP3   OH222392   0.639   2.354  13.242 -0.6115 -0.0566  0.4176
  326TIP3    H122393   0.596   2.407  13.174  0.1737 -0.0806 -0.1125
  326TIP3    H222394   0.730   2.348  13.213 -1.0045 -3.2674 -0.5797
  327TIP3   OH222395   4.890   3.356   1.755 -0.0924  0.2482  0.3526
  327TIP3    H122396   4.929   3.396   1.678  0.0301  0.1848  0.3802
  327TIP3    H222397   4.932   3.400   1.829 -0.9642  1.0375  0.3946
  328TIP3   OH222398   6.316   5.860   0.352 -0.3750  0.1101 -0.5957
  328TIP3    H122399   6.359   5.840   0.435  1.7999  1.8547 -1.2096
  328TIP3    H222400   6.349   5.793   0.291 -1.3944 -0.7177 -0.2730
  329TIP3   OH222401   2.708   3.095   3.465  0.0944 -0.5849 -0.4164
  329TIP3    H122402   2.616   3.102   3.492  0.1966  1.4674 -0.3746
  329TIP3    H222403   2.722   3.173   3.412  1.4843 -1.5612 -1.5221
  330TIP3   OH222404   4.501   1.076   1.546  0.0178  0.0433 -0.5331
  330TIP3    H122405   4.443   1.094   1.620  0.0802  2.0125 -0.9061
  330TIP3    H222406   4.443   1.079   1.470  0.3081  0.2382 -0.7494
  331TIP3   OH222407   4.794   1.598   4.225  0.0638 -0.1240  0.5411
  331TIP3    H122408   4.773   1.514   4.183  1.1050 -0.3311  0.4169
  331TIP3    H222409   4.823   1.575   4.313 -2.2804  0.3238  1.5042
  332TIP3   OH222410   5.359   5.447  13.466 -0.0241 -0.2547  0.2666
  332TIP3    H122411   5.287   5.497  13.428 -0.7883 -2.1671 -0.9388
  332TIP3    H222412   5.438   5.485  13.427 -0.6558 -0.7098 -1.5342
  333TIP3   OH222413   5.459   0.200  12.225  0.2644  0.0959  0.2879
  333TIP3    H122414   5.519   0.274  12.233  0.0699  0.7208 -2.6827
  333TIP3    H222415   5.466   0.154  12.308  1.1804  2.8500  1.8717
  334TIP3   OH222416   6.348   1.587   0.329  0.0156 -0.0145 -0.4520
  334TIP3    H122417   6.430   1.608   0.375  0.7605 -0.8746 -1.3222
  334TIP3    H222418   6.303   1.526   0.388  2.0073 -2.9350 -1.6754
  335TIP3   OH222419   4.445   3.743   1.994 -0.3074 -0.6484  0.2552
  335TIP3    H122420   4.509   3.778   2.056  0.3516 -0.6752 -0.4006
  335TIP3    H222421   4.380   3.813   1.983 -1.2624 -1.1762  2.0947
  336TIP3   OH222422   5.374   1.456  16.004  0.3720 -0.7868  0.3632
  336TIP3    H122423   5.344   1.455  15.913 -1.5656 -1.4097  0.9697
  336TIP3    H222424   5.324   1.526  16.045  2.6541  0.8225  0.5649
  337TIP3   OH222425   6.127   5.973   3.321 -0.2360 -0.0981  0.2510
  337TIP3    H122426   6.157   5.894   3.276 -1.1594 -0.6253  0.5293
  337TIP3    H222427   6.056   6.006   3.266  0.4837  0.8391 -0.1350
  338TIP3   OH222428   1.342   1.794  14.387  0.2899  0.5920  0.1884
  338TIP3    H122429   1.262   1.799  14.439 -0.0095 -1.3954  0.0112
  338TIP3    H222430   1.409   1.768  14.450  0.7479  1.9213  0.2707
  339TIP3   OH222431   4.280   1.198   4.645  0.7533  0.5647 -0.0993
  339TIP3    H122432   4.373   1.201   4.666  1.0020 -0.3510 -0.9524
  339TIP3    H222433   4.275   1.228   4.554  0.2339  0.5579 -0.0745
  340TIP3   OH222434   3.716   3.488   4.828 -0.0971  0.7095  0.5475
  340TIP3    H122435   3.753   3.523   4.908 -1.0280  0.4032  1.1269
  340TIP3    H222436   3.777   3.515   4.759  0.6262  1.1060  1.3301
  341TIP3   OH222437   2.398   6.237   4.499  0.2995 -0.2954  0.5181
  341TIP3    H122438   2.385   6.331   4.486 -0.8745 -0.3820  0.9276
  341TIP3    H222439   2.341   6.214   4.572  1.0461 -1.2212  0.8350
  342TIP3   OH222440   0.542   2.376  11.483 -0.2412 -0.0940 -0.3175
  342TIP3    H122441   0.568   2.344  11.397 -2.0536 -1.1203 -0.5409
  342TIP3    H222442   0.451   2.347  11.493 -0.5399  1.2325  1.3529
  343TIP3   OH222443   2.063   5.943   0.800 -0.2869  0.0019  0.1843
  343TIP3    H122444   2.086   5.900   0.718  1.1817 -0.1508  0.6581
  343TIP3    H222445   2.012   5.878   0.848 -1.8566  0.3709 -0.9096
  344TIP3   OH222446   6.788   5.601   1.592  0.2151 -0.1571  0.3361
  344TIP3    H122447   6.843   5.625   1.667  0.3622  1.3746 -0.2167
  344TIP3    H222448   6.699   5.616   1.622  0.3108  1.3816 -0.0534
  345TIP3   OH222449   5.557   0.523  11.409 -0.0584  0.6436  0.6384
  345TIP3    H122450   5.611   0.456  11.367 -2.2142 -1.1279  0.4634
  345TIP3    H222451   5.579   0.515  11.502  1.3044  1.2747  0.3909
  346TIP3   OH222452   0.802   6.084  15.224 -0.2751  1.1262  0.1630
  346TIP3    H122453   0.831   6.110  15.136 -1.3672 -1.4739 -1.0830
  346TIP3    H222454   0.783   5.990  15.216 -0.7546  0.8708  3.1209
  347TIP3   OH222455   5.458   6.334   5.299 -0.1532 -0.4880  0.1201
  347TIP3    H122456   5.521   6.264   5.278 -1.4329 -1.0168 -2.3406
  347TIP3    H222457   5.373   6.293   5.285 -0.9912  0.9459  0.9019
  348TIP3   OH222458   5.906   2.641   1.809  0.5613 -0.0792 -0.3223
  348TIP3    H122459   5.816   2.614   1.827  0.9754 -0.1064  2.0291
  348TIP3    H222460   5.901   2.736   1.799  0.2328 -0.1164 -0.5418
  349TIP3   OH222461   3.662   2.394   4.314  0.1694 -0.3664 -0.2209
  349TIP3    H122462   3.743   2.440   4.336  0.2608  0.0269 -1.3405
  349TIP3    H222463   3.612   2.394   4.395  1.6871 -1.4922  0.7772
  350TIP3   OH222464   5.316   2.167  14.180  0.5742  0.3900  0.9644
  350TIP3    H122465   5.265   2.145  14.258 -2.4671  2.2856 -0.3290
  350TIP3    H222466   5.375   2.236  14.209  1.0082 -0.3800  2.0077
  351TIP3   OH222467   0.745   0.202   4.819 -0.7279 -0.2095  0.4150
  351TIP3    H122468   0.835   0.192   4.851 -0.2944  1.7689 -0.0676
  351TIP3    H222469   0.720   0.113   4.792  1.7692 -0.5219 -1.2295
  352TIP3   OH222470   4.739   0.779   4.417 -0.2384 -0.4136 -0.0146
  352TIP3    H122471   4.751   0.720   4.491 -3.1901 -2.9628 -1.3061
  352TIP3    H222472   4.827   0.800   4.387  0.9740 -1.2641  2.6691
  353TIP3   OH222473   3.670   0.486   5.306 -0.3553 -0.1901  0.1467
  353TIP3    H122474   3.759   0.517   5.286 -0.2920  0.3972  1.2630
  353TIP3    H222475   3.683   0.406   5.357 -0.4921 -0.6937 -0.5926
  354TIP3   OH222476   6.806   5.134   4.224  0.2184  0.2031 -0.3064
  354TIP3    H122477   6.858   5.061   4.260 -0.3213  0.4660  1.0791
  354TIP3    H222478   6.827   5.208   4.282 -1.9934  0.2124  0.5804
  355TIP3   OH222479   4.986   1.321  11.855  0.1907 -0.0390 -0.0578
  355TIP3    H122480   4.984   1.413  11.882  0.2682  0.5133 -1.7783
  355TIP3    H222481   5.023   1.323  11.767  0.6895 -1.7893  0.0602
  356TIP3   OH222482   2.849   2.634   6.548  0.1915  0.3631  0.1640
  356TIP3    H122483   2.933   2.604   6.514 -0.5422 -0.4784 -0.9381
  356TIP3    H222484   2.787   2.617   6.478 -1.1019 -0.0563  1.3711
  357TIP3   OH222485   0.677   3.346   5.703  0.1970  0.7652 -0.4505
  357TIP3    H122486   0.676   3.281   5.773  0.9407 -0.8509 -1.8663
  357TIP3    H222487   0.608   3.318   5.643  0.2260  1.5492 -0.8660
  358TIP3   OH222488   4.979   5.843   2.767 -0.0836 -0.0524  0.0769
  358TIP3    H122489   5.002   5.822   2.677 -0.5938 -0.5653  0.0559
  358TIP3    H222490   4.932   5.926   2.762 -0.3817 -0.2333 -0.1690
  359TIP3   OH222491   4.252   6.784   0.670  0.1316 -0.3074 -0.0539
  359TIP3    H122492   4.237   6.877   0.655 -1.3119 -0.6677 -0.9918
  359TIP3    H222493   4.215   6.768   0.757  0.2028 -0.0539  0.0250
  360TIP3   OH222494   5.825   5.678  14.716  0.3051  0.0665  0.2336
  360TIP3    H122495   5.875   5.760  14.718  0.3008  0.0597  0.7121
  360TIP3    H222496   5.859   5.627  14.789 -0.3893  0.0489  0.5493
  361TIP3   OH222497   0.206   4.217  16.865 -0.3155  0.3065 -0.2296
  361TIP3    H122498   0.116   4.192  16.888 -0.3215  0.7937  0.3037
  361TIP3    H222499   0.259   4.182  16.937 -0.3216  1.7827  0.5225
  362TIP3   OH222500   3.359   3.006  15.168 -0.0967  0.0146 -0.3983
  362TIP3    H122501   3.309   3.086  15.153  1.0973  0.7327 -0.6706
  362TIP3    H222502   3.441   3.036  15.209  1.2451 -0.8132 -2.3100
  363TIP3   OH222503   0.504   6.182   4.822 -0.5983 -0.2267 -0.6490
  363TIP3    H122504   0.432   6.132   4.784 -0.6473 -0.2487 -0.5276
  363TIP3    H222505   0.569   6.187   4.752 -0.9887  0.3573 -0.9821
  364TIP3   OH222506   3.230   4.910  12.088 -0.3655 -0.2245 -0.1820
  364TIP3    H122507   3.178   4.971  12.036  1.4033  2.5565  1.1126
  364TIP3    H222508   3.183   4.905  12.171  0.6747  1.3445  0.5549
  365TIP3   OH222509   4.622   4.085  10.787  0.4725  0.0123  0.0412
  365TIP3    H122510   4.704   4.127  10.816  0.4268  0.6200 -0.6690
  365TIP3    H222511   4.630   4.081  10.692  0.9895 -2.6985  0.1282
  366TIP3   OH222512   2.036   3.551  15.532 -0.4506 -0.1239  0.0691
  366TIP3    H122513   2.013   3.542  15.624 -0.6188  0.0108  0.0397
  366TIP3    H222514   2.093   3.627  15.528 -0.6986  0.0599  0.0163
  367TIP3   OH222515   6.494   5.617   0.930  0.5937 -0.2545  0.1225
  367TIP3    H122516   6.562   5.682   0.950 -0.1210  0.2331  1.0335
  367TIP3    H222517   6.538   5.554   0.873  1.7080  0.2464  0.3895
  368TIP3   OH222518   6.445   6.419  15.401  0.0423 -0.4318  0.2321
  368TIP3    H122519   6.385   6.357  15.359 -0.8007  2.2457 -2.8811
  368TIP3    H222520   6.532   6.393  15.370 -0.1567 -0.8027 -0.0276
  369TIP3   OH222521   1.633   3.271  11.739  0.2687  0.1689 -0.0773
  369TIP3    H122522   1.645   3.242  11.830  2.6386  1.0506 -0.0365
  369TIP3    H222523   1.664   3.197  11.686  0.6516  0.3419 -0.1022
  370TIP3   OH222524   4.618   3.296  16.817  0.0500 -0.3160 -0.6851
  370TIP3    H122525   4.553   3.255  16.760  0.6215  0.0667 -1.6279
  370TIP3    H222526   4.626   3.385  16.784  0.2837 -0.0377  0.0938
  371TIP3   OH222527   5.526   5.446   2.262 -0.3014 -0.2709 -0.0888
  371TIP3    H122528   5.436   5.465   2.234 -0.3781  0.3450  0.5302
  371TIP3    H222529   5.515   5.407   2.349  0.0094 -0.6499 -0.2183
  372TIP3   OH222530   0.431   5.638  14.494 -0.1620  0.0812 -0.0227
  372TIP3    H122531   0.521   5.635  14.528  0.1755  0.9867 -0.8000
  372TIP3    H222532   0.431   5.576  14.420 -0.2175 -0.0090  0.0521
  373TIP3   OH222533   3.013   0.973   5.792 -0.2812  0.0198 -0.7363
  373TIP3    H122534   3.023   1.064   5.764 -1.6731  0.8952  1.3426
  373TIP3    H222535   2.930   0.971   5.840  0.0423 -2.1944 -0.1340
  374TIP3   OH222536   4.039   3.828   0.286  0.3694  0.2699 -0.1268
  374TIP3    H122537   4.006   3.910   0.320 -0.1238 -0.2692  0.7166
  374TIP3    H222538   4.070   3.780   0.363 -1.5158 -1.3162 -0.2787
  375TIP3   OH222539   3.320   1.630  13.133  0.6861  0.3211 -0.1869
  375TIP3    H122540   3.290   1.552  13.179  0.6027  0.0419 -0.7068
  375TIP3    H222541   3.409   1.609  13.104  0.8698  0.6280  0.1543
  376TIP3   OH222542   2.338   3.038  16.624 -0.0460  0.6275  0.5946
  376TIP3    H122543   2.384   3.095  16.562  0.4595  0.4706  0.8147
  376TIP3    H222544   2.250   3.030  16.589  0.5469 -0.3767 -0.7156
  377TIP3   OH222545   1.575   5.245   2.995  0.3554  0.3785  0.2996
  377TIP3    H122546   1.591   5.312   3.061 -0.3708  0.2170  0.6484
  377TIP3    H222547   1.662   5.206   2.979  0.5639  0.5207  1.0504
  378TIP3   OH222548   0.050   4.335  14.682 -0.3531  0.3071  0.8175
  378TIP3    H122549   0.092   4.412  14.720 -0.2084 -0.3198  1.9986
  378TIP3    H222550   0.037   4.357  14.590  2.3062  0.6455  0.4433
  379TIP3   OH222551   0.237   6.692   6.154  0.4208 -0.0942 -0.3317
  379TIP3    H122552   0.197   6.744   6.223  1.2285  0.9445 -0.6168
  379TIP3    H222553   0.331   6.694   6.173  0.4690 -1.4267 -0.3766
  380TIP3   OH222554   1.299   6.793   6.393  1.2330  0.2073 -0.3347
  380TIP3    H122555   1.329   6.719   6.446 -0.6447 -0.0921  0.3775
  380TIP3    H222556   1.218   6.763   6.353 -0.4393  2.3184  1.1906
  381TIP3   OH222557   1.059   3.018  14.263 -0.2838  0.2521  0.0201
  381TIP3    H122558   1.146   2.989  14.236  0.0724 -0.3027  1.6423
  381TIP3    H222559   1.069   3.111  14.283 -0.4916  0.6050 -1.4188
  382TIP3   OH222560   5.591   4.171  11.884 -0.3207 -0.2118 -0.3671
  382TIP3    H122561   5.637   4.092  11.858  1.5383  0.0985  1.6532
  382TIP3    H222562   5.542   4.145  11.962 -0.6745  0.3501 -0.3985
  383TIP3   OH222563   2.754   1.191  10.609 -0.5528  0.0709  0.2548
  383TIP3    H122564   2.819   1.168  10.543 -2.3496 -1.8664 -0.9751
  383TIP3    H222565   2.804   1.235  10.678  2.0222 -1.2849 -0.6231
  384TIP3   OH222566   3.459   2.414   3.041 -0.2319  0.3696 -0.3693
  384TIP3    H122567   3.536   2.357   3.038 -1.2920 -1.1489  0.1204
  384TIP3    H222568   3.489   2.497   3.002  1.3688 -0.4918 -1.0707
  385TIP3   OH222569   6.349   0.365  15.583  0.0772  0.0100  0.6064
  385TIP3    H122570   6.270   0.310  15.581  0.8554 -1.1030 -0.2437
  385TIP3    H222571   6.376   0.372  15.492  0.7876  0.6697  0.8556
  386TIP3   OH222572   3.397   0.555   1.781  0.5334  0.2890 -0.3757
  386TIP3    H122573   3.321   0.611   1.798  0.6732  0.2614  0.3552
  386TIP3    H222574   3.378   0.515   1.696  0.0210  0.7606 -0.4923
  387TIP3   OH222575   4.438   1.587  11.608  0.2763 -0.2352 -0.0154
  387TIP3    H122576   4.507   1.638  11.566 -0.7353  0.6354 -0.6749
  387TIP3    H222577   4.412   1.522  11.542  0.8628 -0.9495  0.4495
  388TIP3   OH222578   1.623   1.651   5.319 -0.0522  0.0642 -0.4138
  388TIP3    H122579   1.542   1.701   5.311 -0.2024  0.0643  0.9226
  388TIP3    H222580   1.629   1.630   5.412  0.3242 -1.8731 -0.8327
  389TIP3   OH222581   0.077   1.468   2.388 -0.5211  0.0832 -0.6537
  389TIP3    H122582   0.066   1.506   2.301  2.3286 -0.9701 -1.6035
  389TIP3    H222583   0.135   1.528   2.434 -0.9303 -0.0435  0.0413
  390TIP3   OH222584   2.828   4.787   2.394  0.3275  0.4619 -1.0750
  390TIP3    H122585   2.784   4.785   2.478  2.0244 -2.8970 -0.0841
  390TIP3    H222586   2.762   4.757   2.331 -0.2893  0.7853 -0.5902
  391TIP3   OH222587   6.588   5.497  17.012  0.0910 -0.1036 -0.6119
  391TIP3    H122588   6.567   5.568  16.952 -0.3388 -1.8253 -2.6368
  391TIP3    H222589   6.504   5.470  17.048  0.2688  0.4671  0.2592
  392TIP3   OH222590   6.069   2.720   0.901  0.4661 -0.4444  0.3142
  392TIP3    H122591   6.078   2.814   0.886  0.3756 -0.4708  0.1038
  392TIP3    H222592   5.977   2.708   0.925  1.0356 -0.0811  3.1162
  393TIP3   OH222593   1.686   2.183   4.796  0.1882  0.1911  0.4503
  393TIP3    H122594   1.763   2.135   4.764 -0.2579 -0.8623  0.8844
  393TIP3    H222595   1.719   2.234   4.870  0.4632 -0.3061  0.6751
  394TIP3   OH222596   1.439   6.241  14.868 -0.5406  0.4624  0.5992
  394TIP3    H122597   1.525   6.270  14.898  0.3764 -0.6905 -0.7987
  394TIP3    H222598   1.423   6.291  14.788 -1.5925  1.2980  1.2984
  395TIP3   OH222599   6.149   2.502  13.879 -0.2396  0.1431 -0.4110
  395TIP3    H122600   6.203   2.543  13.946 -0.1905 -0.2436 -0.2087
  395TIP3    H222601   6.194   2.420  13.859 -0.3759  0.1504 -0.7490
  396TIP3   OH222602   3.538   2.892  16.503  0.4267 -0.2669 -0.3321
  396TIP3    H122603   3.592   2.972  16.509 -0.9906  0.6233  1.4885
  396TIP3    H222604   3.508   2.892  16.412 -0.1079  1.6963 -0.2124
  397TIP3   OH222605   5.926   0.728   0.666 -0.1784  0.8912  0.3836
  397TIP3    H122606   5.836   0.741   0.635 -0.1387 -0.3988 -0.3508
  397TIP3    H222607   5.932   0.634   0.681  0.7590  1.0939  1.4051
  398TIP3   OH222608   1.028   6.137   1.197  0.0693  0.1104 -0.0765
  398TIP3    H122609   0.945   6.088   1.191 -0.1539  0.5952 -1.4979
  398TIP3    H222610   1.001   6.225   1.223  0.1451  0.2396 -0.4326
  399TIP3   OH222611   0.312   6.185  14.056  0.3515  0.3434 -0.3125
  399TIP3    H122612   0.364   6.154  13.982 -0.3086 -2.3467  0.2214
  399TIP3    H222613   0.354   6.147  14.133 -0.5922  0.7282  0.4213
  400TIP3   OH222614   6.074   4.831   2.834  0.4110 -0.0463  0.1926
  400TIP3    H122615   6.069   4.922   2.805  1.9125 -0.7234 -2.5966
  400TIP3    H222616   6.141   4.831   2.902  0.4563  0.9468  0.1623
  401TIP3   OH222617   0.799   6.480   1.500  0.6133  0.0982 -0.1383
  401TIP3    H122618   0.771   6.527   1.579  0.2312 -1.7252  0.8827
  401TIP3    H222619   0.822   6.392   1.532  2.1803 -0.1451 -1.8030
  402TIP3   OH222620   2.040   5.170   3.512 -0.5155  0.2005 -0.7446
  402TIP3    H122621   2.031   5.179   3.417  1.9682  0.3763 -1.0369
  402TIP3    H222622   2.114   5.111   3.524 -1.1633 -0.3071  1.1186
  403TIP3   OH222623   2.647   6.791   1.538 -0.1122  0.0772 -0.4944
  403TIP3    H122624   2.733   6.750   1.540 -0.0357  0.2262  1.1923
  403TIP3    H222625   2.658   6.871   1.590 -1.4747 -0.3995  0.6057
  404TIP3   OH222626   6.489   0.451   2.460  0.0403  0.5949  0.3781
  404TIP3    H122627   6.508   0.383   2.525 -0.8357 -0.8520 -0.8359
  404TIP3    H222628   6.490   0.532   2.511 -0.1378 -0.4308  2.1206
  405TIP3   OH222629   0.209   5.335  14.290 -0.8944 -0.3519 -0.3011
  405TIP3    H122630   0.209   5.402  14.221 -0.0335  1.7296  1.5894
  405TIP3    H222631   0.184   5.383  14.369  0.7257 -2.0697  1.3333
  406TIP3   OH222632   4.624   2.698   4.014  0.2440 -0.4247  0.1389
  406TIP3    H122633   4.695   2.708   4.078 -2.5520 -0.7050  3.6064
  406TIP3    H222634   4.587   2.786   4.007 -0.7867 -0.8010  0.6476
  407TIP3   OH222635   4.229   6.021   4.514  0.0437 -0.2309 -0.4764
  407TIP3    H122636   4.301   6.062   4.466  0.2017 -0.4639 -0.4421
  407TIP3    H222637   4.162   6.006   4.448  0.9130 -2.0855 -0.9914
  408TIP3   OH222638   0.597   3.040   3.640  0.1726  0.5926  0.6284
  408TIP3    H122639   0.675   3.059   3.693  0.4891 -0.4165  0.5456
  408TIP3    H222640   0.524   3.061   3.698  0.5137  0.4126  1.1354
  409TIP3   OH222641   4.208   0.395  15.880  0.0853  0.4760 -0.6763
  409TIP3    H122642   4.198   0.476  15.831 -0.7340 -0.1495 -1.5897
  409TIP3    H222643   4.143   0.336  15.842  1.8405 -1.1983 -1.2555
  410TIP3   OH222644   3.073   3.329   2.135 -0.1752  0.1156 -0.6088
  410TIP3    H122645   3.066   3.252   2.078  2.5328  0.2493 -1.2533
  410TIP3    H222646   3.117   3.297   2.214 -0.6930  0.6590 -0.0904
  411TIP3   OH222647   3.670   0.568   2.432  0.0029 -0.5029 -0.4930
  411TIP3    H122648   3.654   0.652   2.389 -0.0566 -0.2061  0.1102
  411TIP3    H222649   3.732   0.523   2.374 -0.0333 -0.0838 -0.8625
  412TIP3   OH222650   2.998   1.768   6.690 -0.0836 -0.1000 -0.0173
  412TIP3    H122651   2.925   1.747   6.748 -0.6642  3.8590  0.9597
  412TIP3    H222652   2.957   1.783   6.605  0.0185 -0.6169 -0.1620
  413TIP3   OH222653   0.349   2.367  16.125  0.5482  0.3597 -0.3478
  413TIP3    H122654   0.368   2.423  16.201  2.8069 -0.9497  0.1637
  413TIP3    H222655   0.274   2.314  16.153 -0.5443  1.9088 -0.2093
  414TIP3   OH222656   0.755   4.177   1.940 -0.1288  0.0670  0.2689
  414TIP3    H122657   0.798   4.174   1.854  2.1394 -1.4763  1.3734
  414TIP3    H222658   0.710   4.092   1.946  1.1039 -0.5325  1.2499
  415TIP3   OH222659   1.692   6.308  13.808  0.0776  0.1400  0.0165
  415TIP3    H122660   1.641   6.386  13.830  2.2502  1.7030 -0.1695
  415TIP3    H222661   1.699   6.260  13.891 -0.6438  0.5044  0.3025
  416TIP3   OH222662   4.254   5.853   5.291  0.2954  0.4064  0.5773
  416TIP3    H122663   4.334   5.800   5.290 -0.3200 -0.5275 -0.0586
  416TIP3    H222664   4.222   5.849   5.201  0.6009  2.4491  0.3328
  417TIP3   OH222665   1.676   6.567  17.058  0.0800 -0.1541  0.0367
  417TIP3    H122666   1.684   6.519  17.140  2.7385  0.3856  0.1945
  417TIP3    H222667   1.708   6.506  16.991 -0.0551  0.1299 -0.2883
  418TIP3   OH222668   0.064   2.521   3.328  0.1406  0.4352 -0.0157
  418TIP3    H122669   0.082   2.611   3.301 -2.5328  0.6247 -1.5566
  418TIP3    H222670  -0.018   2.527   3.377 -0.6941 -1.2733 -1.1343
  419TIP3   OH222671   1.698   2.150   0.280  0.1912 -0.1142  0.3940
  419TIP3    H122672   1.694   2.200   0.199 -1.6128 -0.3722  0.2672
  419TIP3    H222673   1.691   2.216   0.349  2.1039  0.1404  0.3935
  420TIP3   OH222674   4.244   3.297   5.452  0.0990 -0.1817  0.2978
  420TIP3    H122675   4.173   3.274   5.392  2.5040 -2.0646 -2.0657
  420TIP3    H222676   4.261   3.390   5.435  0.1298 -0.4572 -1.3809
  421TIP3   OH222677   1.679   5.350  16.854  1.1645 -0.4155 -0.0426
  421TIP3    H122678   1.696   5.260  16.829  1.3836 -1.3003  2.8993
  421TIP3    H222679   1.765   5.384  16.880  0.9975  0.4719 -0.6188
  422TIP3   OH222680   2.072   1.293  16.254  0.0345  0.0774 -0.1569
  422TIP3    H122681   2.091   1.311  16.161  0.6127 -0.5537 -0.1596
  422TIP3    H222682   1.999   1.353  16.274  1.3077  1.7931 -0.4177
  423TIP3   OH222683   0.369   6.459   2.818 -0.3836  0.3268 -0.1074
  423TIP3    H122684   0.409   6.541   2.847 -2.0973  0.9786  0.5270
  423TIP3    H222685   0.275   6.472   2.831 -0.6567 -2.0074  0.6734
  424TIP3   OH222686   4.155   0.438  13.730 -0.3532 -0.2241  0.3037
  424TIP3    H122687   4.198   0.368  13.681 -0.6493 -1.0569  1.1984
  424TIP3    H222688   4.135   0.399  13.815 -1.7858  0.5017  0.3375
  425TIP3   OH222689   4.321   1.864  11.139  0.4011 -0.1417 -0.4411
  425TIP3    H122690   4.301   1.951  11.176  0.8416 -1.2065  2.5984
  425TIP3    H222691   4.321   1.878  11.044 -0.8648  2.8799 -0.1260
  426TIP3   OH222692   4.300   4.240   6.036 -0.4194 -0.2816 -0.2370
  426TIP3    H122693   4.364   4.281   6.094 -0.6735 -0.1952 -0.0158
  426TIP3    H222694   4.338   4.247   5.948  0.5109 -1.4238  0.0417
  427TIP3   OH222695   0.620   2.819  15.348  0.2578  0.2130  0.2202
  427TIP3    H122696   0.603   2.863  15.431 -1.4805  0.7963 -0.4005
  427TIP3    H222697   0.668   2.740  15.372 -0.9580 -0.0776  1.8812
  428TIP3   OH222698   1.046   3.794  14.502 -0.3725  0.3330 -0.0759
  428TIP3    H122699   0.973   3.849  14.529 -0.3931  0.0743  0.4020
  428TIP3    H222700   1.068   3.825  14.414 -2.3660 -0.9009 -1.0832
  429TIP3   OH222701   6.699   4.806   4.123  0.5328  0.3334 -0.4175
  429TIP3    H122702   6.692   4.880   4.064  1.3366 -0.8218 -2.0549
  429TIP3    H222703   6.698   4.729   4.065 -1.3808 -1.0224  1.2620
  430TIP3   OH222704   1.993   5.561  15.210  0.0100  0.4906  0.0022
  430TIP3    H122705   2.080   5.598  15.228  0.5124 -1.2023  1.3270
  430TIP3    H222706   1.970   5.514  15.290 -1.5001 -0.3124 -0.8584
  431TIP3   OH222707   5.536   1.906  15.483 -0.0490  0.3610 -0.1071
  431TIP3    H122708   5.595   1.836  15.456 -1.2859  0.2723 -2.9528
  431TIP3    H222709   5.449   1.874  15.457 -1.0573  1.5664  1.6016
  432TIP3   OH222710   3.619   1.617  13.103  0.2915 -0.4732 -0.1092
  432TIP3    H122711   3.610   1.658  13.017  0.5931  0.2127  0.1813
  432TIP3    H222712   3.631   1.524  13.084 -0.7918 -0.4906 -0.7593
  433TIP3   OH222713   1.721   6.766  12.070  0.1212  0.7744  0.1432
  433TIP3    H122714   1.702   6.807  12.154 -2.3913  0.5262 -0.2284
  433TIP3    H222715   1.765   6.834  12.019 -0.3468  1.6614  0.9034
  434TIP3   OH222716   4.891   6.453  14.082 -0.1768  0.1842 -0.4105
  434TIP3    H122717   4.923   6.538  14.052  1.2543  0.0711  0.6946
  434TIP3    H222718   4.854   6.412  14.004  0.8270  1.0561 -1.3687
  435TIP3   OH222719   3.007   5.008   1.983 -0.3693  0.5176 -0.2868
  435TIP3    H122720   3.023   4.936   1.922  0.0371  0.8392 -0.5659
  435TIP3    H222721   3.095   5.037   2.008 -0.5195  0.0079  0.9098
  436TIP3   OH222722   3.527   2.856   4.724 -0.3691 -0.0444 -0.4835
  436TIP3    H122723   3.492   2.903   4.799 -0.7152 -0.4296 -0.4012
  436TIP3    H222724   3.560   2.774   4.759  0.3901  0.1978 -0.6019
  437TIP3   OH222725   1.538   3.456  11.975  0.4071  0.0799  0.1458
  437TIP3    H122726   1.556   3.362  11.964 -3.4794 -0.7077 -1.1291
  437TIP3    H222727   1.554   3.472  12.068  1.5038 -1.7281  0.3270
  438TIP3   OH222728   0.510   1.007   1.453 -0.4269 -0.2753 -0.1541
  438TIP3    H122729   0.426   0.998   1.498 -1.2338  0.4038 -1.4675
  438TIP3    H222730   0.543   1.093   1.480 -1.4306  0.6227 -1.6096
  439TIP3   OH222731   2.056   5.966  14.173  0.0528  0.8391  0.3694
  439TIP3    H122732   2.121   5.934  14.111 -0.8261 -2.3301  0.8823
  439TIP3    H222733   2.070   5.913  14.252 -1.7217  1.6013  1.2522
  440TIP3   OH222734   0.738   6.474  12.344 -0.1810 -0.2115  0.7677
  440TIP3    H122735   0.774   6.459  12.432 -0.4198  0.9907  1.0833
  440TIP3    H222736   0.764   6.563  12.322 -1.7221  0.1746  0.4121
  441TIP3   OH222737   2.170   2.717   5.545 -0.0918 -0.1241 -0.1836
  441TIP3    H122738   2.195   2.807   5.565  0.3869 -0.7768  2.5473
  441TIP3    H222739   2.141   2.720   5.454  1.8404  2.3682 -0.8323
  442TIP3   OH222740   1.565   1.318  13.335  0.5963 -0.2059  0.6914
  442TIP3    H122741   1.503   1.361  13.276 -0.3781 -0.6009  1.3969
  442TIP3    H222742   1.585   1.384  13.402 -0.3275 -0.5823  1.3611
  443TIP3   OH222743   3.750   1.747  12.264  0.5389 -0.1955 -0.5022
  443TIP3    H122744   3.797   1.720  12.185  1.3801 -1.2763  0.3272
  443TIP3    H222745   3.712   1.666  12.298 -0.9674  0.4772 -0.5213
  444TIP3   OH222746   0.368   3.516   1.839  0.3849 -0.0420 -0.2521
  444TIP3    H122747   0.284   3.557   1.860  0.4953 -0.2750  0.6958
  444TIP3    H222748   0.371   3.516   1.743  0.4092  2.2247 -0.3244
  445TIP3   OH222749   1.038   4.006  11.699 -0.2844  0.3488 -0.2107
  445TIP3    H122750   1.107   3.956  11.744  2.5532  4.4428  0.5752
  445TIP3    H222751   0.957   3.977  11.740  1.2615 -2.3888  1.2273
  446TIP3   OH222752   5.388   4.945   1.851  0.3224  0.1172 -0.2511
  446TIP3    H122753   5.293   4.954   1.845  0.2211  0.2217  1.1268
  446TIP3    H222754   5.420   5.032   1.873  0.5009 -0.3448  1.4593
  447TIP3   OH222755   1.678   2.392  13.153 -0.1285  0.4699 -0.1448
  447TIP3    H122756   1.665   2.381  13.247 -0.8999  0.4017 -0.2523
  447TIP3    H222757   1.730   2.472  13.145  1.8338 -0.6808  0.4341
  448TIP3   OH222758   3.456   3.702  16.858  0.2732  0.1764 -0.5102
  448TIP3    H122759   3.542   3.743  16.846  2.3198 -3.2960  0.5756
  448TIP3    H222760   3.427   3.680  16.769  2.1531 -1.4066 -0.8081
  449TIP3   OH222761   0.395   6.413   0.540  0.4833 -0.5274 -0.5602
  449TIP3    H122762   0.375   6.489   0.485  1.8759  0.4750  0.2645
  449TIP3    H222763   0.342   6.427   0.618  1.3078  0.0148 -0.0865
  450TIP3   OH222764   6.394   5.654  12.431  0.2058 -0.4069 -0.1515
  450TIP3    H122765   6.484   5.636  12.403  0.1321  0.6727 -1.1707
  450TIP3    H222766   6.339   5.599  12.376  0.2610 -2.1499  1.4377
  451TIP3   OH222767   4.946   5.081   5.099  0.6418  0.0154  0.2728
  451TIP3    H122768   4.983   4.993   5.093  2.7316  0.7917  0.7966
  451TIP3    H222769   5.004   5.127   5.159 -1.6102  1.1957  1.6695
  452TIP3   OH222770   6.361   0.810   3.854 -0.2236 -0.5632  0.2787
  452TIP3    H122771   6.390   0.863   3.780  0.8085 -0.3975  0.7764
  452TIP3    H222772   6.325   0.731   3.815  0.6593 -0.6463 -0.3998
  453TIP3   OH222773   1.477   5.541   0.906  0.2707 -0.1360 -0.1169
  453TIP3    H122774   1.390   5.502   0.915 -0.1364  0.9449  0.8386
  453TIP3    H222775   1.467   5.631   0.937  1.9124 -0.2336  0.8140
  454TIP3   OH222776   0.583   4.553   5.808 -0.2700 -0.1978 -0.0231
  454TIP3    H122777   0.632   4.567   5.728 -1.8098 -1.5755 -1.2882
  454TIP3    H222778   0.595   4.634   5.858  0.1386  1.0050 -1.9545
  455TIP3   OH222779   1.065   1.894   2.575 -0.5701  0.1925  0.5350
  455TIP3    H122780   1.062   1.828   2.505 -1.9889 -2.9679  3.2652
  455TIP3    H222781   1.144   1.944   2.557 -0.0117 -1.4739 -2.3968
  456TIP3   OH222782   3.680   0.937  13.042  0.1892  0.3566  0.0566
  456TIP3    H122783   3.746   0.983  12.991 -0.8696  2.2506  0.3121
  456TIP3    H222784   3.621   0.900  12.976  0.9387 -0.5031 -0.1462
  457TIP3   OH222785   6.814   4.921  14.938 -0.1019 -0.1214  0.4236
  457TIP3    H122786   6.793   4.835  14.975  0.7004 -0.4662  0.1093
  457TIP3    H222787   6.844   4.902  14.849 -0.0800  0.5052  0.2961
  458TIP3   OH222788   3.044   2.628  14.754 -0.0410 -0.3068  0.2175
  458TIP3    H122789   3.106   2.565  14.792  1.2123  0.6785 -0.1226
  458TIP3    H222790   2.962   2.580  14.748  0.6823 -1.6592  0.7019
  459TIP3   OH222791   2.193   6.041   3.452 -0.5536 -0.4599 -0.0492
  459TIP3    H122792   2.152   6.115   3.407  0.9533 -0.0176 -0.7634
  459TIP3    H222793   2.286   6.064   3.455  0.1283 -2.7768 -1.2246
  460TIP3   OH222794   5.427   3.565   3.852  0.4332 -0.3419 -0.1500
  460TIP3    H122795   5.430   3.657   3.879  1.7705 -0.8697  1.6478
  460TIP3    H222796   5.480   3.563   3.772 -1.6443  0.8298 -1.6677
  461TIP3   OH222797   0.311   4.603  16.197 -0.1166  0.1496  0.1305
  461TIP3    H122798   0.264   4.522  16.214 -1.1568  0.3726 -1.5347
  461TIP3    H222799   0.404   4.577  16.200 -0.3814 -0.7930  0.9580
  462TIP3   OH222800   2.893   1.397   4.276  0.0636  0.0849 -0.1512
  462TIP3    H122801   2.832   1.361   4.341 -0.8387  1.6286 -0.0837
  462TIP3    H222802   2.846   1.391   4.193 -0.4190  1.7449 -0.0238
  463TIP3   OH222803   1.594   4.856  16.087  0.2319 -0.1174 -0.1375
  463TIP3    H122804   1.527   4.828  16.149  0.3731  2.0283  1.0786
  463TIP3    H222805   1.657   4.784  16.085 -0.7056 -0.9885  0.7991
  464TIP3   OH222806   1.399   4.048  11.815 -0.1862 -0.6866 -0.1832
  464TIP3    H122807   1.463   3.984  11.785 -0.2744 -0.1635 -1.5834
  464TIP3    H222808   1.318   3.997  11.824 -0.2994 -0.7641 -1.4591
  465TIP3   OH222809   3.473   5.953  15.484 -0.4358  0.2812  0.0856
  465TIP3    H122810   3.495   6.046  15.489 -1.2941  0.7205 -2.6781
  465TIP3    H222811   3.398   5.942  15.541  0.6591  0.8943  1.7051
  466TIP3   OH222812   2.202   3.929   5.299  0.3660 -0.2814  0.2812
  466TIP3    H122813   2.251   3.977   5.232  1.7106 -1.3261  0.4605
  466TIP3    H222814   2.154   3.996   5.346 -0.7350  0.4824 -1.7897
  467TIP3   OH222815   6.467   2.569  15.340  0.2154  0.0785  0.3559
  467TIP3    H122816   6.506   2.495  15.294  1.4431  1.0180 -0.1643
  467TIP3    H222817   6.391   2.531  15.386 -1.3322 -0.8527 -2.6709
  468TIP3   OH222818   2.387   3.460   5.429  0.0357 -0.3971 -0.2025
  468TIP3    H122819   2.411   3.456   5.337  0.1853 -1.7110 -0.1376
  468TIP3    H222820   2.301   3.501   5.430  0.3784  0.3586 -0.8456
  469TIP3   OH222821   4.311   1.986   3.243 -0.4684  0.5625 -0.3174
  469TIP3    H122822   4.292   1.903   3.199 -0.9783 -0.3311  1.4763
  469TIP3    H222823   4.401   2.007   3.216 -0.2466 -0.6891 -0.6443
  470TIP3   OH222824   5.072   4.076  12.446 -0.2121  0.1950  0.7326
  470TIP3    H122825   5.016   4.001  12.429 -0.8864  0.4517  1.7601
  470TIP3    H222826   5.013   4.151  12.444  0.5440  0.7934 -0.8743
  471TIP3   OH222827   2.738   6.468  13.251  0.0364  1.2142 -0.9298
  471TIP3    H122828   2.716   6.478  13.344  1.2455  1.5792 -0.6683
  471TIP3    H222829   2.683   6.396  13.221 -0.8614  1.5353 -0.1014
  472TIP3   OH222830   1.615   1.865   4.297 -0.1842 -0.9570 -0.1290
  472TIP3    H122831   1.528   1.904   4.294 -0.5153 -1.5188  1.3424
  472TIP3    H222832   1.625   1.819   4.214 -0.9210 -0.1251 -0.6842
  473TIP3   OH222833   0.381   0.200   4.434 -0.3362  0.0687 -0.1132
  473TIP3    H122834   0.296   0.221   4.473 -1.0081  0.9980 -1.9457
  473TIP3    H222835   0.383   0.250   4.353  2.5150  1.0529  0.4615
  474TIP3   OH222836   4.059   4.885  15.524 -0.5052 -0.0452  0.6169
  474TIP3    H122837   4.128   4.831  15.485 -0.7492 -0.6266  0.9871
  474TIP3    H222838   4.099   4.972  15.533  0.1602 -0.3651  0.7780
  475TIP3   OH222839   3.464   0.544  13.982  0.3744 -0.2929 -0.4295
  475TIP3    H122840   3.549   0.501  13.979 -0.4488 -2.1497  0.6928
  475TIP3    H222841   3.465   0.594  14.064  0.2773 -0.6352 -0.2132
  476TIP3   OH222842   6.323   0.739   0.409 -0.1229 -0.0086 -0.0851
  476TIP3    H122843   6.270   0.765   0.485  1.0631 -1.5351  1.3390
  476TIP3    H222844   6.261   0.736   0.336 -1.0797  2.7246  0.4667
  477TIP3   OH222845   2.076   4.021  10.641  0.1377  0.2448  0.2069
  477TIP3    H122846   2.034   3.946  10.598  1.4128 -0.2804 -0.1648
  477TIP3    H222847   2.041   4.098  10.597 -0.3211 -0.1834 -0.1814
  478TIP3   OH222848   4.747   0.904  11.248  0.0167 -0.0467 -0.0192
  478TIP3    H122849   4.668   0.883  11.298 -0.0825  0.3013 -0.0270
  478TIP3    H222850   4.714   0.948  11.170  0.3412  3.0744  1.4518
  479TIP3   OH222851   3.678   6.623  14.170  0.1234 -0.3055 -0.2426
  479TIP3    H122852   3.747   6.652  14.111 -0.6541 -1.2281 -1.6854
  479TIP3    H222853   3.631   6.702  14.196 -0.1497  0.0347 -1.7223
  480TIP3   OH222854   6.172   6.466   1.221 -0.3016 -0.2210 -0.1431
  480TIP3    H122855   6.190   6.524   1.146 -0.6381 -1.3913 -1.1631
  480TIP3    H222856   6.185   6.522   1.298  1.4582  0.6364 -1.0088
  481TIP3   OH222857   1.869   4.023   3.857 -0.1617  0.0819 -0.4927
  481TIP3    H122858   1.914   3.942   3.835  1.1828  0.4854  0.6396
  481TIP3    H222859   1.896   4.085   3.789  0.9270  0.2873  0.1097
  482TIP3   OH222860   5.661   4.802   1.464  0.3670 -0.4486  0.2040
  482TIP3    H122861   5.713   4.864   1.517  1.4686 -0.4629 -0.8273
  482TIP3    H222862   5.699   4.717   1.483  0.2625 -0.5474 -0.0324
  483TIP3   OH222863   3.101   6.642   1.139  0.2975 -0.7433 -0.1299
  483TIP3    H122864   3.170   6.699   1.106 -0.7067 -0.1836 -1.3391
  483TIP3    H222865   3.041   6.631   1.065 -0.9538 -1.1473  0.9053
  484TIP3   OH222866   1.412   3.202   2.815 -0.3034 -0.1442  0.5363
  484TIP3    H122867   1.375   3.113   2.813 -0.4683 -0.1081  1.4452
  484TIP3    H222868   1.335   3.259   2.819 -0.2713  0.1564 -1.8709
  485TIP3   OH222869   4.351   2.191  14.613  0.0874 -0.6582  0.0282
  485TIP3    H122870   4.395   2.235  14.540  2.7110  2.3686  3.0847
  485TIP3    H222871   4.408   2.117  14.634  0.3395 -0.4170  0.1875
  486TIP3   OH222872   2.675   0.074  13.897  0.4234 -0.3038  0.4115
  486TIP3    H122873   2.764   0.072  13.932 -0.1892 -0.4309  2.0550
  486TIP3    H222874   2.621   0.040  13.968 -0.7351 -2.2268 -1.2974
  487TIP3   OH222875   1.221   2.970  12.702 -0.1792  0.2406  0.7839
  487TIP3    H122876   1.233   3.004  12.613  0.1966  0.0261  0.7484
  487TIP3    H222877   1.299   2.916  12.717 -0.8302 -0.7349  0.7671
  488TIP3   OH222878   4.724   1.254  11.747  0.0382  0.3260 -0.1812
  488TIP3    H122879   4.700   1.300  11.827  2.9169 -0.2738  1.1439
  488TIP3    H222880   4.806   1.210  11.767 -0.7112 -2.5218 -2.4958
  489TIP3   OH222881   6.631   1.209  15.195  0.1272  0.2410  0.0832
  489TIP3    H122882   6.619   1.253  15.279 -0.3479 -0.2197  0.2595
  489TIP3    H222883   6.697   1.142  15.211 -0.4088 -0.2510  0.2413
  490TIP3   OH222884   6.309   2.493  12.663 -0.2559 -0.2232  1.2840
  490TIP3    H122885   6.289   2.574  12.710 -0.2402  0.8396 -0.4840
  490TIP3    H222886   6.232   2.477  12.609 -0.3526 -1.5337  1.7889
  491TIP3   OH222887   2.220   2.426   5.067  0.0722 -0.1039  0.0041
  491TIP3    H122888   2.313   2.444   5.052 -0.0135 -0.2014 -0.6784
  491TIP3    H222889   2.214   2.408   5.161  0.8531 -0.7942 -0.0694
  492TIP3   OH222890   2.608   0.841  10.175 -0.0355  0.0213  0.1184
  492TIP3    H122891   2.566   0.785  10.109  0.7362  0.3417 -0.6589
  492TIP3    H222892   2.681   0.881  10.129  0.4024  0.4036  1.1293
  493TIP3   OH222893   4.073   0.655   2.861 -0.2078  0.1625  0.6344
  493TIP3    H122894   4.080   0.566   2.893 -0.3611  0.2132  0.8141
  493TIP3    H222895   4.153   0.698   2.891  0.1597 -0.0778  0.0122
  494TIP3   OH222896   2.240   1.674   1.717  0.4859 -0.5185 -0.1009
  494TIP3    H122897   2.207   1.701   1.632 -1.6787  0.3808  0.9631
  494TIP3    H222898   2.329   1.709   1.720  0.2296  0.3465 -1.5615
  495TIP3   OH222899   3.012   2.459  13.199  0.4126 -0.0869  0.1876
  495TIP3    H122900   3.072   2.425  13.266 -0.3008  1.2677  1.5856
  495TIP3    H222901   3.036   2.551  13.190 -3.2910  1.4792  3.1906
  496TIP3   OH222902   4.054   2.514   1.093 -0.1732 -0.6530 -0.0415
  496TIP3    H122903   4.096   2.552   1.170 -1.7404  1.4175 -0.1226
  496TIP3    H222904   3.965   2.549   1.095 -0.6254 -1.5420 -2.1299
  497TIP3   OH222905   4.725   6.465  10.494 -0.0492  0.5232 -0.3045
  497TIP3    H122906   4.748   6.392  10.551  1.1761  1.1085 -0.0150
  497TIP3    H222907   4.757   6.439  10.408 -0.5566  0.2856 -0.4287
  498TIP3   OH222908   0.233   1.624   4.554  0.1622  0.2953 -0.2407
  498TIP3    H122909   0.279   1.574   4.486  0.0370  1.4332 -1.1917
  498TIP3    H222910   0.232   1.714   4.521  0.4894  0.9702  1.4780
  499TIP3   OH222911   6.571   3.661   2.812 -0.3715 -0.1267  0.4534
  499TIP3    H122912   6.632   3.599   2.851 -0.9879  0.1060  1.8684
  499TIP3    H222913   6.557   3.727   2.880 -2.4507 -0.3690  0.3319
  500TIP3   OH222914   1.765   3.727   2.527 -0.1805  0.1749 -0.1442
  500TIP3    H122915   1.783   3.668   2.454  1.8823  1.8115 -1.0571
  500TIP3    H222916   1.819   3.693   2.599  0.2507  0.3836 -0.3671
  501TIP3   OH222917   5.111   5.636   5.946 -0.0749 -0.1066  0.2740
  501TIP3    H122918   5.022   5.670   5.958 -0.3531 -0.2256 -1.2662
  501TIP3    H222919   5.099   5.542   5.936  0.0625  0.0166 -1.2374
  502TIP3   OH222920   5.221   1.753  11.703 -0.7433 -0.5359  0.5655
  502TIP3    H122921   5.131   1.732  11.675 -0.9566  1.8118 -0.7518
  502TIP3    H222922   5.273   1.679  11.672 -1.9894 -1.1278 -0.2086
  503TIP3   OH222923   3.767   2.936  11.965  0.0717  0.3613 -0.5447
  503TIP3    H122924   3.755   2.897  11.879 -0.5382 -1.6603  0.3993
  503TIP3    H222925   3.843   2.891  12.002  0.3230  1.1953  0.0026
  504TIP3   OH222926   1.390   3.222   4.537  0.2551 -0.6617 -0.4024
  504TIP3    H122927   1.301   3.213   4.571  0.8583 -1.4246  1.0515
  504TIP3    H222928   1.385   3.185   4.448 -0.8070 -0.9612 -0.2328
  505TIP3   OH222929   1.550   3.873   1.681 -0.6063  0.2137 -0.1360
  505TIP3    H122930   1.501   3.908   1.755 -1.1621  0.0186 -0.4039
  505TIP3    H222931   1.626   3.930   1.673 -2.2896  2.4490 -1.5947
  506TIP3   OH222932   2.142   0.396  13.262 -0.5607 -0.8434 -0.1433
  506TIP3    H122933   2.108   0.402  13.172 -2.1715 -2.2222  0.3167
  506TIP3    H222934   2.221   0.343  13.254 -0.4873 -0.6460 -0.7951
  507TIP3   OH222935   1.992   5.746   3.145 -0.5148 -0.0104 -0.5627
  507TIP3    H122936   2.065   5.698   3.184  0.1078  1.4927  0.2036
  507TIP3    H222937   1.973   5.699   3.064 -0.4134 -1.9410  0.4756
  508TIP3   OH222938   2.287   5.840  15.870 -0.0746 -0.1551  0.1555
  508TIP3    H122939   2.377   5.871  15.860 -0.1214  0.2306  0.8973
  508TIP3    H222940   2.234   5.919  15.877 -0.3308 -0.3792  0.9021
  509TIP3   OH222941   5.283   4.449  12.744  0.3367 -0.3058 -0.1122
  509TIP3    H122942   5.347   4.422  12.678 -0.4029 -0.2220 -0.8893
  509TIP3    H222943   5.335   4.487  12.815  1.2019 -1.1651 -0.2716
  510TIP3   OH222944   5.218   6.791  13.624 -0.3719  0.1594 -0.0129
  510TIP3    H122945   5.152   6.828  13.566 -2.3323 -1.7252  0.8526
  510TIP3    H222946   5.223   6.699  13.599  0.9469 -0.0469  0.8660
  511TIP3   OH222947   5.670   4.765  14.859  0.2508 -0.5120  0.0111
  511TIP3    H122948   5.760   4.758  14.827 -0.2167  1.3818 -2.0060
  511TIP3    H222949   5.644   4.675  14.876  1.2762 -1.5554 -3.1749
  512TIP3   OH222950   3.900   3.583   3.542  0.0561 -0.0716 -0.3591
  512TIP3    H122951   3.930   3.547   3.459  2.7086 -1.1978  0.9653
  512TIP3    H222952   3.820   3.534   3.561  1.8829 -3.2963 -0.1085
  513TIP3   OH222953   4.215   0.135  16.832 -0.6287 -0.4178  0.2358
  513TIP3    H122954   4.125   0.163  16.821 -0.7736 -0.6837  0.7066
  513TIP3    H222955   4.209   0.040  16.845 -0.2390 -0.5116 -0.2495
  514TIP3   OH222956   6.269   4.614  14.200 -0.3192 -0.1328  0.0729
  514TIP3    H122957   6.263   4.624  14.105 -0.0850 -0.0514  0.0644
  514TIP3    H222958   6.200   4.671  14.234 -0.6835 -0.4920 -0.0607
  515TIP3   OH222959   6.267   5.507   5.614 -0.5352 -0.1047 -0.3105
  515TIP3    H122960   6.207   5.576   5.585  0.9289  1.6284  0.5953
  515TIP3    H222961   6.209   5.440   5.650 -1.9728  1.7482  1.0687
  516TIP3   OH222962   5.488   0.031   3.843  0.2746  0.5057 -0.2707
  516TIP3    H122963   5.504   0.060   3.753  0.6500  0.6772 -0.1525
  516TIP3    H222964   5.457  -0.059   3.834  0.5505  0.4363 -0.5645
  517TIP3   OH222965   3.667   1.695  14.134 -0.6237  0.1308  0.4921
  517TIP3    H122966   3.761   1.680  14.134 -0.4573  1.0911  1.3101
  517TIP3    H222967   3.653   1.766  14.072 -0.8348 -0.1375  0.2295
  518TIP3   OH222968   3.048   1.260  12.904  1.1516 -0.1291  0.1682
  518TIP3    H122969   2.979   1.241  12.967  1.1353 -0.5566  0.0223
  518TIP3    H222970   3.130   1.249  12.953  1.1733 -1.3924 -0.1166
  519TIP3   OH222971   3.699   3.725   2.934 -0.1506  0.3590 -0.2171
  519TIP3    H122972   3.733   3.643   2.968 -1.6453  0.4802  1.7351
  519TIP3    H222973   3.755   3.793   2.972  0.7420  0.3182 -1.3927
  520TIP3   OH222974   5.540   6.628   0.147 -0.7248  0.1676 -0.2069
  520TIP3    H122975   5.606   6.583   0.094 -0.7226  0.3022 -0.3202
  520TIP3    H222976   5.590   6.682   0.208 -0.7075 -0.8932  0.7443
  521TIP3   OH222977   2.985   5.833  10.868 -0.6734 -0.0744 -0.3440
  521TIP3    H122978   3.059   5.781  10.837  0.2529  0.3779  1.0434
  521TIP3    H222979   3.014   5.924  10.858 -2.2229  0.2634 -2.6241
  522TIP3   OH222980   1.416   3.732   5.458  0.1958  0.6737  0.6518
  522TIP3    H122981   1.461   3.735   5.542  1.2005 -1.3850  0.2716
  522TIP3    H222982   1.485   3.751   5.394 -0.3405  1.2469  0.2388
  523TIP3   OH222983   3.134   1.634   2.482  0.2774  0.0389  0.3618
  523TIP3    H122984   3.223   1.662   2.460 -0.0808  1.0756  0.1906
  523TIP3    H222985   3.145   1.568   2.551  1.1956 -0.2191 -0.0223
  524TIP3   OH222986   3.581   1.029  14.327  0.4072  0.0511  0.1250
  524TIP3    H122987   3.615   1.035  14.237  0.2559 -1.0982 -0.0226
  524TIP3    H222988   3.518   1.100  14.333 -0.6109 -0.6966 -1.1542
  525TIP3   OH222989   6.704   5.371  14.407  0.5143 -0.8014  0.1633
  525TIP3    H122990   6.684   5.426  14.331  1.1129  0.8151  1.1368
  525TIP3    H222991   6.719   5.284  14.370  2.6139  0.2929 -1.8516
  526TIP3   OH222992   4.389   6.112  12.753  0.2533  0.1627 -0.0178
  526TIP3    H122993   4.422   6.117  12.663 -0.6171  1.9934 -0.2921
  526TIP3    H222994   4.331   6.037  12.754  0.6351 -0.1524 -0.8545
  527TIP3   OH222995   5.000   3.977   1.517 -0.1339 -0.5995  0.3711
  527TIP3    H122996   4.990   3.884   1.495  1.8986 -0.8065  0.0924
  527TIP3    H222997   5.028   3.977   1.608  0.4734 -0.3014  0.1873
  528TIP3   OH222998   0.811   2.576   5.700 -0.3492 -0.2111  0.5567
  528TIP3    H122999   0.745   2.605   5.637 -0.6031 -1.0907  0.4039
  528TIP3    H223000   0.762   2.561   5.781 -0.2161 -0.1890  0.6414
  529TIP3   OH223001   0.208   3.750   4.843 -0.1025  0.4085  0.2133
  529TIP3    H123002   0.285   3.783   4.797 -1.0004  2.3742  0.0216
  529TIP3    H223003   0.166   3.691   4.781  0.1928  0.8785 -0.4509
  530TIP3   OH223004   0.005   1.527  14.643  0.2659  0.1997 -0.2498
  530TIP3    H123005  -0.028   1.516  14.554  2.1170 -0.5378 -0.8958
  530TIP3    H223006   0.093   1.563  14.631 -0.2285  2.1039  1.3821
  531TIP3   OH223007   5.216   5.590   3.557  0.5635  0.5294 -0.9436
  531TIP3    H123008   5.181   5.611   3.470 -1.6756 -1.3271 -0.5839
  531TIP3    H223009   5.223   5.494   3.557  1.0582  0.5466  0.7306
  532TIP3   OH223010   3.940   1.375   0.146  0.5994 -0.4290 -0.6678
  532TIP3    H123011   3.980   1.417   0.070 -0.1699  0.9788 -0.3286
  532TIP3    H223012   3.881   1.441   0.182 -0.0849 -1.5514  0.3539
  533TIP3   OH223013   5.120   3.912   5.058 -0.6017  0.2271  0.0592
  533TIP3    H123014   5.115   3.980   4.991 -0.7469  0.0022 -0.1603
  533TIP3    H223015   5.081   3.952   5.136  0.1136  0.6942  0.1798
  534TIP3   OH223016   1.088   3.454   4.313 -0.1736 -0.2771 -0.4181
  534TIP3    H123017   1.019   3.389   4.325 -1.3110  0.7309 -1.1743
  534TIP3    H223018   1.115   3.477   4.402 -0.0569 -1.4575 -0.1362
  535TIP3   OH223019   4.786   5.251   0.297  0.1966  0.6364  0.2723
  535TIP3    H123020   4.757   5.308   0.368  1.5115  1.2345  0.3500
  535TIP3    H223021   4.743   5.286   0.219  0.5269  1.3619  0.4154
  536TIP3   OH223022   6.012   4.796   3.670  0.4499  0.2053 -0.0622
  536TIP3    H123023   6.097   4.781   3.711  0.4474 -1.3580 -0.5657
  536TIP3    H223024   5.986   4.883   3.700  1.6311  0.1801  1.1402
  537TIP3   OH223025   4.737   6.196   5.763  0.4367 -0.0908 -0.3195
  537TIP3    H123026   4.746   6.228   5.674 -1.3286  0.1752 -0.4427
  537TIP3    H223027   4.827   6.180   5.792  1.4038  3.7731 -0.6671
  538TIP3   OH223028   0.502   3.983   2.777 -0.2667 -0.0546 -0.5681
  538TIP3    H123029   0.597   3.992   2.781 -0.3627  0.7238  0.5359
  538TIP3    H223030   0.487   3.889   2.775  0.4758 -0.3224  2.3252
  539TIP3   OH223031   5.659   5.276   5.457  0.4653  0.1469 -0.1289
  539TIP3    H123032   5.715   5.341   5.499  0.3243  1.3653 -1.7210
  539TIP3    H223033   5.720   5.211   5.422  0.8398  0.9254 -0.9640
  540TIP3   OH223034   2.843   4.397   5.242 -0.8247  0.2959  0.0458
  540TIP3    H123035   2.775   4.331   5.237  0.1058 -0.6176 -0.9897
  540TIP3    H223036   2.842   4.440   5.157  0.0588  0.0859 -0.0829
  541TIP3   OH223037   3.860   6.050  13.505  0.6259  0.1471  0.1700
  541TIP3    H123038   3.924   6.084  13.567  1.4578 -1.9375  0.5250
  541TIP3    H223039   3.805   6.126  13.484  1.0620  1.2078  2.4926
  542TIP3   OH223040   6.046   4.810   0.505 -1.2793 -0.3376 -0.0750
  542TIP3    H123041   6.007   4.723   0.509 -0.8035 -0.5280  1.2447
  542TIP3    H223042   6.016   4.847   0.422  1.9510 -3.3528 -2.8680
  543TIP3   OH223043   5.355   4.922   2.192  0.0846  0.5566  0.0261
  543TIP3    H123044   5.345   5.015   2.171 -1.9040  1.3600  3.5797
  543TIP3    H223045   5.282   4.879   2.147  1.1512  0.5871 -1.8252
  544TIP3   OH223046   6.137   1.496  12.276 -0.0324 -0.5985 -0.2290
  544TIP3    H123047   6.133   1.535  12.189  0.1731  0.4686  0.2169
  544TIP3    H223048   6.217   1.442  12.275  0.9315  0.7765 -0.1822
  545TIP3   OH223049   0.936   5.936  14.670 -0.2674  0.0626 -0.8990
  545TIP3    H123050   0.866   5.922  14.606 -0.5104 -2.1088 -0.2195
  545TIP3    H223051   1.009   5.882  14.638 -0.1253 -0.4369  0.2177
  546TIP3   OH223052   2.724   6.048  14.294 -0.0746 -0.1005 -0.1899
  546TIP3    H123053   2.650   6.077  14.240 -0.2349 -0.9487 -0.4317
  546TIP3    H223054   2.758   5.971  14.248  1.2283  0.5199 -0.3141
  547TIP3   OH223055   3.809   0.732   0.039  0.2635 -0.3581  0.0399
  547TIP3    H123056   3.858   0.814   0.032 -0.5469  0.1982  0.6238
  547TIP3    H223057   3.820   0.707   0.131 -0.1685 -0.4651  0.0604
  548TIP3   OH223058   3.356   3.595   0.261 -0.5375  0.2959  0.2150
  548TIP3    H123059   3.410   3.563   0.188 -1.4348  0.5871 -0.6004
  548TIP3    H223060   3.409   3.664   0.301 -0.2512  0.4995 -0.4994
  549TIP3   OH223061   0.665   1.041  13.733 -0.2971  0.0728 -0.1239
  549TIP3    H123062   0.581   0.996  13.724  0.8090 -2.1331  0.0004
  549TIP3    H223063   0.642   1.129  13.762 -2.5974 -0.2177 -0.8720
  550TIP3   OH223064   1.216   1.425   2.850 -0.2844 -0.0071 -0.1779
  550TIP3    H123065   1.166   1.451   2.773  0.0709  1.3486  0.0231
  550TIP3    H223066   1.281   1.364   2.818 -0.9841 -0.4742 -0.7254
  551TIP3   OH223067   1.941   5.053   2.118  0.3201  0.1938  0.0754
  551TIP3    H123068   1.883   5.128   2.132 -0.1719 -0.0392 -0.6353
  551TIP3    H223069   1.940   5.005   2.200  0.8569  1.1057  0.6376
  552TIP3   OH223070   0.787   1.971  12.425 -0.7172 -0.2393  0.1101
  552TIP3    H123071   0.724   1.904  12.451 -0.9603 -0.3456 -0.7038
  552TIP3    H223072   0.738   2.029  12.367 -1.0328  1.7711  2.2435
  553TIP3   OH223073   3.717   5.859  16.269  0.0955  0.0257 -0.3474
  553TIP3    H123074   3.755   5.792  16.211  1.0984 -0.5244  0.9091
  553TIP3    H223075   3.791   5.891  16.320 -0.5897  1.2718 -0.1062
  554TIP3   OH223076   6.330   0.468   0.302 -0.1581 -0.3230 -1.5048
  554TIP3    H123077   6.368   0.545   0.344  0.0404 -0.2939 -1.7399
  554TIP3    H223078   6.264   0.437   0.365 -0.3604  0.1378 -1.4843
  555TIP3   OH223079   0.710   1.473   2.860  0.3843  0.9200 -0.3144
  555TIP3    H123080   0.645   1.441   2.797  1.0708 -0.0099 -0.5773
  555TIP3    H223081   0.678   1.442   2.945  0.5207  0.3971 -0.4512
  556TIP3   OH223082   5.717   5.495  16.009 -0.1047 -0.4740 -0.1977
  556TIP3    H123083   5.749   5.572  15.962 -0.1705 -1.3226 -1.6973
  556TIP3    H223084   5.623   5.511  16.019  0.2895  0.8808  2.0044
  557TIP3   OH223085   1.944   1.265  11.671  0.0904 -0.1381  0.4396
  557TIP3    H123086   1.856   1.227  11.672  0.5208 -1.1749  0.3575
  557TIP3    H223087   1.980   1.236  11.587  0.1115  1.2513 -0.0541
  558TIP3   OH223088   1.406   4.555  16.112 -0.0414  0.1086  0.0318
  558TIP3    H123089   1.408   4.634  16.167 -0.5615 -0.2697  0.6134
  558TIP3    H223090   1.498   4.530  16.101  0.1529  1.0112 -0.4818
  559TIP3   OH223091   6.398   1.654  15.894 -0.0507  0.2545  0.1381
  559TIP3    H123092   6.330   1.669  15.960  0.5106 -1.4766  1.1842
  559TIP3    H223093   6.350   1.625  15.816 -0.6495  1.2715  0.1150
  560TIP3   OH223094   2.865   3.013   0.165  0.0054 -0.1407  0.1900
  560TIP3    H123095   2.859   3.108   0.160  1.4945 -0.0149  0.4974
  560TIP3    H223096   2.839   2.983   0.077  1.4676  0.6716 -0.5476
  561TIP3   OH223097   0.025   1.024   2.528  0.1228 -0.2153 -0.7940
  561TIP3    H123098   0.078   1.090   2.483  0.7682  1.1376  1.7559
  561TIP3    H223099   0.088   0.957   2.554 -0.0071 -0.3185 -0.7435
  562TIP3   OH223100   6.394   3.651  13.526  0.4246 -0.1924 -0.0899
  562TIP3    H123101   6.400   3.718  13.595 -1.7558  1.2893 -1.2355
  562TIP3    H223102   6.429   3.693  13.448 -2.4857  0.3407 -1.2331
  563TIP3   OH223103   2.104   5.242  12.248  0.2439  0.0677 -0.6910
  563TIP3    H123104   2.094   5.316  12.308  0.8517 -0.0171 -0.4861
  563TIP3    H223105   2.062   5.169  12.293  0.0916  0.1670 -0.6706
  564TIP3   OH223106   0.018   1.041   4.932  0.1455 -0.3099  0.1287
  564TIP3    H123107  -0.016   1.130   4.938 -1.2000 -0.7935  0.2172
  564TIP3    H223108   0.066   1.028   5.013  1.0450  0.5934 -0.2433
  565TIP3   OH223109   2.285   0.636  16.582 -0.0837  0.0589 -0.2277
  565TIP3    H123110   2.260   0.604  16.669  4.0157  0.2880  1.2649
  565TIP3    H223111   2.236   0.718  16.572 -0.2547  0.3321  2.1831
  566TIP3   OH223112   2.076   4.765   1.727 -0.1191  0.4264 -0.7860
  566TIP3    H123113   2.086   4.858   1.707  3.3814 -0.1447 -2.3588
  566TIP3    H223114   2.024   4.730   1.655  1.6187  0.5972 -2.1648
  567TIP3   OH223115   3.802   1.801  15.475  0.4491  0.0089  0.5570
  567TIP3    H123116   3.862   1.860  15.428 -0.9580  0.5829 -0.5863
  567TIP3    H223117   3.773   1.739  15.408 -0.1223 -0.3456  1.1341
  568TIP3   OH223118   5.107   5.563  11.665  0.2524  0.4291 -0.0081
  568TIP3    H123119   5.080   5.500  11.598 -0.2312  1.2243 -0.5644
  568TIP3    H223120   5.072   5.527  11.747 -1.1612  0.6343 -0.5036
  569TIP3   OH223121   4.500   2.166   1.497  0.1112  0.7281 -0.1003
  569TIP3    H123122   4.555   2.118   1.560 -1.9266 -0.5776  0.7856
  569TIP3    H223123   4.488   2.105   1.425 -0.6633  0.7490  0.0034
  570TIP3   OH223124   0.456   2.239   1.575 -0.6327  0.4467  0.3501
  570TIP3    H123125   0.420   2.163   1.528 -0.4075 -0.0399  0.9513
  570TIP3    H223126   0.530   2.267   1.522 -1.1828  0.7190 -0.2772
  571TIP3   OH223127   0.245   0.781  13.143  0.3825  0.0424 -0.1214
  571TIP3    H123128   0.291   0.740  13.216  0.7574 -1.2259 -1.0478
  571TIP3    H223129   0.232   0.711  13.079  0.5175  1.2164 -1.5013
  572TIP3   OH223130   5.023   1.460   2.168 -0.3348  0.0019 -0.0807
  572TIP3    H123131   4.997   1.383   2.117  2.8601 -2.2679  1.3296
  572TIP3    H223132   5.090   1.502   2.115 -0.4524  0.4611  0.1322
  573TIP3   OH223133   5.971   0.299   4.980  0.4040  0.6291 -0.3366
  573TIP3    H123134   5.982   0.363   5.049  0.8548  0.7541 -0.5226
  573TIP3    H223135   5.913   0.341   4.917  3.7201  2.5035 -2.4238
  574TIP3   OH223136   2.500   2.003   2.630 -0.1645  0.6005 -0.0473
  574TIP3    H123137   2.453   1.986   2.548 -2.4183 -1.0842  1.4574
  574TIP3    H223138   2.592   1.993   2.608 -0.7898 -2.9397 -1.7991
  575TIP3   OH223139   5.049   1.312   4.289  0.1453  0.3324  0.1784
  575TIP3    H123140   5.018   1.272   4.369  0.9889  0.5926  0.6535
  575TIP3    H223141   5.126   1.363   4.316 -1.0332  2.5050 -0.3291
  576TIP3   OH223142   2.802   4.057   6.292  0.3877  0.5383  0.1326
  576TIP3    H123143   2.723   4.066   6.239  0.5896 -2.0906 -0.7653
  576TIP3    H223144   2.775   4.005   6.367  1.6118 -2.3838 -1.3086
  577TIP3   OH223145   0.281   1.636   2.480 -0.9296  0.2481 -0.7061
  577TIP3    H123146   0.277   1.731   2.479 -0.4732  0.3212  1.0660
  577TIP3    H223147   0.355   1.615   2.537 -0.7520 -1.1760 -1.4011
  578TIP3   OH223148   5.854   1.625  12.256  0.0892  0.1110 -0.0076
  578TIP3    H123149   5.863   1.548  12.200 -0.0663  1.2569 -1.6578
  578TIP3    H223150   5.763   1.620  12.288 -1.0833  1.3504 -2.8665
  579TIP3   OH223151   6.727   2.698   2.741 -0.3387  0.1239  0.0182
  579TIP3    H123152   6.813   2.682   2.779  0.2126  1.3717 -0.6603
  579TIP3    H223153   6.669   2.636   2.785  0.6702  0.1089  1.3656
  580TIP3   OH223154   4.519   3.351   6.695  0.4366 -0.2156  1.2205
  580TIP3    H123155   4.486   3.411   6.628  1.7143 -0.8924 -0.0515
  580TIP3    H223156   4.474   3.268   6.678  0.1279 -0.1699  1.7616
  581TIP3   OH223157   0.743   1.228  16.199  0.8349 -0.4886 -0.7002
  581TIP3    H123158   0.688   1.291  16.152  0.3688 -0.4171 -0.0726
  581TIP3    H223159   0.713   1.143  16.169 -1.3750 -0.5660  1.4479
  582TIP3   OH223160   6.417   0.018   0.764 -0.5871  0.4371  0.7180
  582TIP3    H123161   6.379   0.025   0.851 -1.5619 -1.2806  0.4631
  582TIP3    H223162   6.344   0.032   0.704  0.1052  1.7987  0.1368
  583TIP3   OH223163   1.658   4.249   3.150  0.0100 -0.2486  0.1252
  583TIP3    H123164   1.623   4.338   3.158  2.2229  0.9104 -1.7509
  583TIP3    H223165   1.728   4.245   3.214 -0.8197 -1.0810  0.9985
  584TIP3   OH223166   3.952   1.810  14.634  0.4280  0.3587  0.4240
  584TIP3    H123167   3.892   1.880  14.663  0.8023  0.3824  1.1774
  584TIP3    H223168   4.028   1.820  14.691  1.0209  0.1297 -0.3190
  585TIP3   OH223169   5.417   0.686   1.445  0.2042 -0.2929  0.0334
  585TIP3    H123170   5.455   0.765   1.406  1.0806  0.3301  1.9705
  585TIP3    H223171   5.333   0.715   1.481  0.4232 -0.2809  0.5455
  586TIP3   OH223172   5.029   1.427   2.435 -0.8511 -0.1478  0.0645
  586TIP3    H123173   5.092   1.499   2.437 -0.0400 -0.8486  2.2698
  586TIP3    H223174   5.018   1.408   2.341 -0.2173  2.0461 -0.5138
  587TIP3   OH223175   4.562   0.389   4.649  0.6227 -0.0255 -0.2132
  587TIP3    H123176   4.474   0.378   4.686  1.5506  0.0953  2.2200
  587TIP3    H223177   4.615   0.324   4.694  1.6315 -0.7883 -2.3884
  588TIP3   OH223178   1.076   4.725  14.202 -0.4958 -0.1410  0.0963
  588TIP3    H123179   1.095   4.737  14.295 -0.2808 -1.2015  0.2096
  588TIP3    H223180   1.002   4.664  14.201  0.1161 -0.8953 -0.4233
  589TIP3   OH223181   3.461   4.444  13.260 -0.0505 -0.7842  0.5195
  589TIP3    H123182   3.417   4.494  13.329  0.0390 -1.3444  0.9896
  589TIP3    H223183   3.553   4.440  13.288 -0.1980 -1.8700  0.8897
  590TIP3   OH223184   4.522   0.110   1.191 -0.0970  0.3846 -0.5609
  590TIP3    H123185   4.587   0.162   1.144 -1.1309  0.5496 -1.8415
  590TIP3    H223186   4.464   0.076   1.123  0.4744 -2.3966  0.2256
  591TIP3   OH223187   6.581   2.165   2.652  0.3658 -0.2534  0.2309
  591TIP3    H123188   6.608   2.191   2.565 -0.5679  0.0346  0.0095
  591TIP3    H223189   6.530   2.085   2.639 -0.9119  0.5118  0.3360
  592TIP3   OH223190   0.738   5.266  12.863 -0.1864 -0.6419 -0.7384
  592TIP3    H123191   0.812   5.280  12.803  0.7726  0.5376  0.6477
  592TIP3    H223192   0.680   5.340  12.848 -0.3965 -0.8295 -0.8521
  593TIP3   OH223193   3.951   2.847   3.675 -0.1021 -0.2161  0.1047
  593TIP3    H123194   4.033   2.843   3.725 -0.6033 -0.7970  0.9065
  593TIP3    H223195   3.920   2.937   3.688 -0.8575 -0.6933  1.9132
  594TIP3   OH223196   0.915   3.267   3.506  0.0700  0.4542  0.4153
  594TIP3    H123197   0.922   3.235   3.596  1.0133 -0.6510 -0.0373
  594TIP3    H223198   0.971   3.345   3.504  0.4431  0.1932  0.6534
  595TIP3   OH223199   3.088   5.642  12.995 -0.0591 -0.2547  0.1704
  595TIP3    H123200   3.108   5.620  12.904  1.0429 -1.3448  0.6470
  595TIP3    H223201   3.034   5.569  13.027 -0.3965  0.0941  0.4159
  596TIP3   OH223202   4.393   1.470  12.998 -0.0656 -0.4452 -0.3621
  596TIP3    H123203   4.302   1.465  13.028  0.6956  0.8679  2.5831
  596TIP3    H223204   4.404   1.561  12.971  0.8131 -0.0477  1.1922
  597TIP3   OH223205   2.993   4.178   2.219  0.4286  0.4456  0.2788
  597TIP3    H123206   3.056   4.248   2.231  1.5667 -0.8848  2.6199
  597TIP3    H223207   3.032   4.102   2.261 -1.7150 -1.0507 -0.2377
  598TIP3   OH223208   2.035   1.664  16.391  0.6385  0.0000 -0.1546
  598TIP3    H123209   2.099   1.670  16.320  1.4690 -1.1569  0.4610
  598TIP3    H223210   1.992   1.580  16.377  0.6460 -0.1307  0.5825
  599TIP3   OH223211   5.424   0.139   1.853  0.3104 -0.7671  0.1678
  599TIP3    H123212   5.446   0.149   1.760 -1.1380  1.7337  0.0013
  599TIP3    H223213   5.475   0.207   1.897  1.0478 -1.9857  1.2851
  600TIP3   OH223214   3.298   3.039  12.575 -0.0931  0.3595 -0.2013
  600TIP3    H123215   3.385   3.043  12.535  0.0631 -1.3064 -0.0966
  600TIP3    H223216   3.272   2.947  12.567 -3.2210  1.2562 -3.0928
  601TIP3   OH223217   6.245   6.774  13.922 -0.3761 -0.1335 -0.0667
  601TIP3    H123218   6.241   6.800  14.014  0.4217  1.0379 -0.3538
  601TIP3    H223219   6.250   6.678  13.925 -0.6545 -0.1276  1.0876
  602TIP3   OH223220   1.084   1.338   0.854 -0.7906  0.5747 -0.2059
  602TIP3    H123221   1.035   1.285   0.916  0.6354 -1.2226 -0.5115
  602TIP3    H223222   1.101   1.279   0.780 -0.9046  2.1053 -1.5200
  603TIP3   OH223223   0.292   4.930   4.549  0.2712  0.2617  1.0598
  603TIP3    H123224   0.279   4.837   4.565  3.3534 -0.0916  2.2980
  603TIP3    H223225   0.267   4.972   4.632 -0.6986  0.5188  0.6494
  604TIP3   OH223226   3.546   0.211  10.920  0.2995 -0.1139 -0.1219
  604TIP3    H123227   3.540   0.130  10.868 -2.6968  0.3995 -0.7724
  604TIP3    H223228   3.600   0.269  10.867 -0.0289 -0.6919 -1.1341
  605TIP3   OH223229   0.379   0.379  13.124 -0.5254 -0.1003 -0.0260
  605TIP3    H123230   0.393   0.284  13.125  0.7206 -0.0113  3.1705
  605TIP3    H223231   0.463   0.415  13.095 -0.5743  0.0476  0.0141
  606TIP3   OH223232   3.483   6.274   0.322 -0.0950  0.4616  0.4815
  606TIP3    H123233   3.536   6.204   0.284  0.3706  1.1213 -0.1211
  606TIP3    H223234   3.439   6.234   0.397 -0.8133 -0.8014 -0.5771
  607TIP3   OH223235   2.076   0.149  10.856  0.2942  0.9515 -0.1375
  607TIP3    H123236   2.083   0.172  10.763 -1.8849 -1.8316 -1.1236
  607TIP3    H223237   2.128   0.069  10.865 -1.8156 -0.4548  0.2731
  608TIP3   OH223238   2.403   3.150  12.833  0.0966 -0.5442 -0.6191
  608TIP3    H123239   2.402   3.054  12.836 -0.9149 -0.6325 -2.2438
  608TIP3    H223240   2.321   3.176  12.875  0.5231 -0.3600  0.1133
  609TIP3   OH223241   5.578   1.568   6.140 -0.0353  0.0911  0.6103
  609TIP3    H123242   5.605   1.498   6.199 -0.1871  1.0347  1.8334
  609TIP3    H223243   5.523   1.625   6.193  1.3082  1.9568  0.1070
  610TIP3   OH223244   2.527   3.287   0.835 -0.0244  0.2257 -0.2012
  610TIP3    H123245   2.474   3.243   0.902  1.0127 -1.2762 -0.3258
  610TIP3    H223246   2.488   3.259   0.752  0.4890 -0.2748 -0.2760
  611TIP3   OH223247   3.680   4.619   1.882  0.2712 -0.1782 -0.5928
  611TIP3    H123248   3.674   4.558   1.809 -1.8098 -0.3297 -0.3483
  611TIP3    H223249   3.755   4.675   1.861  2.9283 -3.3504 -0.3545
  612TIP3   OH223250   1.654   6.398  15.387  0.0087 -0.2707 -0.2763
  612TIP3    H123251   1.567   6.434  15.370 -0.0370  0.8428  1.9435
  612TIP3    H223252   1.657   6.317  15.335 -2.4723 -0.5101 -0.1809
  613TIP3   OH223253   5.197   0.968   5.230  0.2154 -0.2722 -0.6399
  613TIP3    H123254   5.199   1.063   5.243  1.3318 -0.2019 -1.2026
  613TIP3    H223255   5.113   0.941   5.267 -0.0566  0.9106 -0.3330
  614TIP3   OH223256   0.904   5.210   1.308  0.2969  0.5436  0.0520
  614TIP3    H123257   0.929   5.192   1.218  0.1954 -3.1619  0.6161
  614TIP3    H223258   0.917   5.304   1.318  2.3810  0.7502 -3.1629
  615TIP3   OH223259   6.336   0.559  10.760  0.0194 -0.4051 -0.0679
  615TIP3    H123260   6.372   0.587  10.675 -1.0198  2.3112  0.3035
  615TIP3    H223261   6.326   0.464  10.750  0.7483 -0.3111 -2.6651
  616TIP3   OH223262   5.591   4.267  16.343 -0.3640  0.0437  0.2071
  616TIP3    H123263   5.681   4.279  16.312 -0.5479  0.4738 -0.1618
  616TIP3    H223264   5.543   4.238  16.266 -0.5356 -0.2341  0.4175
  617TIP3   OH223265   5.240   5.708  12.835  0.2438 -0.3167  0.7729
  617TIP3    H123266   5.316   5.743  12.789  1.9453 -2.4741  1.7626
  617TIP3    H223267   5.208   5.781  12.888  0.0891  1.3160 -1.4202
  618TIP3   OH223268   2.211   5.591  12.206  0.1569 -0.7342  0.5568
  618TIP3    H123269   2.284   5.633  12.253 -0.6488  1.9190 -0.3949
  618TIP3    H223270   2.254   5.536  12.141  1.4085  0.9069 -0.0958
  619TIP3   OH223271   6.009   1.473   4.695  0.3400  0.1369  0.1236
  619TIP3    H123272   6.084   1.532   4.688  1.8078 -1.7298 -0.7977
  619TIP3    H223273   5.933   1.531   4.703  1.7664  2.1012  0.1012
  620TIP3   OH223274   3.627   2.271  10.602 -0.7689 -0.3708  0.0633
  620TIP3    H123275   3.649   2.363  10.589  0.5329 -0.4734  1.2198
  620TIP3    H223276   3.682   2.225  10.539  0.0045 -0.4339  0.7544
  621TIP3   OH223277   5.208   0.107  13.181 -0.7339  0.7363  0.1547
  621TIP3    H123278   5.168   0.140  13.261 -0.9911  2.4950 -0.6654
  621TIP3    H223279   5.292   0.071  13.210 -0.6907  1.6089  1.1896
  622TIP3   OH223280   2.669   4.465   2.039  0.1356  0.1392 -0.2792
  622TIP3    H123281   2.614   4.454   1.961  1.0299 -0.7233 -0.8141
  622TIP3    H223282   2.629   4.407   2.104  0.3180 -0.3732 -0.6179
  623TIP3   OH223283   0.020   4.254  12.180  0.3034  0.0300 -0.2488
  623TIP3    H123284   0.090   4.274  12.118  1.1761 -0.5820  0.5159
  623TIP3    H223285   0.056   4.185  12.235 -0.4409  0.5680  0.9547
  624TIP3   OH223286   4.196   0.574  10.490  0.0084 -0.1921  0.2687
  624TIP3    H123287   4.265   0.512  10.514  1.6385  1.1982 -0.6543
  624TIP3    H223288   4.120   0.544  10.540  0.2127 -3.8777 -1.2983
  625TIP3   OH223289   6.131   1.662   4.936  0.4184  0.0724  0.1866
  625TIP3    H123290   6.125   1.758   4.930  0.4331  0.0938  0.5251
  625TIP3    H223291   6.068   1.639   5.004  0.3309 -0.1694  0.0225
  626TIP3   OH223292   5.296   3.374   1.926  0.2844  0.7123 -0.3631
  626TIP3    H123293   5.343   3.437   1.980  0.4810 -0.0012  0.3255
  626TIP3    H223294   5.335   3.383   1.839 -0.4061  2.2495 -0.5370
  627TIP3   OH223295   5.998   5.379  15.200 -0.0835  0.4605 -1.1224
  627TIP3    H123296   6.013   5.308  15.263 -0.1194  0.0106 -1.6135
  627TIP3    H223297   5.908   5.408  15.217 -0.0354  0.4568 -0.8551
  628TIP3   OH223298   4.381   4.148   1.017  0.1571 -0.2713 -0.1649
  628TIP3    H123299   4.405   4.219   1.078 -1.8665  1.3810 -1.1876
  628TIP3    H223300   4.465   4.106   0.996  1.4245  1.6919  0.6317
  629TIP3   OH223301   0.409   4.815  12.099  0.3465  0.3360 -0.3777
  629TIP3    H123302   0.365   4.868  12.033  0.0498 -0.7095 -1.0303
  629TIP3    H223303   0.347   4.745  12.119  1.1982 -0.4222 -0.3584
  630TIP3   OH223304   2.931   6.191  14.677  0.0764  0.1703 -0.1189
  630TIP3    H123305   2.938   6.228  14.589  1.2077  0.2168 -0.0226
  630TIP3    H223306   2.976   6.107  14.671 -0.8554 -0.3517  0.1340
  631TIP3   OH223307   0.618   4.765  13.367 -0.2795  0.5217  0.5159
  631TIP3    H123308   0.614   4.763  13.271  2.2618  0.5245  0.3533
  631TIP3    H223309   0.530   4.791  13.394 -0.9936  0.7381 -1.8180
  632TIP3   OH223310   4.989   1.163   2.100 -1.1635 -0.1517  0.2567
  632TIP3    H123311   4.978   1.150   2.194  0.8568  0.8167  0.6677
  632TIP3    H223312   4.901   1.185   2.069 -1.7876 -0.0434  1.9774
  633TIP3   OH223313   4.314   0.531   6.439  0.0905  0.0187 -0.1581
  633TIP3    H123314   4.323   0.440   6.467 -0.9396 -0.0074  0.1039
  633TIP3    H223315   4.367   0.536   6.359 -0.1650 -0.9068 -0.3975
  634TIP3   OH223316   5.228   3.980  12.831 -0.2768  0.2153 -0.2230
  634TIP3    H123317   5.294   4.021  12.886 -1.1200 -0.7750  1.6092
  634TIP3    H223318   5.146   4.023  12.857 -0.8821 -1.2241  0.3350
  635TIP3   OH223319   3.858   6.796   5.828 -0.0086 -0.1374 -0.2606
  635TIP3    H123320   3.838   6.707   5.856 -1.8073  0.6023  1.0118
  635TIP3    H223321   3.893   6.839   5.906  0.1119  0.4960 -0.6506
  636TIP3   OH223322   3.774   4.323   3.089 -0.8614 -0.1372 -0.4720
  636TIP3    H123323   3.753   4.295   3.000 -0.1100  0.7151 -0.9239
  636TIP3    H223324   3.868   4.341   3.088 -1.1053  1.2713  0.1043
  637TIP3   OH223325   1.722   6.207  14.617 -0.3018 -0.1126 -0.0312
  637TIP3    H123326   1.639   6.255  14.624 -0.8836 -1.2770  1.5782
  637TIP3    H223327   1.709   6.128  14.669  1.7270 -0.4698  0.0156
  638TIP3   OH223328   4.910   3.683   3.023  0.0229  0.5955  0.2590
  638TIP3    H123329   4.832   3.651   2.979  0.1451  0.8886 -0.1833
  638TIP3    H223330   4.953   3.605   3.059 -1.7976  0.6297  2.7722
  639TIP3   OH223331   6.428   0.618  13.327  0.1038  0.5066  0.2494
  639TIP3    H123332   6.448   0.690  13.268 -0.7689 -1.2664 -2.3457
  639TIP3    H223333   6.335   0.600  13.315  0.2476 -0.9304  0.9796
  640TIP3   OH223334   1.848   0.866   3.594 -0.0254  0.1733  0.6904
  640TIP3    H123335   1.860   0.929   3.522 -0.3009 -0.7309 -0.1711
  640TIP3    H223336   1.926   0.876   3.648 -0.7082  2.2626  1.3914
  641TIP3   OH223337   3.098   0.407  13.362  0.5735 -0.1704  0.2783
  641TIP3    H123338   3.160   0.473  13.332 -0.2020  0.5894  0.3114
  641TIP3    H223339   3.050   0.380  13.283  1.6027 -1.5010  0.0664
  642TIP3   OH223340   2.241   4.876  15.291  0.6201 -0.0792  0.3549
  642TIP3    H123341   2.295   4.797  15.300 -0.7883 -1.1176  0.1434
  642TIP3    H223342   2.151   4.843  15.293 -0.0035  1.5307  0.1501
  643TIP3   OH223343   6.724   6.681  12.423 -0.0148 -0.3889 -0.3699
  643TIP3    H123344   6.636   6.647  12.404  0.0198 -0.7460  0.0757
  643TIP3    H223345   6.747   6.641  12.507  0.3135  0.2095 -0.1663
  644TIP3   OH223346   0.141   6.444   1.666 -0.4861 -0.3615 -0.2038
  644TIP3    H123347   0.218   6.482   1.709  0.1878  0.1770 -1.8178
  644TIP3    H223348   0.171   6.422   1.578 -2.4827  0.9860 -1.3034
  645TIP3   OH223349   4.190   6.340  16.546 -0.7420  0.1586 -0.4518
  645TIP3    H123350   4.252   6.335  16.473 -1.2064 -2.4886 -0.7437
  645TIP3    H223351   4.139   6.419  16.528 -1.4381 -0.8524 -3.5417
  646TIP3   OH223352   2.930   1.327   3.709 -0.0586  0.0070 -0.3844
  646TIP3    H123353   2.910   1.272   3.634 -0.7579 -0.3031  0.0201
  646TIP3    H223354   2.927   1.416   3.675 -0.6658 -0.1175 -0.6615
  647TIP3   OH223355   5.079   1.548   3.303  0.0014 -0.3006  0.1046
  647TIP3    H123356   5.013   1.603   3.261 -0.8785 -0.7814  0.8139
  647TIP3    H223357   5.121   1.605   3.367 -0.9093 -0.4260  0.8404
  648TIP3   OH223358   5.656   0.821  15.767  0.0471 -0.2921  0.6470
  648TIP3    H123359   5.687   0.740  15.727  1.4736  0.6761 -0.3123
  648TIP3    H223360   5.566   0.802  15.793 -0.1822 -1.7079 -0.9705
  649TIP3   OH223361   4.380   2.260  13.117 -0.2016 -0.3559 -0.1044
  649TIP3    H123362   4.338   2.317  13.182  1.2553 -0.7688  1.2786
  649TIP3    H223363   4.310   2.237  13.056 -1.8427 -0.5774  1.7548
  650TIP3   OH223364   4.584   4.265  14.643 -0.3628  0.0048  0.1146
  650TIP3    H123365   4.592   4.360  14.650  0.2499 -0.0586  0.3323
  650TIP3    H223366   4.624   4.231  14.723 -0.9670 -0.4236  0.2413
  651TIP3   OH223367   0.600   0.519  13.405 -0.4366 -0.8345 -0.3111
  651TIP3    H123368   0.642   0.593  13.362  0.7545 -1.5390 -0.4103
  651TIP3    H223369   0.665   0.448  13.400 -1.1954 -1.6241  0.5555
  652TIP3   OH223370   5.610   0.323   4.044 -0.1753 -0.4714 -0.0356
  652TIP3    H123371   5.628   0.236   4.081  2.0450 -0.7734 -1.6174
  652TIP3    H223372   5.690   0.372   4.060 -0.6690  0.6599 -0.9108
  653TIP3   OH223373   6.515   4.660   4.267  0.1216  0.1696  0.2766
  653TIP3    H123374   6.583   4.714   4.226  1.6232 -1.4027  0.5614
  653TIP3    H223375   6.480   4.715   4.337  0.8452  1.1559 -0.1142
  654TIP3   OH223376   5.027   3.916   1.135  0.0757  0.3600  0.2122
  654TIP3    H123377   4.945   3.883   1.098  0.7047  0.3822 -1.2610
  654TIP3    H223378   5.038   3.866   1.216 -1.1210 -0.0136  0.1698
  655TIP3   OH223379   1.863   4.275  16.713  0.6394 -0.9483 -0.2143
  655TIP3    H123380   1.835   4.188  16.741  0.6512 -1.5881 -2.0502
  655TIP3    H223381   1.887   4.320  16.794 -0.9819 -2.0524  0.9461
  656TIP3   OH223382   4.292   2.776   2.592 -0.4840  0.3009  0.2456
  656TIP3    H123383   4.262   2.689   2.569  0.7278  0.4261 -2.0213
  656TIP3    H223384   4.387   2.774   2.580 -0.3162  1.6859  1.0236
  657TIP3   OH223385   6.349   0.097  17.060 -0.2939  0.1213 -0.4210
  657TIP3    H123386   6.358   0.128  16.970 -0.2922  2.2104  0.2622
  657TIP3    H223387   6.360   0.002  17.053  2.1548  0.4415 -2.2910
  658TIP3   OH223388   0.397   2.170  10.655 -0.1552  0.2985 -0.4920
  658TIP3    H123389   0.307   2.157  10.627 -0.3969  1.8335 -0.5282
  658TIP3    H223390   0.394   2.247  10.712  0.8488 -0.7261  1.0592
  659TIP3   OH223391   2.429   6.680  12.215  0.1293  0.0763  0.3931
  659TIP3    H123392   2.452   6.756  12.270  0.6588 -0.2186  0.5916
  659TIP3    H223393   2.375   6.626  12.272 -0.4930  0.4443  0.1536
  660TIP3   OH223394   0.578   3.670  15.137  0.0132  0.1095  0.2395
  660TIP3    H123395   0.534   3.734  15.080 -0.4603  0.7520  1.3063
  660TIP3    H223396   0.639   3.722  15.189  1.5887 -0.6896 -0.7484
  661TIP3   OH223397   4.356   0.498   5.167 -0.3319  0.6461 -0.3624
  661TIP3    H123398   4.306   0.433   5.215 -0.4264  1.3693  0.5486
  661TIP3    H223399   4.291   0.563   5.140 -0.6732 -0.7653 -3.3756
  662TIP3   OH223400   1.864   2.866  11.466  0.1550 -0.4311 -0.3542
  662TIP3    H123401   1.888   2.958  11.476 -3.9559  0.6071  2.6697
  662TIP3    H223402   1.851   2.855  11.372 -1.8764  2.9693 -0.6234
  663TIP3   OH223403   5.745   0.635  11.966  0.4008 -0.2886 -0.0523
  663TIP3    H123404   5.812   0.688  12.010  1.0426 -2.1938  1.3678
  663TIP3    H223405   5.689   0.700  11.922  3.2534  1.4084 -1.5081
  664TIP3   OH223406   0.222   0.943   4.161 -0.7759 -0.1581 -0.5608
  664TIP3    H123407   0.162   0.873   4.135 -0.0394 -0.7262 -0.7646
  664TIP3    H223408   0.196   0.965   4.250 -2.2360  0.6269 -1.1539
  665TIP3   OH223409   5.278   3.099  13.562  0.0206 -0.6668 -0.2403
  665TIP3    H123410   5.213   3.140  13.505 -0.0322  0.4889  0.6215
  665TIP3    H223411   5.333   3.172  13.592  0.4149 -1.3362  0.7160
  666TIP3   OH223412   4.646   2.281  14.705 -0.3292  0.3603 -0.4484
  666TIP3    H123413   4.712   2.218  14.675 -0.7756 -0.4652  0.2387
  666TIP3    H223414   4.631   2.338  14.630 -0.7581 -1.0734 -1.5088
  667TIP3   OH223415   6.413   3.535   3.367  0.3687  0.0435  0.2041
  667TIP3    H123416   6.351   3.496   3.429 -0.4318  1.2529  0.1950
  667TIP3    H223417   6.386   3.499   3.282  0.2606 -0.1379  0.3130
  668TIP3   OH223418   4.371   0.178  15.112 -0.1223 -0.1493  0.0992
  668TIP3    H123419   4.319   0.104  15.081 -0.1271 -0.9672  1.9367
  668TIP3    H223420   4.330   0.255  15.072 -1.4927 -0.9417 -0.0712
  669TIP3   OH223421   3.556   5.397  14.036 -0.0278  0.6863  0.1843
  669TIP3    H123422   3.611   5.368  14.108 -0.8097 -0.3344  0.4004
  669TIP3    H223423   3.610   5.458  13.987  0.2353  2.0765  2.1049
  670TIP3   OH223424   4.241   3.604  13.296 -0.2050  0.0439 -0.4996
  670TIP3    H123425   4.172   3.586  13.359  1.0862  0.4983  1.1141
  670TIP3    H223426   4.227   3.694  13.268  1.1800  1.0649  1.8357
  671TIP3   OH223427   5.923   0.535  12.673  0.3207  0.1056  0.0264
  671TIP3    H123428   5.932   0.581  12.757  0.3416  0.9340 -0.4201
  671TIP3    H223429   6.012   0.507  12.651  0.4018  0.3660  0.0191
  672TIP3   OH223430   4.660   6.813  12.633  0.0474  0.1050 -0.5193
  672TIP3    H123431   4.692   6.899  12.604 -1.2396  0.8804  0.2271
  672TIP3    H223432   4.610   6.833  12.712 -0.3919 -1.3357 -0.4181
  673TIP3   OH223433   3.619   2.621  11.946 -0.3305 -0.7272 -0.4557
  673TIP3    H123434   3.597   2.528  11.956  0.2484 -0.8383 -0.1603
  673TIP3    H223435   3.647   2.648  12.034  0.2681 -0.4761 -0.7237
  674TIP3   OH223436   0.698   0.269  13.214 -0.1666  0.1859 -0.1144
  674TIP3    H123437   0.623   0.232  13.261 -0.8449 -0.4602 -1.6363
  674TIP3    H223438   0.768   0.206  13.227  0.2839  1.0013  1.6779
  675TIP3   OH223439   1.886   1.978   4.239  0.5827  0.0053  0.1430
  675TIP3    H123440   1.866   1.920   4.312  1.6537 -0.1865  0.3026
  675TIP3    H223441   1.800   2.006   4.206  0.0957  1.2387  2.3403
  676TIP3   OH223442   5.595   4.554  11.110 -0.3547 -0.6053 -0.1789
  676TIP3    H123443   5.504   4.530  11.128 -0.3349 -0.7040 -0.2055
  676TIP3    H223444   5.598   4.565  11.015 -0.9149  1.8062  0.0201
  677TIP3   OH223445   3.059   2.855   3.798 -0.6663  0.5605 -0.4654
  677TIP3    H123446   3.113   2.899   3.732  1.8168  0.4831  1.4003
  677TIP3    H223447   3.035   2.925   3.859  2.1429 -0.2763  1.7630
  678TIP3   OH223448   4.100   1.424  14.293  0.0077 -0.2589 -0.5473
  678TIP3    H123449   4.091   1.485  14.367 -3.2338 -0.6719 -0.4478
  678TIP3    H223450   4.070   1.340  14.327  0.4217 -0.9472 -1.8126
  679TIP3   OH223451   2.593   4.642   2.302 -0.0445  0.3753  0.3529
  679TIP3    H123452   2.645   4.562   2.297 -1.9232 -0.8893  0.3271
  679TIP3    H223453   2.558   4.654   2.214 -1.6010 -0.0872  0.8702
  680TIP3   OH223454   5.312   1.786  15.360  0.3832 -0.2695 -0.7152
  680TIP3    H123455   5.242   1.839  15.399 -1.6600 -0.8909 -3.1935
  680TIP3    H223456   5.272   1.699  15.348  2.0706 -1.0426 -0.9727
  681TIP3   OH223457   6.467   4.760   6.046 -0.3474 -0.1265 -1.2602
  681TIP3    H123458   6.386   4.767   6.096 -0.6595  0.1768 -1.7963
  681TIP3    H223459   6.521   4.698   6.095 -0.7308  0.0003 -0.6722
  682TIP3   OH223460   5.951   0.317   0.236  0.2113  0.2054  0.2208
  682TIP3    H123461   5.998   0.338   0.155  0.2717  0.2105  0.2573
  682TIP3    H223462   5.949   0.221   0.238  2.3254  0.1224  1.4239
  683TIP3   OH223463   2.320   0.500   3.563  0.2000  0.0298  0.2200
  683TIP3    H123464   2.236   0.473   3.600 -1.0897  0.5076 -2.1118
  683TIP3    H223465   2.300   0.578   3.512  1.9526 -0.1111 -0.7932
  684TIP3   OH223466   6.556   6.548  13.491  0.0868 -0.4439  0.4026
  684TIP3    H123467   6.565   6.639  13.464  0.2850 -0.2785  1.0107
  684TIP3    H223468   6.633   6.505  13.454 -1.0605 -0.8270 -1.6877
  685TIP3   OH223469   5.576   6.682   6.740  0.1718 -0.0458 -0.2367
  685TIP3    H123470   5.573   6.588   6.719 -0.9115 -0.0575 -0.0698
  685TIP3    H223471   5.558   6.726   6.657  2.8610  0.1236 -0.8468
  686TIP3   OH223472   2.002   6.513  11.788 -0.3752 -0.1779  0.1713
  686TIP3    H123473   2.038   6.522  11.700 -0.5349  0.8282  0.1972
  686TIP3    H223474   2.036   6.588  11.836 -0.5544 -0.5365  0.8850
  687TIP3   OH223475   1.513   5.527  14.911  0.2051  0.1168  0.0691
  687TIP3    H123476   1.572   5.503  14.982  1.3915 -0.0206 -0.9342
  687TIP3    H223477   1.430   5.485  14.933  0.8736 -0.8574  0.7929
  688TIP3   OH223478   3.560   1.610   5.137  0.5867  0.3701 -0.0480
  688TIP3    H123479   3.566   1.562   5.054 -1.0114  0.8755 -0.4918
  688TIP3    H223480   3.550   1.702   5.111 -1.4714  0.3744  0.6331
  689TIP3   OH223481   3.893   4.769  11.816 -0.3831 -0.6471  0.4700
  689TIP3    H123482   3.882   4.675  11.804 -0.7187 -0.8257  1.9793
  689TIP3    H223483   3.804   4.801  11.831  0.0067 -0.5598  2.8640
  690TIP3   OH223484   4.167   4.792   6.174 -0.5003  0.3946  0.4571
  690TIP3    H123485   4.096   4.728   6.173 -1.3253  1.2844  0.1411
  690TIP3    H223486   4.206   4.784   6.262 -0.3885 -0.7312  0.3163
  691TIP3   OH223487   2.080   6.243  16.896  0.2901 -0.3524  0.4245
  691TIP3    H123488   2.169   6.257  16.927  0.2107 -1.7917  1.3835
  691TIP3    H223489   2.086   6.169  16.836  0.1823  1.4101 -1.9180
  692TIP3   OH223490   1.053   0.802  14.031  0.0362 -0.0044  0.0960
  692TIP3    H123491   1.100   0.881  14.056 -1.2467  0.4428  1.1932
  692TIP3    H223492   1.113   0.755  13.974  1.8935  0.4405  1.5996
  693TIP3   OH223493   1.630   3.917  13.986 -0.4175  0.0055 -0.4287
  693TIP3    H123494   1.638   3.824  14.007  1.5032  0.2962  0.2943
  693TIP3    H223495   1.684   3.962  14.051 -1.0119  1.6211 -0.9841
  694TIP3   OH223496   1.353   1.287  12.347  0.4365  0.3907 -0.1258
  694TIP3    H123497   1.337   1.337  12.428 -0.7088  0.9487 -0.6761
  694TIP3    H223498   1.386   1.202  12.378 -0.6088  0.3509  0.9638
  695TIP3   OH223499   2.675   2.509   1.598  1.0173 -0.1476  0.3809
  695TIP3    H123500   2.643   2.475   1.681 -0.3531  1.5809  0.6213
  695TIP3    H223501   2.599   2.552   1.559  1.6561 -0.8391 -1.7511
  696TIP3   OH223502   0.905   1.091   5.566 -0.7019 -0.3965 -0.2017
  696TIP3    H123503   0.975   1.042   5.611  0.7015  1.8608  0.2689
  696TIP3    H223504   0.838   1.104   5.633  0.4748  1.1989  0.7438
  697TIP3   OH223505   0.219   6.284  16.563 -0.5679 -0.3179 -0.0190
  697TIP3    H123506   0.258   6.317  16.482 -1.2984 -0.2423 -0.3487
  697TIP3    H223507   0.279   6.214  16.592 -1.0907 -1.4020 -1.4465
  698TIP3   OH223508   1.379   4.133   5.398 -0.4847  0.1261 -0.3077
  698TIP3    H123509   1.473   4.138   5.380  0.0721  1.1012  2.4002
  698TIP3    H223510   1.371   4.161   5.489 -3.5486  1.1461 -0.7896
  699TIP3   OH223511   4.744   5.621  10.898  0.2227 -0.0332 -0.4027
  699TIP3    H123512   4.812   5.621  10.830 -0.0778 -0.4113 -0.7086
  699TIP3    H223513   4.730   5.529  10.918 -0.3006  0.0359 -0.4406
  700TIP3   OH223514   6.787   3.446  15.667 -0.1324 -0.1209  0.7176
  700TIP3    H123515   6.824   3.488  15.745 -0.0650 -0.3489  0.8114
  700TIP3    H223516   6.694   3.437  15.686 -1.0057  3.5796 -0.9001
  701TIP3   OH223517   3.054   1.966  11.908 -0.1392 -0.3415 -0.0056
  701TIP3    H123518   2.981   1.992  11.851 -0.2132  0.6881  0.5391
  701TIP3    H223519   3.111   1.915  11.851 -0.7837 -0.3010 -0.7079
  702TIP3   OH223520   2.248   4.857  16.555  0.3201 -0.0151  0.0017
  702TIP3    H123521   2.232   4.911  16.477  0.0934  1.0227  0.7475
  702TIP3    H223522   2.162   4.849  16.596  1.0204  3.3005  2.5630
  703TIP3   OH223523   3.807   6.479  12.536  0.4436  0.9141  0.1069
  703TIP3    H123524   3.717   6.450  12.553 -0.1302  1.2325 -2.0757
  703TIP3    H223525   3.858   6.399  12.531  0.6223  0.7765  2.7422
  704TIP3   OH223526   0.907   1.011  10.998  0.3346 -0.1489  0.1369
  704TIP3    H123527   0.923   0.917  10.990 -1.0529 -0.3470 -0.6943
  704TIP3    H223528   0.901   1.041  10.907  0.7982  0.7532  0.4009
  705TIP3   OH223529   1.433   0.639  11.051 -0.4932  0.0633 -0.8408
  705TIP3    H123530   1.457   0.610  11.139 -1.4205 -2.7529 -1.4077
  705TIP3    H223531   1.395   0.561  11.010 -2.2154  1.8907 -2.9651
  706TIP3   OH223532   1.173   1.796   4.737 -0.3790  0.2518  0.4130
  706TIP3    H123533   1.210   1.751   4.813  0.6154 -0.9756 -0.7514
  706TIP3    H223534   1.118   1.730   4.695  0.3758  0.3850 -0.8211
  707TIP3   OH223535   6.693   5.635   6.692  0.3313 -0.1667 -0.0251
  707TIP3    H123536   6.668   5.649   6.601  1.3017 -0.4465 -0.3473
  707TIP3    H223537   6.663   5.546   6.711 -1.6309  0.5607  0.5679
  708TIP3   OH223538   3.126   3.800   6.273  0.1165 -0.2287 -0.1329
  708TIP3    H123539   3.199   3.747   6.304  0.0228  0.8726  2.1291
  708TIP3    H223540   3.053   3.776   6.330  0.0876  2.2950  1.0360
  709TIP3   OH223541   2.359   2.307  14.088  0.0307  0.4693  0.0058
  709TIP3    H123542   2.270   2.340  14.094 -0.5035 -0.3619 -2.2977
  709TIP3    H223543   2.368   2.248  14.163 -0.8523  1.6052  1.0388
  710TIP3   OH223544   3.283   2.577   2.827 -0.1258  0.3947 -0.2372
  710TIP3    H123545   3.314   2.656   2.782 -1.0164  0.0055 -1.5741
  710TIP3    H223546   3.326   2.505   2.781 -0.3431  0.0280  0.1259
  711TIP3   OH223547   2.858   1.857  14.544 -0.2322  0.3035  0.3824
  711TIP3    H123548   2.918   1.783  14.541 -1.9517 -1.1321  0.0040
  711TIP3    H223549   2.796   1.835  14.614  1.7451  3.4840  3.4559
  712TIP3   OH223550   2.042   0.094  17.103 -0.1717 -0.0570 -0.1144
  712TIP3    H123551   1.977   0.026  17.085 -1.0425  0.4480  0.9872
  712TIP3    H223552   2.088   0.063  17.181 -0.2735  0.4140  0.1332
  713TIP3   OH223553   6.206   2.628   3.167  0.2742 -0.3801  0.0503
  713TIP3    H123554   6.240   2.662   3.084 -0.6132 -0.2201 -0.2581
  713TIP3    H223555   6.281   2.584   3.207  0.3981 -1.6395 -1.4609
  714TIP3   OH223556   1.341   0.342  16.534 -0.6823  0.3027  0.3224
  714TIP3    H123557   1.344   0.294  16.616 -1.6300  0.6640  0.5719
  714TIP3    H223558   1.354   0.434  16.559 -0.7087  0.3845  0.0399
  715TIP3   OH223559   2.128   1.503  16.085  0.4901  0.1532 -0.4791
  715TIP3    H123560   2.217   1.482  16.056  1.0255 -0.0017  1.1650
  715TIP3    H223561   2.081   1.524  16.005  1.5919 -1.2555 -1.5539
  716TIP3   OH223562   2.340   3.103   5.235 -0.2209 -1.0956 -0.1240
  716TIP3    H123563   2.328   3.023   5.184  1.6622 -1.4241 -0.1098
  716TIP3    H223564   2.433   3.103   5.259 -0.1167  1.2202 -0.3215
  717TIP3   OH223565   1.798   5.089   2.894 -0.0111 -0.3031 -0.2023
  717TIP3    H123566   1.892   5.091   2.876  0.0094 -2.1058 -0.4528
  717TIP3    H223567   1.788   5.028   2.967 -1.0261 -0.5081 -0.4987
  718TIP3   OH223568   3.930   0.903   5.659 -0.9874  0.5339  0.3614
  718TIP3    H123569   3.913   0.816   5.696  0.5113  1.1175  2.6212
  718TIP3    H223570   3.979   0.886   5.579 -1.6134 -0.7249  0.2214
  719TIP3   OH223571   3.713   4.979   0.616 -0.1889 -0.4806 -0.1981
  719TIP3    H123572   3.627   4.954   0.650  0.0411 -0.6389  0.2729
  719TIP3    H223573   3.774   4.955   0.685  0.0812  0.9842  0.1034
  720TIP3   OH223574   4.358   4.806   0.559 -0.3918  0.0166 -0.6222
  720TIP3    H123575   4.398   4.747   0.495  0.6028 -0.0496  0.0310
  720TIP3    H223576   4.294   4.753   0.606 -0.8647 -0.0298 -1.3111
  721TIP3   OH223577   1.553   2.153  16.984  0.3450 -0.3862 -0.7053
  721TIP3    H123578   1.537   2.079  17.042  1.4446 -1.1216 -1.3029
  721TIP3    H223579   1.612   2.119  16.917  2.3662  1.4732 -0.0115
  722TIP3   OH223580   5.889   2.757  15.893  0.0797  0.2775 -0.5840
  722TIP3    H123581   5.893   2.787  15.803  0.3532 -0.3999 -0.8040
  722TIP3    H223582   5.915   2.833  15.945  0.9813  0.3560 -1.1366
  723TIP3   OH223583   1.166   2.554  15.275  0.2416 -0.2362 -0.0568
  723TIP3    H123584   1.161   2.535  15.369  1.0378 -1.7264 -0.2822
  723TIP3    H223585   1.251   2.597  15.264  0.0269  0.1903 -0.0614
  724TIP3   OH223586   1.256   3.534   4.534  0.0111  0.0697 -0.0847
  724TIP3    H123587   1.247   3.447   4.573 -0.2566 -0.0816 -0.4731
  724TIP3    H223588   1.322   3.522   4.465 -0.4470  0.0356 -0.5257
  725TIP3   OH223589   1.026   6.406   1.246 -0.0395 -0.1218 -0.5289
  725TIP3    H123590   1.116   6.404   1.277 -0.1943 -0.5347 -0.1104
  725TIP3    H223591   1.027   6.472   1.176  0.6245 -0.2686 -0.6626
  726TIP3   OH223592   4.911   3.723   0.672 -0.2341  0.2279  0.6239
  726TIP3    H123593   4.979   3.696   0.610 -0.8247  0.5911 -0.2062
  726TIP3    H223594   4.948   3.801   0.714 -1.2162  2.1825 -1.8944
  727TIP3   OH223595   4.991   0.865   4.357  0.3223  1.2767  0.2947
  727TIP3    H123596   5.035   0.907   4.282  0.4885 -2.2452 -1.7748
  727TIP3    H223597   5.062   0.827   4.408  0.0083 -0.6629 -0.6366
  728TIP3   OH223598   5.541   2.101   3.207  0.1579 -0.4450 -0.2173
  728TIP3    H123599   5.592   2.059   3.277 -1.8959  0.0128  1.6468
  728TIP3    H223600   5.602   2.163   3.167  0.5404  1.8201  3.4723
  729TIP3   OH223601   5.100   1.153   2.370 -0.2892  0.0612 -0.7762
  729TIP3    H123602   5.118   1.080   2.429  0.4122  1.8471  1.3694
  729TIP3    H223603   5.068   1.223   2.427 -3.0577  0.8195 -3.0021
  730TIP3   OH223604   3.275   5.604   3.074  1.0270 -0.0271  0.6887
  730TIP3    H123605   3.298   5.646   2.992  2.0736 -0.6325  0.6603
  730TIP3    H223606   3.346   5.627   3.134  1.2048 -1.0778  0.8960
  731TIP3   OH223607   0.722   2.751   0.906  0.1843  0.7046  0.0262
  731TIP3    H123608   0.701   2.813   0.835 -0.7644 -0.2584 -0.5545
  731TIP3    H223609   0.817   2.741   0.901  0.0056 -0.3533 -1.9863
  732TIP3   OH223610   2.600   6.426  10.980 -0.2474 -0.2442  0.3480
  732TIP3    H123611   2.601   6.366  10.905  0.1349  0.1895  0.0019
  732TIP3    H223612   2.507   6.442  10.997 -0.3624  1.4808 -1.5163
  733TIP3   OH223613   1.889   3.263   3.473 -0.1658 -0.2292  0.2446
  733TIP3    H123614   1.975   3.281   3.435  0.5479 -1.7653  1.0370
  733TIP3    H223615   1.851   3.195   3.417 -0.1133 -0.7899  0.8721
  734TIP3   OH223616   2.539   2.800   2.622 -0.1054  0.3771  0.1441
  734TIP3    H123617   2.593   2.756   2.688  0.1168  2.4089  1.3964
  734TIP3    H223618   2.510   2.880   2.665 -1.1914  1.0479 -1.7489
  735TIP3   OH223619   2.734   5.093   0.854 -0.1397 -0.0219  0.1989
  735TIP3    H123620   2.751   5.154   0.782  1.8602 -0.2369  0.4138
  735TIP3    H223621   2.815   5.095   0.905 -1.1398 -0.6381  1.8856
  736TIP3   OH223622   0.557   3.810  13.525 -0.5198  0.2119 -0.1249
  736TIP3    H123623   0.500   3.878  13.489  0.8828  0.9664 -0.9813
  736TIP3    H223624   0.622   3.858  13.577  0.0386 -0.5292 -0.1229
  737TIP3   OH223625   5.501   2.261  11.387 -0.4069 -0.5996  0.3531
  737TIP3    H123626   5.461   2.250  11.473 -0.1698  0.1401  0.5650
  737TIP3    H223627   5.550   2.343  11.394  0.9036 -1.3264  0.0051
  738TIP3   OH223628   5.706   3.887  15.738 -0.5628  0.0009 -1.1533
  738TIP3    H123629   5.763   3.868  15.664  0.6537 -1.4204  0.0553
  738TIP3    H223630   5.749   3.959  15.784  0.5343 -1.2742 -0.0686
  739TIP3   OH223631   4.263   0.610   1.572  0.1461  0.4983  0.3932
  739TIP3    H123632   4.237   0.528   1.530 -0.2706  0.9327 -0.2044
  739TIP3    H223633   4.216   0.678   1.524  0.6367  1.1087  0.7624
  740TIP3   OH223634   0.804   1.998   2.346 -0.4307  0.5632  0.0965
  740TIP3    H123635   0.806   2.017   2.252 -0.1292  0.3731  0.0636
  740TIP3    H223636   0.825   2.081   2.388  1.4615  0.2091 -0.0611
  741TIP3   OH223637   1.636   4.099  12.946 -0.1046 -0.4237  0.4716
  741TIP3    H123638   1.565   4.070  12.889 -0.3338 -1.2453  1.1461
  741TIP3    H223639   1.593   4.118  13.030  0.1257  1.3819  0.2196
  742TIP3   OH223640   4.949   3.368  16.243  0.2322  0.1424 -0.4677
  742TIP3    H123641   4.969   3.307  16.314 -2.6300 -0.6345 -0.2322
  742TIP3    H223642   4.923   3.449  16.287  0.2786  0.2724 -0.6749
  743TIP3   OH223643   5.181   0.995  11.180  0.1210 -0.2450  0.4074
  743TIP3    H123644   5.227   0.985  11.096  0.5501  1.6678  0.3638
  743TIP3    H223645   5.203   1.084  11.208 -2.0518  0.0618  1.3253
  744TIP3   OH223646   1.018   4.536  16.877  0.0943 -0.0208  0.1595
  744TIP3    H123647   1.007   4.490  16.794 -0.6371  0.5937 -0.0989
  744TIP3    H223648   0.973   4.620  16.864  0.1607  0.1721  1.1018
  745TIP3   OH223649   2.108   0.727  14.234 -0.1761  0.4983  0.2104
  745TIP3    H123650   2.030   0.679  14.206  0.7752 -0.5761 -0.7110
  745TIP3    H223651   2.125   0.695  14.323  1.6228 -2.5931 -1.0901
  746TIP3   OH223652   4.623   3.659  10.835  0.4684  0.2361  0.5042
  746TIP3    H123653   4.683   3.601  10.788 -1.4783 -0.8727 -0.7447
  746TIP3    H223654   4.611   3.733  10.775 -0.8425 -0.4536 -0.1113
  747TIP3   OH223655   1.659   3.034   1.861 -0.4970 -0.4733 -0.1819
  747TIP3    H123656   1.678   3.030   1.767  1.7530 -3.4231  0.2410
  747TIP3    H223657   1.692   3.119   1.888 -0.9810  0.3474 -1.9714
  748TIP3   OH223658   1.092   3.945  13.169  0.3758  0.2630 -0.0155
  748TIP3    H123659   1.064   3.980  13.085  0.3735 -0.1477 -0.1875
  748TIP3    H223660   1.010   3.927  13.216  0.3737  0.1647 -0.0584
  749TIP3   OH223661   4.177   0.944   5.213  0.5865  0.6246  0.1101
  749TIP3    H123662   4.198   1.029   5.253 -0.0362  0.5667  0.5697
  749TIP3    H223663   4.244   0.885   5.246 -0.7132  0.2406  2.2614
  750TIP3   OH223664   1.262   2.230   0.876  0.3662 -0.0097 -0.0146
  750TIP3    H123665   1.168   2.214   0.888 -0.1606  2.0040 -0.9094
  750TIP3    H223666   1.296   2.236   0.965  0.2022 -3.2127  0.3667
  751TIP3   OH223667   6.183   3.814   4.660  0.0072 -0.5757 -0.2232
  751TIP3    H123668   6.215   3.747   4.719 -0.6227 -0.7942 -0.1249
  751TIP3    H223669   6.099   3.781   4.628  0.8787 -1.0630 -2.2179
  752TIP3   OH223670   2.450   6.694   0.817 -0.5317  0.3283 -0.1735
  752TIP3    H123671   2.501   6.613   0.807 -0.3339  0.5150 -0.7359
  752TIP3    H223672   2.372   6.680   0.763 -1.1924 -0.0370  0.8468
  753TIP3   OH223673   6.460   2.453  14.335  0.0554  0.0207 -0.3922
  753TIP3    H123674   6.504   2.369  14.346  0.9098  0.1966 -2.0998
  753TIP3    H223675   6.530   2.518  14.338 -0.3844  0.5248 -0.7198
  754TIP3   OH223676   2.772   2.791   2.490  0.2093  0.0754 -0.2292
  754TIP3    H123677   2.694   2.843   2.510  0.0249 -0.5409  0.6985
  754TIP3    H223678   2.831   2.853   2.445 -0.0025  1.0888  0.8470
  755TIP3   OH223679   1.267   6.174   0.328 -0.0767  0.6447  0.0740
  755TIP3    H123680   1.234   6.249   0.279 -4.5308 -0.8876  0.3041
  755TIP3    H223681   1.198   6.154   0.391  1.5408 -2.7799  1.0288
  756TIP3   OH223682   3.971   4.994   2.270 -0.4393  0.2038  0.2519
  756TIP3    H123683   3.977   4.932   2.343  1.5955 -1.8478 -1.5169
  756TIP3    H223684   3.892   5.045   2.289 -1.2079 -1.6906  2.7423
  757TIP3   OH223685   3.327   2.739  16.245  0.1945  0.7236  0.1050
  757TIP3    H123686   3.398   2.785  16.201 -0.1407  0.0063 -1.2534
  757TIP3    H223687   3.370   2.668  16.294  0.3712 -0.6257 -1.8879
  758TIP3   OH223688   0.015   2.426  11.614  0.2246 -0.5615 -0.0109
  758TIP3    H123689   0.061   2.409  11.696  0.3679  0.2752  0.0840
  758TIP3    H223690   0.084   2.449  11.552 -0.1320  2.0928  0.4832
  759TIP3   OH223691   5.123   6.591   5.493 -0.8152 -0.3095  0.5562
  759TIP3    H123692   5.104   6.536   5.417  0.9551 -0.2859  0.0482
  759TIP3    H223693   5.194   6.546   5.538  0.9601  1.6850 -0.0759
  760TIP3   OH223694   6.536   6.050  11.522  0.4143 -0.4811  0.2898
  760TIP3    H123695   6.625   6.041  11.487  1.2099  2.2645  1.2827
  760TIP3    H223696   6.537   5.999  11.603  0.7028 -1.3643 -0.2550
  761TIP3   OH223697   5.813   0.074   3.863  0.0376  0.3048  0.2679
  761TIP3    H123698   5.832   0.071   3.957 -0.8254  1.3214  0.4905
  761TIP3    H223699   5.814   0.167   3.841 -0.3771  0.1139 -0.5937
  762TIP3   OH223700   2.727   4.454  15.059 -0.0054  0.1683 -0.0181
  762TIP3    H123701   2.710   4.360  15.056  0.2706  0.1400 -0.8630
  762TIP3    H223702   2.645   4.495  15.032  0.7178  0.0704 -2.6136
  763TIP3   OH223703   6.424   4.574   2.966 -0.2657  0.4568 -0.2193
  763TIP3    H123704   6.353   4.529   2.920  2.3328 -1.7552 -2.4156
  763TIP3    H223705   6.427   4.532   3.052 -2.0423  1.1608  0.2311
  764TIP3   OH223706   0.137   4.621   0.582  0.3762 -0.1514  0.7399
  764TIP3    H123707   0.231   4.608   0.594  0.7238  2.8239  2.2415
  764TIP3    H223708   0.117   4.699   0.634 -2.4118  0.9041 -1.6167
  765TIP3   OH223709   0.362   2.031  12.931 -0.7355 -0.0873 -0.0932
  765TIP3    H123710   0.305   2.089  12.982 -1.4668 -0.0272 -0.9480
  765TIP3    H223711   0.319   2.025  12.845 -1.2523 -2.7482  0.2721
  766TIP3   OH223712   6.566   0.712  16.596  0.4599 -0.6912  0.1566
  766TIP3    H123713   6.647   0.694  16.644  0.3634  1.2669  1.1770
  766TIP3    H223714   6.587   0.787  16.540 -0.1864 -1.2349 -0.8286
  767TIP3   OH223715   1.299   2.005   4.083 -0.2998 -0.0144  0.0516
  767TIP3    H123716   1.333   2.017   4.172  1.3242 -0.9335 -0.3880
  767TIP3    H223717   1.227   2.067   4.076 -0.1664  0.4061  1.8490
  768TIP3   OH223718   5.408   2.338  16.254  0.1279  0.0829 -0.5170
  768TIP3    H123719   5.395   2.243  16.245  0.2145 -0.2067  1.9168
  768TIP3    H223720   5.320   2.374  16.243  0.0192 -0.3062 -1.0077
  769TIP3   OH223721   1.342   6.419   1.004 -0.0707 -0.0546 -0.4518
  769TIP3    H123722   1.360   6.510   1.027 -0.5797 -0.4920  1.9352
  769TIP3    H223723   1.266   6.424   0.946  0.4777  1.0662 -1.1089
  770TIP3   OH223724   4.305   2.363   1.418 -0.3084  0.1004 -0.1193
  770TIP3    H123725   4.347   2.401   1.342  1.7492  0.3550  1.0829
  770TIP3    H223726   4.363   2.292   1.446 -1.3057 -0.3691  0.8922
  771TIP3   OH223727   6.748   6.509   3.064 -0.3941  0.1094 -0.2179
  771TIP3    H123728   6.663   6.552   3.052 -0.2169  1.1104  1.8229
  771TIP3    H223729   6.732   6.441   3.129  0.2287 -0.1993 -0.3766
  772TIP3   OH223730   5.099   2.667   2.696 -0.4521 -0.4164 -0.6413
  772TIP3    H123731   5.175   2.647   2.642  0.3978 -2.4468  1.1743
  772TIP3    H223732   5.135   2.701   2.778 -1.4192 -1.7283  0.3821
  773TIP3   OH223733   4.173   5.253  11.761  0.4202 -0.2668  0.4007
  773TIP3    H123734   4.211   5.199  11.830 -0.0483  2.1198  2.6682
  773TIP3    H223735   4.146   5.334  11.805 -2.5724  0.2520 -2.0172
  774TIP3   OH223736   5.788   2.035   4.536 -0.1216 -0.0302  0.3387
  774TIP3    H123737   5.699   2.017   4.566 -0.3383  1.2186  0.4986
  774TIP3    H223738   5.796   2.130   4.542  0.2811  0.1827 -2.3211
  775TIP3   OH223739   6.667   3.643   3.184 -0.2352  0.1629 -0.5094
  775TIP3    H123740   6.638   3.626   3.273  3.4182 -0.2643  0.7888
  775TIP3    H223741   6.713   3.727   3.189  0.9939 -0.3875 -1.6692
  776TIP3   OH223742   6.071   3.158  12.517 -0.2656 -0.1928 -0.0604
  776TIP3    H123743   6.024   3.075  12.528 -1.4211  0.6474  1.8383
  776TIP3    H223744   6.163   3.133  12.508 -0.4949 -1.6573  1.2578
  777TIP3   OH223745   1.803   6.744  10.805  0.5553  0.2199 -0.5546
  777TIP3    H123746   1.882   6.733  10.752  0.9930 -0.4845  0.2180
  777TIP3    H223747   1.790   6.659  10.847 -0.3624  0.4628 -0.3204
  778TIP3   OH223748   2.446   2.716   0.730 -0.0437 -0.5455 -0.0195
  778TIP3    H123749   2.524   2.668   0.756 -1.0343 -2.7412 -0.8369
  778TIP3    H223750   2.377   2.649   0.725 -2.1337  1.3599  1.1615
  779TIP3   OH223751   2.377   3.811   3.044 -0.2679  0.5562 -0.0470
  779TIP3    H123752   2.365   3.804   2.950  0.1785  1.5119 -0.1933
  779TIP3    H223753   2.456   3.759   3.062  0.3193  1.3024 -0.3903
  780TIP3   OH223754   1.126   4.104   3.957  0.2730 -0.5165  0.4157
  780TIP3    H123755   1.164   4.190   3.937 -0.8063 -0.3314 -1.0150
  780TIP3    H223756   1.140   4.053   3.878  2.0160 -2.1364  1.6801
  781TIP3   OH223757   6.693   6.780   4.184 -0.3282 -0.4610 -0.0860
  781TIP3    H123758   6.613   6.733   4.161 -1.8633  2.2313 -0.6401
  781TIP3    H223759   6.671   6.829   4.263  1.1361 -0.4378  0.3514
  782TIP3   OH223760   2.976   3.582  15.220 -0.2404  0.7210 -0.2665
  782TIP3    H123761   2.945   3.578  15.310  0.5964 -1.2574 -0.0093
  782TIP3    H223762   3.070   3.600  15.228 -0.3591  1.6034 -0.7970
  783TIP3   OH223763   3.610   0.109  12.492 -0.2892  0.4375  0.0149
  783TIP3    H123764   3.689   0.118  12.544  1.0275  1.4786 -2.0200
  783TIP3    H223765   3.611   0.017  12.463  0.7630  0.6922 -0.8229
  784TIP3   OH223766   5.842   3.303   3.156 -0.4758  0.4420 -0.2913
  784TIP3    H123767   5.903   3.233   3.133 -1.5279 -0.8186  0.6067
  784TIP3    H223768   5.807   3.278   3.241 -1.7030  1.4830 -0.4535
  785TIP3   OH223769   4.648   1.079  15.001 -0.2624  0.6320 -0.0916
  785TIP3    H123770   4.700   1.073  14.921  1.6807 -0.5135  1.1820
  785TIP3    H223771   4.578   1.015  14.989  0.1573  0.2933 -0.7521
  786TIP3   OH223772   5.255   6.518  16.785 -0.5675 -0.2522  0.5911
  786TIP3    H123773   5.315   6.500  16.857 -0.0576  0.0520  0.2530
  786TIP3    H223774   5.276   6.452  16.719 -0.7523 -0.2742  0.5524
  787TIP3   OH223775   2.113   4.296  15.293  0.6338 -0.5706  0.2280
  787TIP3    H123776   2.201   4.300  15.330  1.3446 -0.4647 -1.4212
  787TIP3    H223777   2.064   4.362  15.342  1.9084  0.5391  0.0736
  788TIP3   OH223778   4.167   1.644   5.324 -0.2005  0.3528  0.2125
  788TIP3    H123779   4.208   1.558   5.331  0.1983  0.2940 -2.1495
  788TIP3    H223780   4.223   1.701   5.377  1.4359 -0.2445 -0.7900
  789TIP3   OH223781   1.583   2.770   4.760  0.1522  0.1816 -0.2189
  789TIP3    H123782   1.500   2.725   4.749 -1.0401  2.3857 -0.9466
  789TIP3    H223783   1.636   2.742   4.686 -0.4721 -0.1803 -0.5351
  790TIP3   OH223784   0.358   5.149   4.137 -0.1887  0.1894 -0.2605
  790TIP3    H123785   0.376   5.243   4.138  1.5199 -0.0868 -1.5551
  790TIP3    H223786   0.327   5.131   4.048 -2.2972 -0.2080  0.4928
  791TIP3   OH223787   5.489   2.077   2.448 -0.1951 -0.5074 -0.7394
  791TIP3    H123788   5.463   2.169   2.444 -3.0915 -1.0788  1.4121
  791TIP3    H223789   5.583   2.079   2.466 -0.6265  2.2052  2.1098
  792TIP3   OH223790   0.128   0.400  13.764 -0.2369  0.0183 -0.8214
  792TIP3    H123791   0.069   0.469  13.736 -0.0659 -0.1658 -1.6766
  792TIP3    H223792   0.079   0.319  13.750  0.2573 -0.1413 -1.6552
  793TIP3   OH223793   1.804   6.568   6.058 -0.2184 -0.4835  0.7335
  793TIP3    H123794   1.882   6.587   6.005 -0.7431 -0.4213 -0.0353
  793TIP3    H223795   1.839   6.542   6.143  0.6256  0.2094  0.6155
  794TIP3   OH223796   5.012   2.707   5.270  0.1890  0.0891 -0.3646
  794TIP3    H123797   4.936   2.739   5.222  0.8526  0.3094 -1.3056
  794TIP3    H223798   5.081   2.702   5.204  0.9811 -0.1281  0.4630
  795TIP3   OH223799   5.256   3.278  15.691  0.5064 -0.2944 -0.0605
  795TIP3    H123800   5.179   3.221  15.695  1.8023 -2.0987  0.2942
  795TIP3    H223801   5.286   3.284  15.781 -0.3282  2.0863  0.1241
  796TIP3   OH223802   5.142   4.081   0.952  0.7087  0.0136  0.7483
  796TIP3    H123803   5.168   4.051   1.039 -0.2814 -0.9005  0.7576
  796TIP3    H223804   5.115   4.001   0.906 -1.4238  0.7747  0.5539
  797TIP3   OH223805   5.669   0.312  10.940  0.1463  0.4225 -0.0062
  797TIP3    H123806   5.723   0.385  10.911  2.6781 -1.4282 -0.2784
  797TIP3    H223807   5.644   0.267  10.860  4.2629 -2.7090  0.1687
  798TIP3   OH223808   1.836   3.502  13.404  0.0613 -0.3336 -0.4770
  798TIP3    H123809   1.920   3.478  13.444 -1.1428 -2.7906  0.8478
  798TIP3    H223810   1.819   3.591  13.436  0.6992 -0.9960  1.9769
  799TIP3   OH223811   3.264   1.061   2.349  0.2332  0.1641 -0.1364
  799TIP3    H123812   3.187   1.116   2.335 -0.1948 -0.8512 -2.1026
  799TIP3    H223813   3.338   1.120   2.334 -0.2042  0.4902 -1.1553
  800TIP3   OH223814   1.320   1.237  11.532  0.2282 -0.1617 -0.6321
  800TIP3    H123815   1.301   1.235  11.626  1.3135 -1.0567 -0.4138
  800TIP3    H223816   1.407   1.198  11.524  1.1021  1.8738 -1.7871
  801TIP3   OH223817   3.219   2.785  11.330  0.3292  0.2871 -0.0383
  801TIP3    H123818   3.202   2.838  11.408  0.4967 -1.1804  1.0211
  801TIP3    H223819   3.139   2.734  11.318  1.0064 -0.8608  0.2861
  802TIP3   OH223820   5.904   3.646   5.198  0.0204  0.0487 -0.1914
  802TIP3    H123821   5.985   3.606   5.229  0.9412  2.0573  0.1528
  802TIP3    H223822   5.871   3.695   5.274 -1.0355  0.0097 -0.6052
  803TIP3   OH223823   3.842   1.701   2.565  0.0787 -0.6137  0.1660
  803TIP3    H123824   3.888   1.647   2.630  1.1246  0.2003  0.1266
  803TIP3    H223825   3.790   1.762   2.618 -2.2090 -2.4911  0.2238
  804TIP3   OH223826   0.600   1.598   0.668  0.4176 -0.5135  0.3362
  804TIP3    H123827   0.662   1.573   0.736  0.7637  0.5095  0.4115
  804TIP3    H223828   0.514   1.577   0.705  0.4627  1.5626  1.8366
  805TIP3   OH223829   2.830   5.311   1.873 -0.3887 -0.2313  0.4819
  805TIP3    H123830   2.830   5.264   1.790 -2.4236  1.1505 -0.3847
  805TIP3    H223831   2.835   5.404   1.848 -1.4585  0.2277  1.8656
  806TIP3   OH223832   6.238   0.967  11.131 -0.5284  0.3940 -0.5283
  806TIP3    H123833   6.282   0.936  11.051  0.6320 -1.9959  0.9101
  806TIP3    H223834   6.309   0.988  11.190 -1.3403 -0.0209  0.6252
  807TIP3   OH223835   2.923   0.607   4.983  0.6137  0.1677 -0.0995
  807TIP3    H123836   2.887   0.540   4.925  1.9146 -0.3026 -0.3902
  807TIP3    H223837   2.927   0.566   5.069  1.2797 -0.0763 -0.2485
  808TIP3   OH223838   5.501   1.870   5.794 -0.3219  0.5783  0.5660
  808TIP3    H123839   5.500   1.962   5.770  3.0794  0.5798 -0.1032
  808TIP3    H223840   5.582   1.859   5.845 -0.4428 -2.0799  0.3536
  809TIP3   OH223841   6.287   1.043  12.783 -0.1115  0.0918  0.2011
  809TIP3    H123842   6.245   1.099  12.848 -0.9929 -1.0538  0.6468
  809TIP3    H223843   6.216   0.987  12.750  1.0125 -1.7949  0.8609
  810TIP3   OH223844   5.645   0.767   0.021  0.2079 -0.8489  0.5304
  810TIP3    H123845   5.738   0.788   0.016  0.6902 -2.4466  2.0572
  810TIP3    H223846   5.617   0.805   0.105 -0.9181  0.8944 -0.5606
  811TIP3   OH223847   0.246   5.889   5.403 -0.5755  0.1203 -0.0203
  811TIP3    H123848   0.173   5.839   5.440 -1.2224  1.9019  1.2607
  811TIP3    H223849   0.324   5.847   5.440 -1.1676  1.1893  2.7315
  812TIP3   OH223850   4.785   0.691  15.289 -0.0793 -0.2469 -0.1001
  812TIP3    H123851   4.807   0.699  15.382 -0.2146 -0.9634  0.0022
  812TIP3    H223852   4.792   0.780  15.255 -0.0012  0.0201  0.5900
  813TIP3   OH223853   4.737   4.785  14.467  0.7014  0.2312 -0.1606
  813TIP3    H123854   4.731   4.742  14.382  1.4723 -0.2517  0.0231
  813TIP3    H223855   4.792   4.862  14.452 -0.2610  0.8898 -0.3790
  814TIP3   OH223856   4.802   1.361   1.991  0.1143  0.1522  0.1335
  814TIP3    H123857   4.775   1.409   2.069 -0.2377  0.1908 -0.0108
  814TIP3    H223858   4.724   1.312   1.964  0.6720 -1.1405  0.7413
  815TIP3   OH223859   5.061   3.626  12.837 -0.0878  0.1057  0.2220
  815TIP3    H123860   4.969   3.638  12.815  0.2612  1.3965 -0.6435
  815TIP3    H223861   5.109   3.659  12.761  1.1064  0.8719  1.2548
  816TIP3   OH223862   4.322   2.822   0.638 -0.5354 -0.5330 -0.4849
  816TIP3    H123863   4.279   2.782   0.563  0.1559  1.0851 -1.8151
  816TIP3    H223864   4.252   2.832   0.703 -1.1534 -1.9481 -0.8970
  817TIP3   OH223865   0.745   4.264  14.656 -0.9844  1.1950  0.3556
  817TIP3    H123866   0.710   4.213  14.730  0.0002  0.5855  0.4165
  817TIP3    H223867   0.760   4.351  14.692  1.0342  0.4910  1.3823
  818TIP3   OH223868   1.881   0.736  15.652 -0.1897 -0.0864 -0.3949
  818TIP3    H123869   1.901   0.736  15.746  2.5347  0.0973 -0.8963
  818TIP3    H223870   1.829   0.657  15.638  1.0639 -1.2194  0.9942
  819TIP3   OH223871   2.740   0.200  16.667 -0.4937 -0.1281  0.3022
  819TIP3    H123872   2.784   0.190  16.752  0.2682 -1.9347 -0.2479
  819TIP3    H223873   2.656   0.240  16.688 -0.1209 -0.0891  1.8553
  820TIP3   OH223874   6.752   2.085  15.031 -0.2235 -0.8079  0.5308
  820TIP3    H123875   6.678   2.089  14.971 -0.6582 -4.5491  0.5805
  820TIP3    H223876   6.722   2.129  15.110 -0.9234  1.0995 -0.7450
  821TIP3   OH223877   5.349   3.656  11.412  0.5725 -0.6625  0.2932
  821TIP3    H123878   5.310   3.740  11.438  0.9102  0.1030 -1.5712
  821TIP3    H223879   5.437   3.659  11.448  1.6004  1.0975 -2.1006
  822TIP3   OH223880   6.559   6.163   2.962  0.4594  0.0588  0.3505
  822TIP3    H123881   6.467   6.149   2.981 -0.3344  2.0600 -1.5651
  822TIP3    H223882   6.599   6.181   3.047 -1.2012  0.5717  1.0603
  823TIP3   OH223883   2.438   0.693  14.840  0.5129 -0.6213 -0.4964
  823TIP3    H123884   2.527   0.684  14.806  0.8026  1.3488 -0.3655
  823TIP3    H223885   2.409   0.779  14.809 -0.9263 -0.7448  0.4111
  824TIP3   OH223886   4.621   1.360   0.180  0.2754 -0.1055 -0.0194
  824TIP3    H123887   4.535   1.363   0.138  0.7974 -1.3552 -1.2857
  824TIP3    H223888   4.683   1.360   0.106  1.2705 -1.2546  0.7707
  825TIP3   OH223889   0.658   1.399  11.887 -1.0936 -0.0081 -0.0527
  825TIP3    H123890   0.734   1.448  11.918 -3.0286  1.7234  2.4591
  825TIP3    H223891   0.645   1.427  11.797  0.8741  0.0843 -0.3326
  826TIP3   OH223892   5.210   0.346   3.667 -0.2472 -0.3933 -0.5153
  826TIP3    H123893   5.130   0.361   3.716 -0.8359  0.0224 -1.5673
  826TIP3    H223894   5.276   0.325   3.733 -1.1452 -0.4205  0.3841
  827TIP3   OH223895   2.788   0.592  11.228  0.4543 -0.1975  0.2028
  827TIP3    H123896   2.764   0.627  11.314 -0.4927 -0.9466  0.2595
  827TIP3    H223897   2.761   0.660  11.166  3.0350  1.2822  0.5866
  828TIP3   OH223898   6.501   1.281   5.736  0.3005  0.1814  0.2005
  828TIP3    H123899   6.497   1.353   5.799 -0.8970  0.7059 -0.4239
  828TIP3    H223900   6.563   1.310   5.669 -1.5679  1.5675 -1.0623
  829TIP3   OH223901   4.959   0.151   3.594 -0.5609  0.4767 -0.5834
  829TIP3    H123902   5.041   0.159   3.644 -0.1508 -1.2475 -0.9000
  829TIP3    H223903   4.988   0.146   3.503 -1.0752  0.6533 -0.7535
  830TIP3   OH223904   6.540   3.394   6.149 -0.3736  0.3543 -0.7967
  830TIP3    H123905   6.466   3.341   6.119 -0.5484  0.0548  0.1157
  830TIP3    H223906   6.503   3.447   6.221  0.1781  0.5719 -0.6719
  831TIP3   OH223907   0.209   4.355  12.021  0.1283 -0.0433  0.5617
  831TIP3    H123908   0.200   4.445  12.053  0.2284  0.3565 -0.5113
  831TIP3    H223909   0.303   4.344  12.007  0.2018 -0.5711  1.3689
  832TIP3   OH223910   4.421   3.432   1.256 -0.5877  0.0395  0.4125
  832TIP3    H123911   4.464   3.368   1.200  2.4853  2.2497  0.0097
  832TIP3    H223912   4.369   3.485   1.195  1.3842  1.3666 -0.2010
  833TIP3   OH223913   3.324   2.605  17.058  0.7292 -0.0365 -0.5846
  833TIP3    H123914   3.348   2.558  17.137  1.2707  1.2244  0.0346
  833TIP3    H223915   3.239   2.569  17.033  1.0604 -1.2103 -0.0640
  834TIP3   OH223916   1.003   2.662  14.503 -0.5034 -0.3374 -0.3732
  834TIP3    H123917   1.053   2.661  14.421 -0.2051  0.8256 -0.2177
  834TIP3    H223918   1.047   2.597  14.559  1.4189  1.2739  0.0793
  835TIP3   OH223919   6.427   3.823  13.755  0.2686 -0.2152 -0.4522
  835TIP3    H123920   6.380   3.800  13.835  0.7753 -1.2797 -0.4426
  835TIP3    H223921   6.435   3.918  13.759 -0.0065 -0.2180  0.5973
  836TIP3   OH223922   1.425   1.077  16.458  0.5838 -0.3318  0.2363
  836TIP3    H123923   1.380   1.160  16.473 -1.1652 -1.2455  0.4014
  836TIP3    H223924   1.425   1.034  16.543  0.2536 -1.0481 -0.1107
  837TIP3   OH223925   1.509   2.256   5.466 -0.6200 -0.3516 -0.4014
  837TIP3    H123926   1.434   2.262   5.407 -0.6237 -0.4755 -0.4104
  837TIP3    H223927   1.532   2.163   5.466 -1.5704 -0.6135  0.9884
  838TIP3   OH223928   2.871   3.857  12.191 -0.1879  0.0115  0.1762
  838TIP3    H123929   2.893   3.941  12.231 -0.0479 -0.1396  0.4256
  838TIP3    H223930   2.956   3.820  12.165 -0.4042  0.9661 -2.0587
  839TIP3   OH223931   1.096   2.876  11.338  0.0380  0.1524 -0.0864
  839TIP3    H123932   1.094   2.966  11.371  0.2831  0.0604  0.1843
  839TIP3    H223933   1.106   2.886  11.243 -1.6277  0.4440 -0.2791
  840TIP3   OH223934   6.636   5.315   5.972 -0.1637  0.1776  0.2083
  840TIP3    H123935   6.650   5.237   6.026 -1.4271 -0.4008 -0.2607
  840TIP3    H223936   6.699   5.379   6.006  0.3160 -0.7611  1.1587
  841TIP3   OH223937   1.697   0.291  13.200 -0.0493  0.3874  0.5040
  841TIP3    H123938   1.632   0.270  13.134 -0.3238  0.9394  0.5966
  841TIP3    H223939   1.664   0.250  13.280  0.5908 -0.8145  0.1886
  842TIP3   OH223940   1.217   1.885   1.344  0.0176  0.3473 -0.1663
  842TIP3    H123941   1.273   1.955   1.377  2.0833 -1.8062  1.1789
  842TIP3    H223942   1.230   1.887   1.249 -0.0150  1.7905 -0.1587
  843TIP3   OH223943   0.965   5.032   0.505  0.0299  0.1112  0.0530
  843TIP3    H123944   0.926   5.041   0.419 -0.7461  1.0892  0.4892
  843TIP3    H223945   0.954   4.940   0.528 -0.5777  0.0469 -0.5034
  844TIP3   OH223946   1.726   5.717   5.541  0.2539  0.0883 -0.5318
  844TIP3    H123947   1.787   5.644   5.534  1.7645  1.1102  1.2579
  844TIP3    H223948   1.744   5.771   5.464  1.0694 -0.0132 -0.4174
  845TIP3   OH223949   2.887   0.198  14.485 -0.2716 -0.1180  0.2370
  845TIP3    H123950   2.966   0.222  14.436  0.0858 -0.3890  0.6733
  845TIP3    H223951   2.815   0.230  14.431  0.1573  0.8279  0.2079
  846TIP3   OH223952   5.567   2.270   4.179 -0.0579  0.2255 -0.1957
  846TIP3    H123953   5.519   2.310   4.251 -0.5480 -2.8308  1.3495
  846TIP3    H223954   5.548   2.176   4.187  2.3254 -0.5698 -2.4724
  847TIP3   OH223955   6.678   5.516   3.968  0.5241 -0.1662 -0.4174
  847TIP3    H123956   6.624   5.586   3.932 -0.9695 -1.0749 -0.0529
  847TIP3    H223957   6.759   5.518   3.916  0.9678  2.4469  0.2449
  848TIP3   OH223958   0.163   6.300   6.340  0.0671 -0.2894 -0.0732
  848TIP3    H123959   0.241   6.259   6.377  0.8387  2.2033  1.2859
  848TIP3    H223960   0.148   6.376   6.395 -4.3792 -1.5241  0.7899
  849TIP3   OH223961   5.239   2.522   3.560  0.3827 -0.0067 -0.4533
  849TIP3    H123962   5.155   2.507   3.604  0.1133 -0.1460 -1.0035
  849TIP3    H223963   5.297   2.454   3.594  1.2518  1.9104  2.3257
  850TIP3   OH223964   6.339   1.671   4.379 -0.3644 -0.0567 -0.7410
  850TIP3    H123965   6.272   1.616   4.420 -0.8574  1.4751  0.5990
  850TIP3    H223966   6.419   1.651   4.427 -0.8229  1.3098  0.6840
  851TIP3   OH223967   1.033   1.931  12.684  0.2362  0.0847  0.4248
  851TIP3    H123968   1.066   1.881  12.758 -0.0416 -1.0924 -0.2220
  851TIP3    H223969   0.955   1.975  12.718  0.1575 -0.3795  0.8525
  852TIP3   OH223970   6.204   0.406   1.577  0.1514  0.2611 -0.1697
  852TIP3    H123971   6.138   0.349   1.616 -0.5930  1.3438  0.1966
  852TIP3    H223972   6.157   0.457   1.512  0.4043  1.6622  0.6950
  853TIP3   OH223973   1.103   1.721  16.092  0.2105 -0.3943  0.1602
  853TIP3    H123974   1.045   1.741  16.165 -1.6202 -1.3357 -0.9557
  853TIP3    H223975   1.185   1.693  16.132 -0.7616 -0.9303  1.8408
  854TIP3   OH223976   1.434   1.756  13.477  0.2463  0.0413 -0.2195
  854TIP3    H123977   1.361   1.755  13.414 -0.5100 -1.3957  0.6324
  854TIP3    H223978   1.410   1.823  13.540  0.0509  0.1271 -0.3819
  855TIP3   OH223979   6.749   1.254  16.236  0.5554 -0.0149 -0.0630
  855TIP3    H123980   6.682   1.189  16.260 -0.9163  2.5264  3.5853
  855TIP3    H223981   6.703   1.314  16.178  0.4810  0.2207  0.2363
  856TIP3   OH223982   3.559   5.648   5.024  0.0457  0.1723  0.6088
  856TIP3    H123983   3.596   5.729   5.057  0.9503 -1.0541  2.8213
  856TIP3    H223984   3.634   5.589   5.017 -0.5565 -0.4502 -1.1665
  857TIP3   OH223985   1.166   3.487  12.107 -0.0770  0.6047  0.2246
  857TIP3    H123986   1.244   3.467  12.158 -0.1241  1.7163  0.7541
  857TIP3    H223987   1.180   3.443  12.023  1.8887  2.1385 -0.3218
  858TIP3   OH223988   4.967   2.147   1.681 -0.5917  0.2771 -1.0384
  858TIP3    H123989   5.046   2.094   1.675 -1.4901 -1.4752  1.2308
  858TIP3    H223990   4.896   2.083   1.689 -2.1910  1.8146 -2.1986
  859TIP3   OH223991   6.307   4.865  14.426 -0.1758  0.2049 -0.1368
  859TIP3    H123992   6.240   4.799  14.446  0.5788 -0.4833  0.2013
  859TIP3    H223993   6.258   4.945  14.410 -1.2145 -0.6664 -1.6125
  860TIP3   OH223994   3.900   2.874   3.119  0.0101 -0.0246 -0.2534
  860TIP3    H123995   3.855   2.793   3.142 -0.5814  0.4383  0.2489
  860TIP3    H223996   3.976   2.846   3.069 -1.2142 -0.7969 -1.7609
  861TIP3   OH223997   4.305   2.069   1.053 -0.0375  0.5649 -0.1762
  861TIP3    H123998   4.234   2.063   0.989 -1.7765  0.7012  1.6473
  861TIP3    H223999   4.330   2.162   1.053 -1.5425  0.9923  0.8620
  862TIP3   OH224000   1.816   3.638  16.426  0.5690 -0.2786  0.2625
  862TIP3    H124001   1.883   3.706  16.434  0.4786 -0.2895  1.3126
  862TIP3    H224002   1.854   3.574  16.366  0.4301  0.9306 -1.1820
  863TIP3   OH224003   6.144   4.383  11.764 -0.3336 -0.2041  0.0046
  863TIP3    H124004   6.161   4.470  11.726 -3.7363  0.5010 -0.1930
  863TIP3    H224005   6.093   4.401  11.843  2.1539 -1.9355  2.2028
  864TIP3   OH224006   1.442   0.238  11.181  0.1191 -0.0226 -0.6097
  864TIP3    H124007   1.410   0.295  11.111 -1.6950 -1.3274 -0.8884
  864TIP3    H224008   1.525   0.203  11.147  0.6176  1.4071 -0.9535
  865TIP3   OH224009   3.795   2.397   3.943 -0.2705  0.0785  0.0999
  865TIP3    H124010   3.800   2.489   3.917  0.7717  0.3578  1.2276
  865TIP3    H224011   3.885   2.366   3.942 -0.3765 -0.3713  1.6343
  866TIP3   OH224012   5.398   0.186  11.457  0.6019  0.5476  0.0534
  866TIP3    H124013   5.390   0.259  11.396  2.0350  0.5190 -0.2059
  866TIP3    H224014   5.335   0.121  11.427 -0.4096  1.5088  0.0525
  867TIP3   OH224015   6.086   0.491  13.665  0.0722  0.1697 -0.8538
  867TIP3    H124016   6.178   0.474  13.688  0.1499  0.3447 -1.0322
  867TIP3    H224017   6.088   0.512  13.572 -0.1694  0.0272 -0.8904
  868TIP3   OH224018   0.806   5.010  13.582  0.0672  0.2944 -0.5396
  868TIP3    H124019   0.767   5.056  13.507  1.5813 -0.5158 -1.8890
  868TIP3    H224020   0.851   5.079  13.630 -0.3077  0.7120 -0.7682
  869TIP3   OH224021   3.942   2.060   5.691 -0.5000  0.2697 -0.3404
  869TIP3    H124022   3.903   2.088   5.609  0.4357  0.1371 -0.8469
  869TIP3    H224023   4.001   2.131   5.715 -1.6257  0.8531  0.8488
  870TIP3   OH224024   0.930   2.098  16.502 -0.0796 -0.6260 -0.1062
  870TIP3    H124025   0.973   2.026  16.549 -1.4547 -0.9569  0.7033
  870TIP3    H224026   0.942   2.174  16.559  0.3559 -0.4686 -0.4018
  871TIP3   OH224027   6.277   2.246  17.002 -0.4788  0.2884  0.1517
  871TIP3    H124028   6.371   2.254  17.015 -0.5268 -0.6781  1.1786
  871TIP3    H224029   6.267   2.226  16.909  0.4640 -1.5994  0.4318
  872TIP3   OH224030   1.983   5.176   4.702  0.0825  0.2408 -0.1037
  872TIP3    H124031   2.072   5.203   4.721  0.6574 -1.5333 -0.0708
  872TIP3    H224032   1.989   5.127   4.620 -1.0168  0.8287 -0.5616
  873TIP3   OH224033   6.697   0.485   2.800  0.1118  0.1650 -0.0769
  873TIP3    H124034   6.699   0.561   2.741 -1.0047 -0.5193 -1.0371
  873TIP3    H224035   6.716   0.522   2.886  0.0487  1.4769 -0.5925
  874TIP3   OH224036   2.568   0.806  13.206  0.1301 -0.5226  0.5840
  874TIP3    H124037   2.607   0.721  13.227 -0.9912 -1.8086 -1.9975
  874TIP3    H224038   2.642   0.862  13.184  0.9977 -0.2910  3.6403
  875TIP3   OH224039   0.573   2.375   1.224 -0.1511 -0.7955  0.2881
  875TIP3    H124040   0.618   2.337   1.299  0.1812  0.1858  0.6084
  875TIP3    H224041   0.564   2.303   1.161  1.7825 -1.0547  0.2597
  876TIP3   OH224042   0.626   0.265  12.221  0.5519  0.1678  0.3161
  876TIP3    H124043   0.557   0.329  12.235 -0.8885 -0.9796 -1.1990
  876TIP3    H224044   0.688   0.309  12.163 -0.5110  0.1906 -0.8493
  877TIP3   OH224045   4.146   4.332   3.258  0.4046 -0.0620  0.2171
  877TIP3    H124046   4.235   4.352   3.230 -0.3249  0.4364 -1.9386
  877TIP3    H224047   4.105   4.293   3.181 -1.1851 -0.5050  1.2328
  878TIP3   OH224048   0.946   1.845  12.254 -0.3588  0.5047  0.0110
  878TIP3    H124049   0.894   1.901  12.311 -0.7774 -0.0020  0.1243
  878TIP3    H224050   0.912   1.863  12.166 -0.2904  0.6447  0.0121
  879TIP3   OH224051   2.023   6.054   2.260  0.4226  0.8425 -0.0073
  879TIP3    H124052   2.070   5.989   2.208 -1.0164  0.9977 -1.5708
  879TIP3    H224053   2.001   6.007   2.341  0.0250 -0.4085 -0.8018
  880TIP3   OH224054   0.229   0.710   1.259 -0.0738 -0.0974  0.0735
  880TIP3    H124055   0.307   0.743   1.304 -0.8392  0.8407  0.7547
  880TIP3    H224056   0.246   0.616   1.247  1.4029  0.1938 -0.3366
  881TIP3   OH224057   5.028   1.728  12.711  0.3952 -0.2547 -0.7514
  881TIP3    H124058   5.092   1.691  12.649 -0.2013 -1.4522 -0.6870
  881TIP3    H224059   5.005   1.654  12.768 -1.1781  0.0935 -0.8885
  882TIP3   OH224060   0.849   1.863  15.816 -0.2052  0.5817  0.1363
  882TIP3    H124061   0.811   1.841  15.901 -1.7512  0.5853 -0.5211
  882TIP3    H224062   0.917   1.798  15.802 -1.3096 -0.6835  0.4793
  883TIP3   OH224063   3.598   1.577  12.402 -0.4611  0.4876  0.3828
  883TIP3    H124064   3.566   1.553  12.314 -1.5208 -1.4208  1.2353
  883TIP3    H224065   3.520   1.576  12.457  0.4050  0.2560  1.6447
  884TIP3   OH224066   2.678   0.987  16.491  0.3785 -0.7269 -0.1900
  884TIP3    H124067   2.742   1.058  16.480 -0.7873  0.5310  0.7734
  884TIP3    H224068   2.637   1.006  16.575 -1.4293 -1.3716 -0.8933
  885TIP3   OH224069   3.584   4.089  13.617 -0.1474 -0.0155  0.0988
  885TIP3    H124070   3.626   4.088  13.703  0.2722  1.7386 -0.0361
  885TIP3    H224071   3.513   4.153  13.627 -0.9490 -0.7852 -0.5071
  886TIP3   OH224072   5.260   4.765  14.794 -0.3967 -0.6831  0.0292
  886TIP3    H124073   5.229   4.676  14.778 -1.0369 -0.0432 -2.6954
  886TIP3    H224074   5.343   4.771  14.747 -0.2313  0.0923  0.3916
  887TIP3   OH224075   2.139   0.434   1.096 -0.4510 -0.1301 -0.4118
  887TIP3    H124076   2.159   0.524   1.072  2.4427 -0.0661  1.7289
  887TIP3    H224077   2.095   0.398   1.019  1.3846  2.1380 -2.7044
  888TIP3   OH224078   5.980   3.226   2.766  0.6116 -0.0184 -0.1573
  888TIP3    H124079   5.891   3.193   2.772  0.7120 -0.1001  1.1124
  888TIP3    H224080   5.971   3.315   2.732 -0.1542  0.7635  1.9641
  889TIP3   OH224081   3.841   4.718  13.713  0.0495 -0.0693 -0.4192
  889TIP3    H124082   3.930   4.724  13.748 -0.5328  2.5705  0.8743
  889TIP3    H224083   3.788   4.690  13.788 -0.5135  0.7890 -0.4765
  890TIP3   OH224084   6.745   6.712   1.160 -0.4470 -0.3640  0.1335
  890TIP3    H124085   6.711   6.660   1.088  0.6179  0.1683 -0.7776
  890TIP3    H224086   6.815   6.765   1.121 -1.3253  1.5863  1.0610
  891TIP3   OH224087   5.104   2.002  15.943 -0.2362  0.1349 -0.2082
  891TIP3    H124088   5.079   2.080  15.894 -2.1251 -1.1378 -1.3959
  891TIP3    H224089   5.026   1.982  15.997  0.0380 -1.1641 -0.2606
  892TIP3   OH224090   3.972   3.481   2.065 -0.4448  0.2384  0.1764
  892TIP3    H124091   4.013   3.399   2.093  0.8409  0.8720  0.2234
  892TIP3    H224092   3.975   3.537   2.142  3.3961  2.1046 -1.0797
  893TIP3   OH224093   1.486   0.127   1.714 -0.7611 -0.2601 -0.4595
  893TIP3    H124094   1.390   0.128   1.712 -0.7628 -0.7964 -0.9043
  893TIP3    H224095   1.508   0.158   1.802 -1.3309  0.2762 -0.4998
  894TIP3   OH224096   2.064   4.715  13.188  0.0057 -0.0710 -0.1504
  894TIP3    H124097   2.039   4.730  13.097  4.2871  0.9775 -1.4185
  894TIP3    H224098   2.085   4.802  13.222  0.7500 -0.6701  1.0255
  895TIP3   OH224099   0.039   2.449  15.579 -0.2227  0.5331  0.3156
  895TIP3    H124100  -0.054   2.445  15.604 -0.1421  0.6401  0.6316
  895TIP3    H224101   0.075   2.365  15.607 -0.8735 -0.7823 -2.4513
  896TIP3   OH224102   1.844   0.110  16.001  0.5133 -0.0098  0.3326
  896TIP3    H124103   1.884   0.024  15.989  0.4324 -0.0643  0.4424
  896TIP3    H224104   1.897   0.170  15.949  0.5167 -0.1421  0.1855
  897TIP3   OH224105   1.748   2.984  12.407  0.1827 -0.4120 -0.0035
  897TIP3    H124106   1.692   2.949  12.338  0.0540  0.0937 -0.1613
  897TIP3    H224107   1.824   2.926  12.409 -0.0438 -0.7172 -0.2308
  898TIP3   OH224108   4.414   1.999  13.769  0.4534 -0.1362  0.1059
  898TIP3    H124109   4.369   1.993  13.684  0.4548 -1.5814  0.1684
  898TIP3    H224110   4.506   1.983  13.748  0.6428  0.7591  0.2349
  899TIP3   OH224111   0.805   2.759  12.503 -0.0444 -0.0188  0.2711
  899TIP3    H124112   0.866   2.772  12.577  1.5924  0.4794 -1.0897
  899TIP3    H224113   0.789   2.665  12.501  0.1983 -0.0838  1.0340
  900TIP3   OH224114   6.520   0.054   3.027  0.5573 -0.0965  0.3256
  900TIP3    H124115   6.486   0.118   2.964 -0.1724 -1.7214 -1.0066
  900TIP3    H224116   6.465   0.066   3.104 -0.0621  0.3947 -0.1716
  901TIP3   OH224117   5.240   4.305   2.957 -0.5445  0.2960 -0.3281
  901TIP3    H124118   5.186   4.232   2.926 -0.3342 -0.0859  0.1770
  901TIP3    H224119   5.268   4.278   3.045  0.9935  0.1898 -0.8167
  902TIP3   OH224120   4.739   6.760   3.663 -0.1544 -1.0977 -0.3550
  902TIP3    H124121   4.813   6.820   3.656 -1.5512  1.3252  3.1189
  902TIP3    H224122   4.771   6.689   3.719  0.2584 -1.4272 -0.9983
  903TIP3   OH224123   2.830   5.827  14.194 -0.1625  0.3201  0.1360
  903TIP3    H124124   2.802   5.834  14.103  0.5718 -0.0765 -0.1269
  903TIP3    H224125   2.923   5.851  14.193  0.4823 -1.8824  0.3790
  904TIP3   OH224126   1.823   0.368   3.891  0.0346 -0.0655 -0.3876
  904TIP3    H124127   1.773   0.429   3.836 -0.7300 -0.2721  0.0663
  904TIP3    H224128   1.805   0.396   3.980  1.6825  0.5839 -0.2243
  905TIP3   OH224129   0.052   6.033   0.231 -0.0765  0.1604  0.3478
  905TIP3    H124130   0.040   6.128   0.231 -0.9812  0.0772  1.6735
  905TIP3    H224131  -0.031   5.999   0.265  0.4515 -1.0709  0.4316
  906TIP3   OH224132   1.501   3.934   3.427 -0.1920  0.3547  0.2581
  906TIP3    H124133   1.502   3.959   3.335 -3.2940 -0.8627 -0.2270
  906TIP3    H224134   1.491   4.017   3.474  0.4430  0.9017 -0.5497
  907TIP3   OH224135   1.664   0.747  10.505 -0.5492 -0.0263  0.2265
  907TIP3    H124136   1.604   0.821  10.500 -1.9594 -1.1652 -0.5866
  907TIP3    H224137   1.654   0.715  10.595  1.1248  1.5509  1.0410
  908TIP3   OH224138   6.183   6.549  13.327  0.2716 -0.0290 -0.0432
  908TIP3    H124139   6.227   6.482  13.380  0.7963 -0.5940 -1.1575
  908TIP3    H224140   6.160   6.618  13.390  0.6804 -0.7696  0.9492
  909TIP3   OH224141   6.283   5.920  14.873 -0.4158  0.2846  0.5522
  909TIP3    H124142   6.351   5.982  14.845  0.4765 -0.1188  1.7882
  909TIP3    H224143   6.282   5.926  14.968 -0.1445 -1.7729  0.7233
  910TIP3   OH224144   3.991   0.437  12.784 -0.4868 -0.4669 -0.0984
  910TIP3    H124145   4.050   0.427  12.859  1.4274  1.5980 -1.1957
  910TIP3    H224146   4.050   0.447  12.709 -2.3126 -3.0795 -2.0655
  911TIP3   OH224147   2.664   1.865   2.894  0.3839  0.0183  0.3343
  911TIP3    H124148   2.683   1.957   2.914 -1.3192  0.1126  1.7821
  911TIP3    H224149   2.568   1.862   2.885  0.2761 -1.8163  1.5588
  912TIP3   OH224150   5.508   3.626  11.741  0.0704  0.1633 -0.0814
  912TIP3    H124151   5.518   3.543  11.788  0.5295  0.3037  0.0656
  912TIP3    H224152   5.574   3.622  11.672 -2.0139 -1.0422 -2.1825
  913TIP3   OH224153   4.902   1.515   1.011 -0.0753  0.5105  0.0934
  913TIP3    H124154   4.938   1.441   1.060  1.1298  1.1393  0.2048
  913TIP3    H224155   4.820   1.483   0.974  1.1914 -1.3838 -1.2012
  914TIP3   OH224156   2.073   6.354   3.912 -0.1655  0.1354 -0.7249
  914TIP3    H124157   2.092   6.267   3.948  1.6938 -0.3009 -2.5753
  914TIP3    H224158   2.003   6.340   3.849 -0.3688  0.1306 -0.5020
  915TIP3   OH224159   6.093   3.750  10.679  0.0708  0.0182  0.4929
  915TIP3    H124160   6.151   3.746  10.755  0.7363  2.6118  0.2161
  915TIP3    H224161   6.027   3.682  10.695  2.2508 -2.0081  1.5478
  916TIP3   OH224162   0.172   3.565   3.353  0.5765 -0.2148  0.0936
  916TIP3    H124163   0.147   3.601   3.438  0.5871 -0.8120  0.3516
  916TIP3    H224164   0.090   3.530   3.317  0.5855 -0.0263 -0.1106
  917TIP3   OH224165   3.414   4.340   0.095  0.0452 -0.5908 -0.0874
  917TIP3    H124166   3.438   4.430   0.075 -0.0232 -0.4070  0.6123
  917TIP3    H224167   3.355   4.347   0.170 -1.8644 -1.0608 -1.4789
  918TIP3   OH224168   0.616   6.806   5.076  0.0701  0.1524  0.9477
  918TIP3    H124169   0.653   6.868   5.139  0.4286  1.5676 -0.5907
  918TIP3    H224170   0.644   6.720   5.108  1.9966  0.9634  1.5797
  919TIP3   OH224171   4.001   3.869  14.521 -0.1804 -0.5072 -0.5885
  919TIP3    H124172   4.057   3.899  14.592 -0.3876  2.5974 -1.6188
  919TIP3    H224173   4.060   3.855  14.447 -0.5511  2.2330 -1.5111
  920TIP3   OH224174   0.930   1.181  13.121 -0.4016 -0.5886 -0.2224
  920TIP3    H124175   1.023   1.164  13.107 -0.1056  0.0594  0.8431
  920TIP3    H224176   0.906   1.125  13.195 -0.2840  0.8702  0.9711
  921TIP3   OH224177   0.311   1.933  11.971  0.1478 -0.1010 -0.0728
  921TIP3    H124178   0.248   1.868  12.001  1.1422 -1.2396 -0.3805
  921TIP3    H224179   0.394   1.905  12.009  0.5150  1.2887  0.2136
  922TIP3   OH224180   1.776   0.154   0.123  0.3792 -0.7032 -0.2269
  922TIP3    H124181   1.845   0.189   0.068  0.1429 -0.4977 -0.3919
  922TIP3    H224182   1.699   0.207   0.102 -0.2376 -1.9285 -1.1899
  923TIP3   OH224183   1.913   2.618  16.243 -0.3646 -0.5215  0.1135
  923TIP3    H124184   1.851   2.685  16.213 -0.6713 -0.4945  0.8035
  923TIP3    H224185   1.917   2.556  16.170  1.6140  1.3533 -1.5129
  924TIP3   OH224186   4.148   4.592   5.200  0.4651 -0.0923 -0.4284
  924TIP3    H124187   4.184   4.550   5.278  1.1570 -0.5823 -0.9974
  924TIP3    H224188   4.089   4.659   5.234  1.2988  0.1809  0.5346
  925TIP3   OH224189   4.129   2.721   1.734  0.3299  0.0564  0.0591
  925TIP3    H124190   4.144   2.797   1.790  0.9760  0.6797 -0.9339
  925TIP3    H224191   4.197   2.726   1.668  0.3091 -1.3314 -0.1000
  926TIP3   OH224192   2.319   0.976   1.642 -0.1682 -0.1846 -0.4520
  926TIP3    H124193   2.278   0.905   1.591  2.2843 -0.6657 -1.8850
  926TIP3    H224194   2.388   0.933   1.693 -0.0397  0.8870  0.3166
  927TIP3   OH224195   3.615   5.565  10.384 -0.0981  0.7884 -0.1979
  927TIP3    H124196   3.660   5.497  10.333 -0.3447  1.0143 -0.7198
  927TIP3    H224197   3.530   5.526  10.405 -0.0481  0.7475 -0.0680
  928TIP3   OH224198   1.392   2.666   0.356 -0.6017 -0.5666 -0.2038
  928TIP3    H124199   1.299   2.681   0.373 -0.9118 -2.4251 -0.1327
  928TIP3    H224200   1.393   2.603   0.284  0.6365  3.1113 -3.7938
  929TIP3   OH224201   2.128   5.302  10.727  0.2986  0.0594  0.2326
  929TIP3    H124202   2.072   5.281  10.801  0.9175  2.2325  1.4017
  929TIP3    H224203   2.214   5.269  10.752  0.8570  2.1010  1.2597
  930TIP3   OH224204   6.429   4.886  15.940 -0.2191 -0.7988 -0.0748
  930TIP3    H124205   6.440   4.916  15.849  0.8195 -0.6276  0.0959
  930TIP3    H224206   6.515   4.856  15.966 -0.2751  0.0590  1.1828
  931TIP3   OH224207   2.891   0.014  14.690 -0.0800  0.0354 -0.3573
  931TIP3    H124208   2.868   0.086  14.632  0.8214  0.1119 -0.6298
  931TIP3    H224209   2.948  -0.043  14.638  2.3202  1.0865  0.9802
  932TIP3   OH224210   6.014   4.579  13.778  0.2116 -0.2073  0.0135
  932TIP3    H124211   5.973   4.649  13.727 -1.3105  0.6065  2.1675
  932TIP3    H224212   6.027   4.507  13.716 -2.0765  0.4774 -1.3685
  933TIP3   OH224213   3.871   4.772  15.719 -0.5501  0.2886  0.2650
  933TIP3    H124214   3.932   4.833  15.677  0.2441  0.6802  1.9163
  933TIP3    H224215   3.784   4.805  15.694 -0.1712 -0.4068 -2.2979
  934TIP3   OH224216   5.341   2.298  10.720  0.0931 -0.3086 -0.1085
  934TIP3    H124217   5.336   2.263  10.631 -0.2121  0.1522 -0.2749
  934TIP3    H224218   5.322   2.223  10.776  0.2706 -0.6003 -0.4267
  935TIP3   OH224219   4.051   1.576  16.687 -0.4245 -0.0633 -0.5048
  935TIP3    H124220   4.064   1.669  16.668 -1.0490  0.0713 -0.3016
  935TIP3    H224221   3.962   1.558  16.658 -1.2982  0.0512  1.8714
  936TIP3   OH224222   3.690   2.956  10.949  0.0748 -0.1729  0.0213
  936TIP3    H124223   3.767   3.000  10.913 -0.0689  0.8595  0.9311
  936TIP3    H224224   3.697   2.866  10.917 -0.6043  0.8706 -3.4297
  937TIP3   OH224225   2.735   2.521   3.848 -0.9125  0.6757  0.2466
  937TIP3    H124226   2.797   2.564   3.906  1.4283 -1.0308 -0.8046
  937TIP3    H224227   2.709   2.441   3.895  1.8930 -1.3226 -1.2904
  938TIP3   OH224228   5.623   4.379  15.376  0.0823 -0.5791 -0.3261
  938TIP3    H124229   5.564   4.385  15.301 -0.2371  1.1902  0.0321
  938TIP3    H224230   5.565   4.385  15.452  0.5734 -0.6073  0.0515
  939TIP3   OH224231   0.484   0.521  15.921 -0.2742 -0.4402  0.1404
  939TIP3    H124232   0.493   0.441  15.972  0.2205  0.3758  1.3903
  939TIP3    H224233   0.457   0.587  15.985  0.4094  0.6350 -0.6466
  940TIP3   OH224234   5.939   2.233  16.151  0.1286 -0.5954 -0.7846
  940TIP3    H124235   5.849   2.258  16.168 -0.0767 -1.5111 -0.4629
  940TIP3    H224236   5.962   2.279  16.070 -0.6475 -0.4053 -0.9012
  941TIP3   OH224237   3.858   0.904   4.687 -0.0205 -0.0421 -0.1411
  941TIP3    H124238   3.843   0.814   4.661  2.8242 -0.4132 -0.8828
  941TIP3    H224239   3.906   0.943   4.614 -0.0698  1.6959  0.6853
  942TIP3   OH224240   3.388   4.211  14.865 -0.7005 -0.1874  0.2918
  942TIP3    H124241   3.431   4.131  14.834  0.0236 -0.0817  0.9874
  942TIP3    H224242   3.343   4.185  14.945  2.8577  0.8550  2.8908
  943TIP3   OH224243   2.844   5.625  11.174 -0.1073 -0.2688  0.1168
  943TIP3    H124244   2.837   5.535  11.140  0.1286 -1.4064  2.8546
  943TIP3    H224245   2.784   5.627  11.249  0.4473  1.6523  0.5548
  944TIP3   OH224246   0.133   3.111  16.403  0.4003  0.0731  0.4338
  944TIP3    H124247   0.224   3.095  16.379 -0.3604 -0.5926 -2.3079
  944TIP3    H224248   0.126   3.207  16.404  1.1848  0.1389  1.0157
  945TIP3   OH224249   3.606   3.853   0.951  0.6393 -0.3950 -0.1487
  945TIP3    H124250   3.621   3.764   0.983  1.4866  0.4719  2.0746
  945TIP3    H224251   3.686   3.900   0.972  0.1235  0.9501 -1.0899
  946TIP3   OH224252   1.329   3.428   3.965 -0.1613 -0.0005 -0.3678
  946TIP3    H124253   1.385   3.417   3.888  0.3413 -1.5908  0.1768
  946TIP3    H224254   1.339   3.346   4.013 -1.7182  0.3274  0.5791
  947TIP3   OH224255   3.240   0.218   0.846  0.8230  0.5027 -0.0141
  947TIP3    H124256   3.175   0.187   0.784  1.1694 -1.9177  0.7324
  947TIP3    H224257   3.300   0.271   0.794  0.9135 -1.1653 -1.7006
  948TIP3   OH224258   0.134   5.547  13.088  0.1414 -0.5244 -0.0004
  948TIP3    H124259   0.218   5.557  13.042  1.0959 -2.7577  1.1129
  948TIP3    H224260   0.071   5.531  13.019  1.1336 -1.4747 -0.7218
  949TIP3   OH224261   4.722   0.626  14.145  0.2631  0.1428  0.5438
  949TIP3    H124262   4.662   0.700  14.147 -1.8335 -1.4664  2.7274
  949TIP3    H224263   4.718   0.594  14.055 -0.2993  1.4642  0.0722
  950TIP3   OH224264   3.261   3.118  16.087 -0.1347 -0.5249  0.0650
  950TIP3    H124265   3.339   3.173  16.095  0.3205 -1.0943 -0.3831
  950TIP3    H224266   3.231   3.107  16.177  1.3051 -1.6943  0.4604
  951TIP3   OH224267   4.649   0.510  13.373 -0.0264  0.9128 -0.2396
  951TIP3    H124268   4.649   0.602  13.400  0.3838  0.6287  0.7716
  951TIP3    H224269   4.701   0.465  13.440 -2.2252 -0.4565  0.6625
  952TIP3   OH224270   1.144   0.585   2.056  0.0804  0.6283  0.3912
  952TIP3    H124271   1.183   0.498   2.050 -2.2177 -0.4264 -0.5421
  952TIP3    H224272   1.077   0.586   1.988 -2.3209  1.8305  2.5912
  953TIP3   OH224273   1.976   2.671  12.116 -0.1688  0.7388 -0.4334
  953TIP3    H124274   1.967   2.762  12.087  2.5144  0.7467 -1.5167
  953TIP3    H224275   2.067   2.648  12.096 -0.6878 -2.1155  0.0296
  954TIP3   OH224276   1.017   3.183  12.525 -0.4009  0.0836 -0.0854
  954TIP3    H124277   0.946   3.141  12.476 -1.0200  0.2462  0.6605
  954TIP3    H224278   0.984   3.191  12.614  1.2465 -1.5296  0.7460
  955TIP3   OH224279   3.665   4.582   3.513  0.2417  0.0404  0.6425
  955TIP3    H124280   3.576   4.562   3.544  0.3082  0.0264  0.8232
  955TIP3    H224281   3.660   4.570   3.418 -0.0732  0.4888  0.5971
  956TIP3   OH224282   3.704   4.632  10.586 -0.3343  0.1883 -0.5444
  956TIP3    H124283   3.751   4.710  10.559 -0.4620  0.2193 -0.6764
  956TIP3    H224284   3.770   4.562  10.583  0.6223  0.7968  2.4980
  957TIP3   OH224285   6.250   1.161   3.006  0.2471  0.4525  0.0661
  957TIP3    H124286   6.174   1.112   2.975  0.2644 -0.8767  1.9346
  957TIP3    H224287   6.213   1.240   3.046 -0.0743  0.3384 -0.0051
  958TIP3   OH224288   6.154   0.145   5.701  0.0420 -0.2443 -0.1517
  958TIP3    H124289   6.137   0.175   5.790  2.0942 -0.3901  0.3459
  958TIP3    H224290   6.101   0.203   5.646 -0.5773  0.4232  1.1049
  959TIP3   OH224291   4.069   5.982  11.413 -0.4575  0.0581  0.2256
  959TIP3    H124292   4.152   5.946  11.445 -1.0951 -1.5731  0.1506
  959TIP3    H224293   4.069   6.073  11.444  1.7492  0.3866 -0.5755
  960TIP3   OH224294   2.555   5.107  12.711  0.0403 -0.1425 -0.0568
  960TIP3    H124295   2.496   5.031  12.711 -0.1876  0.0273 -0.9722
  960TIP3    H224296   2.570   5.125  12.619  0.1949  0.8522  0.1614
  961TIP3   OH224297   6.654   4.447  15.035  0.4795  0.2229  0.2585
  961TIP3    H124298   6.637   4.421  15.125 -0.4059  1.7790  0.5767
  961TIP3    H224299   6.577   4.419  14.986 -0.6702  2.4535  0.6786
  962TIP3   OH224300   5.803   1.155   1.591 -0.0016 -0.3691 -0.1686
  962TIP3    H124301   5.797   1.155   1.687  0.4092  0.5500 -0.1308
  962TIP3    H224302   5.889   1.117   1.573  0.3868  0.4604 -0.1190
  963TIP3   OH224303   2.083   0.945  15.901  0.5199 -0.5519  0.2465
  963TIP3    H124304   2.140   1.019  15.923 -1.4907  1.3582 -0.6204
  963TIP3    H224305   2.071   0.899  15.984 -0.8899  2.1273  1.6829
  964TIP3   OH224306   5.779   3.067   1.954  0.3119 -0.1136  0.0501
  964TIP3    H124307   5.806   3.058   2.046  0.1275  0.8341  0.2131
  964TIP3    H224308   5.690   3.031   1.952  0.4579 -0.4864  0.1600
  965TIP3   OH224309   6.218   1.787   5.267  0.1649  0.2202 -0.1655
  965TIP3    H124310   6.288   1.726   5.244 -0.4349 -0.7963  0.5928
  965TIP3    H224311   6.148   1.731   5.301 -0.7473  1.2719 -0.2612
  966TIP3   OH224312   5.669   3.360  13.777 -0.0741  0.8255 -0.2759
  966TIP3    H124313   5.754   3.330  13.746 -0.7199  0.5951 -1.8899
  966TIP3    H224314   5.622   3.280  13.801  0.0388  0.9310  0.3138
  967TIP3   OH224315   5.365   1.542  10.503 -0.5140  0.0541  0.0527
  967TIP3    H124316   5.411   1.467  10.539  0.3063  0.1051 -0.8254
  967TIP3    H224317   5.409   1.618  10.541 -0.4164  0.0940 -0.1355
  968TIP3   OH224318   1.904   3.062   0.127 -0.5536  0.2330 -0.4947
  968TIP3    H124319   1.903   2.977   0.171 -0.9589  0.6888  0.4281
  968TIP3    H224320   1.822   3.064   0.078  0.7173 -1.0159 -2.8281
  969TIP3   OH224321   6.455   3.850   3.968  0.2862 -0.0806 -0.0283
  969TIP3    H124322   6.492   3.920   4.021  0.6924  1.2551 -1.9608
  969TIP3    H224323   6.453   3.886   3.879 -0.1088 -2.2963 -0.9824
  970TIP3   OH224324   1.618   6.523  14.153  0.4015  0.2187 -0.0080
  970TIP3    H124325   1.699   6.574  14.145  0.2802  0.1450 -2.3116
  970TIP3    H224326   1.551   6.578  14.113  0.0083 -1.1559 -1.3095
  971TIP3   OH224327   0.008   4.690  11.780 -0.4164  0.3446 -0.5903
  971TIP3    H124328   0.032   4.735  11.861  1.8070  0.0696 -1.0213
  971TIP3    H224329  -0.048   4.618  11.808 -1.7259  1.6843  0.4029
  972TIP3   OH224330   5.987   4.906  16.019  0.4524  0.1048 -0.4741
  972TIP3    H124331   6.055   4.839  16.010  0.3097  0.1148 -1.9102
  972TIP3    H224332   6.008   4.950  16.101  1.4184 -0.7291 -0.2434
  973TIP3   OH224333   3.661   4.445   1.079 -0.2245 -0.4040 -0.1640
  973TIP3    H124334   3.719   4.518   1.099  2.4112 -2.0846 -1.1719
  973TIP3    H224335   3.705   4.397   1.009 -0.6584 -4.2115  1.9331
  974TIP3   OH224336   1.502   4.691   2.148  0.5688 -0.3051  0.0575
  974TIP3    H124337   1.466   4.629   2.085 -0.6675  0.0854  0.3487
  974TIP3    H224338   1.511   4.640   2.229 -1.3365  0.0756  0.5630
  975TIP3   OH224339   4.531   0.116   5.891 -0.0049  0.4838  0.3334
  975TIP3    H124340   4.492   0.201   5.909 -0.8955 -0.2109  1.9600
  975TIP3    H224341   4.455   0.057   5.882  0.5535  0.0255 -1.8103
  976TIP3   OH224342   3.704   4.841   1.707  0.6665 -0.5242  0.3678
  976TIP3    H124343   3.796   4.867   1.697  1.4099 -2.6867  0.9612
  976TIP3    H224344   3.681   4.802   1.623 -1.0749  3.4597 -1.2527
  977TIP3   OH224345   0.503   5.238  16.680  0.2347 -0.1850 -0.5339
  977TIP3    H124346   0.472   5.228  16.590 -2.0387 -2.0581  0.3486
  977TIP3    H224347   0.451   5.310  16.715  0.4056 -0.0945 -0.4703
  978TIP3   OH224348   5.241   5.362   5.159  0.1199  1.3428  0.1638
  978TIP3    H124349   5.265   5.451   5.185  1.1152  0.7925  1.1603
  978TIP3    H224350   5.312   5.307   5.191 -1.3696 -0.0500  1.2344
  979TIP3   OH224351   0.904   2.872   3.556 -0.1509  0.1924 -0.1689
  979TIP3    H124352   0.811   2.852   3.566 -1.3033  4.4367 -0.6941
  979TIP3    H224353   0.937   2.879   3.646 -0.1109 -1.7071  0.0212
  980TIP3   OH224354   0.476   1.529  13.719 -0.5478  0.3627  0.0738
  980TIP3    H124355   0.485   1.580  13.799 -1.1249  1.4472 -0.5187
  980TIP3    H224356   0.404   1.572  13.671 -1.4183 -1.3401 -0.2223
  981TIP3   OH224357   3.931   2.056  11.846  0.1594 -0.4407  0.3563
  981TIP3    H124358   3.990   2.097  11.910  0.7475 -0.7050 -0.0049
  981TIP3    H224359   3.990   2.024  11.777 -0.4032 -0.7992  0.0391
  982TIP3   OH224360   1.804   0.518  10.468  0.4373  0.9326  0.0982
  982TIP3    H124361   1.800   0.478  10.381  0.0350 -0.3804  0.7092
  982TIP3    H224362   1.731   0.580  10.469  0.9043  1.5305 -0.7505
  983TIP3   OH224363   3.844   4.876   1.132 -0.3475 -0.4247  0.6391
  983TIP3    H124364   3.929   4.903   1.166  0.0877 -1.7858  0.6871
  983TIP3    H224365   3.791   4.956   1.133  1.3757  0.7973 -0.8539
  984TIP3   OH224366   3.796   5.018   6.510 -0.4535  0.0043  0.0618
  984TIP3    H124367   3.887   4.989   6.517 -0.5778 -0.5915 -0.7060
  984TIP3    H224368   3.798   5.108   6.540  0.5870  0.3417 -0.9422
  985TIP3   OH224369   2.343   4.747   2.397  0.2231  0.7390 -0.0466
  985TIP3    H124370   2.295   4.736   2.315  0.9246 -0.0197 -0.3634
  985TIP3    H224371   2.431   4.713   2.379  0.4051  0.6178  0.9990
  986TIP3   OH224372   5.959   3.186  14.790 -0.2666 -0.6651 -0.2784
  986TIP3    H124373   5.897   3.245  14.746 -1.8184 -1.7449  0.4120
  986TIP3    H224374   6.041   3.237  14.793 -1.4971  1.4218  0.1842
  987TIP3   OH224375   5.964   5.985   4.371 -0.3711  0.0445  0.8610
  987TIP3    H124376   5.941   6.077   4.359 -0.8445 -0.2577 -0.9015
  987TIP3    H224377   5.880   5.941   4.386 -0.4000 -0.3414 -0.3074
  988TIP3   OH224378   1.122   3.147   2.048 -0.4597 -0.3276 -0.2815
  988TIP3    H124379   1.052   3.148   2.113 -0.3857 -1.9267 -0.1219
  988TIP3    H224380   1.102   3.219   1.989 -2.3616 -0.8926 -0.3759
  989TIP3   OH224381   2.675   3.815   0.524  0.2095 -0.8554  0.2103
  989TIP3    H124382   2.658   3.813   0.430 -0.0833  0.7395  0.2016
  989TIP3    H224383   2.757   3.865   0.533  1.3114 -2.6640  0.7008
  990TIP3   OH224384   2.300   5.667  10.549  0.3012  0.4877  0.2336
  990TIP3    H124385   2.356   5.633  10.618 -2.1503  0.5690  2.4044
  990TIP3    H224386   2.212   5.639  10.573 -0.7521  1.0293 -2.5865
  991TIP3   OH224387   4.070   5.741  12.763  0.3618 -0.2504  0.4139
  991TIP3    H124388   4.142   5.698  12.718  0.1012 -0.7207  0.4404
  991TIP3    H224389   4.050   5.684  12.837 -0.3495 -0.3750  0.1351
  992TIP3   OH224390   6.443   5.778   2.113 -0.1050 -0.1329 -0.0648
  992TIP3    H124391   6.481   5.720   2.046  1.7068 -1.3204  1.8776
  992TIP3    H224392   6.431   5.722   2.190 -1.3637  1.3805  0.9071
  993TIP3   OH224393   1.211   4.060   5.817  0.4166 -0.5566 -0.0604
  993TIP3    H124394   1.216   4.155   5.828  0.8983 -0.6573  0.6439
  993TIP3    H224395   1.285   4.038   5.761 -0.2714 -0.4144 -1.0698
  994TIP3   OH224396   2.175   0.985   0.650  0.3744 -0.3678  1.0539
  994TIP3    H124397   2.086   0.985   0.613  0.0684 -1.5793  1.7231
  994TIP3    H224398   2.228   1.030   0.585 -0.5831 -0.3215  0.2736
  995TIP3   OH224399   6.546   6.489  11.796 -0.0688 -0.3396 -0.4693
  995TIP3    H124400   6.547   6.493  11.700 -1.2074 -2.4818 -0.6467
  995TIP3    H224401   6.638   6.478  11.820  0.0863 -1.4696 -1.4666
  996TIP3   OH224402   1.867   0.450  11.514 -0.0403  0.2355 -0.0587
  996TIP3    H124403   1.911   0.405  11.442 -2.1117  0.1491 -1.3519
  996TIP3    H224404   1.837   0.532  11.476  1.1394  1.4318  1.4776
  997TIP3   OH224405   4.047   4.317  12.000 -0.2550  0.6489 -0.0316
  997TIP3    H124406   4.072   4.312  11.907 -1.5138 -0.2870 -0.3377
  997TIP3    H224407   4.128   4.297  12.047  0.3225  0.8029 -0.9305
  998TIP3   OH224408   0.497   4.689  17.065 -0.0868 -0.2493  0.3597
  998TIP3    H124409   0.539   4.742  17.133  2.0252 -1.6818  0.2546
  998TIP3    H224410   0.539   4.716  16.984 -0.6951 -0.4339 -0.0254
  999TIP3   OH224411   4.035   2.955  12.855  0.0036  0.1163 -0.5180
  999TIP3    H124412   4.026   3.007  12.935  0.5570  0.7828 -0.8778
  999TIP3    H224413   4.125   2.969  12.827 -0.4570  0.7128 -1.8079
 1000TIP3   OH224414   3.340   3.387  16.620  0.3487 -0.2809  0.0568
 1000TIP3    H124415   3.312   3.472  16.652  0.8100 -0.7646  1.8759
 1000TIP3    H224416   3.285   3.324  16.667  1.7403 -1.0719  0.6956
 1001TIP3   OH224417   2.199   6.102   3.720  0.0563 -0.5078 -0.4633
 1001TIP3    H124418   2.217   6.078   3.629 -0.1943  0.0873 -0.6725
 1001TIP3    H224419   2.280   6.081   3.767 -0.3423 -2.3425 -0.5116
 1002TIP3   OH224420   0.664   5.356  14.308 -0.2697 -0.7973  0.3752
 1002TIP3    H124421   0.599   5.287  14.295 -0.5956 -0.8946  2.1960
 1002TIP3    H224422   0.623   5.435  14.272  0.3492 -1.5805 -2.2897
 1003TIP3   OH224423   2.119   1.560  14.927  0.2165 -0.2794 -0.3002
 1003TIP3    H124424   2.029   1.534  14.909 -0.0336  0.4685 -0.1516
 1003TIP3    H224425   2.157   1.578  14.841 -0.8215  2.7722 -0.2521
 1004TIP3   OH224426   5.328   6.508   3.319  0.5070  0.2240 -0.0044
 1004TIP3    H124427   5.267   6.510   3.393  2.2400  0.5526  1.4870
 1004TIP3    H224428   5.384   6.584   3.332  2.0461 -0.7644 -0.5838
 1005TIP3   OH224429   0.566   1.514  14.436 -0.2629 -0.6698  0.1665
 1005TIP3    H124430   0.523   1.555  14.361  0.8882  0.0971 -0.1136
 1005TIP3    H224431   0.501   1.517  14.506 -0.9294 -0.2675 -0.4563
 1006TIP3   OH224432   1.702   4.010   6.527 -0.2413  0.7312 -0.0244
 1006TIP3    H124433   1.749   3.953   6.465  0.4617 -0.1074  1.2182
 1006TIP3    H224434   1.691   3.956   6.606 -2.6654  1.1647  0.0148
 1007TIP3   OH224435   0.336   6.690  16.682 -0.1452 -0.0793 -0.1324
 1007TIP3    H124436   0.320   6.715  16.773 -0.8063 -0.9839  0.0186
 1007TIP3    H224437   0.344   6.773  16.635 -0.9491  0.4056  0.5621
 1008TIP3   OH224438   1.478   6.071  16.496  1.1283 -0.3250  0.3836
 1008TIP3    H124439   1.571   6.081  16.513  0.8226  1.0071  1.4505
 1008TIP3    H224440   1.443   6.030  16.575  0.7191 -0.2727  0.2344
 1009TIP3   OH224441   6.801   1.146  15.532  0.3121 -0.5421 -0.5063
 1009TIP3    H124442   6.850   1.224  15.560 -2.2596  1.4275 -1.0467
 1009TIP3    H224443   6.862   1.097  15.478  1.4940  2.1553 -1.8078
 1010TIP3   OH224444   0.798   6.421   4.784 -0.1904 -0.3592  0.3121
 1010TIP3    H124445   0.843   6.351   4.830  1.4950 -0.1855 -0.9638
 1010TIP3    H224446   0.759   6.379   4.707 -0.3371 -0.1381  0.2617
 1011TIP3   OH224447   5.018   6.410   2.202  0.6724  0.0420  0.0507
 1011TIP3    H124448   5.078   6.478   2.169  0.6189  0.1303  0.1343
 1011TIP3    H224449   4.954   6.400   2.132  1.6352 -1.1292 -0.7008
 1012TIP3   OH224450   1.180   5.692   2.237 -0.4540 -0.1948 -0.4021
 1012TIP3    H124451   1.135   5.670   2.318 -1.9912  0.2900 -1.0998
 1012TIP3    H224452   1.238   5.764   2.262 -2.4477  1.3969 -0.1163
 1013TIP3   OH224453   1.857   3.571  17.068  0.4725  0.1524 -0.4136
 1013TIP3    H124454   1.840   3.593  16.977 -2.8331  0.8853  0.2609
 1013TIP3    H224455   1.860   3.475  17.069  0.5137  0.1361 -1.2609
 1014TIP3   OH224456   6.586   3.929  16.915 -0.5317 -0.0896 -0.2360
 1014TIP3    H124457   6.578   3.958  17.006  0.3406  0.6465 -0.3862
 1014TIP3    H224458   6.678   3.905  16.905 -0.2835  1.2196 -1.3150
 1015TIP3   OH224459   5.070   4.383   4.340  0.0789 -0.8249 -0.3596
 1015TIP3    H124460   5.159   4.373   4.373  0.3189 -0.6643 -0.9489
 1015TIP3    H224461   5.072   4.465   4.289 -0.6732 -0.2479  0.5042
 1016TIP3   OH224462   6.277   3.510   4.458 -0.3537 -0.0372 -0.1686
 1016TIP3    H124463   6.182   3.513   4.471 -0.4381  0.8356 -0.9029
 1016TIP3    H224464   6.313   3.499   4.546 -1.1662 -1.4869  0.0145
 1017TIP3   OH224465   3.504   3.571   0.013 -0.3643  0.0299  0.2707
 1017TIP3    H124466   3.480   3.582  -0.079  1.6449  0.1443 -0.2872
 1017TIP3    H224467   3.593   3.534   0.010  0.3414  1.4365  2.1443
 1018TIP3   OH224468   3.261   2.663   2.279 -0.4619 -0.1918  0.4332
 1018TIP3    H124469   3.172   2.697   2.277 -0.3325  0.4189  2.5467
 1018TIP3    H224470   3.312   2.732   2.322  0.6595 -1.2832  0.9313
 1019TIP3   OH224471   4.238   5.573   1.540  0.4897 -0.2585 -0.2457
 1019TIP3    H124472   4.221   5.487   1.500  1.5884 -0.4606 -0.3132
 1019TIP3    H224473   4.231   5.635   1.467  1.0786 -0.4631 -0.4839
 1020TIP3   OH224474   6.556   6.062   5.861 -0.2358  0.4447  0.1037
 1020TIP3    H124475   6.497   6.137   5.866 -3.0242 -1.5112 -1.0066
 1020TIP3    H224476   6.569   6.047   5.768 -0.2545 -0.8198  0.2857
 1021TIP3   OH224477   0.004   5.094  13.821  0.4290  0.1448 -0.2471
 1021TIP3    H124478  -0.047   5.175  13.825 -2.8393 -1.7664  1.7179
 1021TIP3    H224479   0.058   5.096  13.899 -1.0697 -0.3037  0.8545
 1022TIP3   OH224480   6.237   2.884  16.792 -0.6061  0.4775 -0.1027
 1022TIP3    H124481   6.244   2.972  16.830 -3.1074  0.1432  1.3091
 1022TIP3    H224482   6.156   2.848  16.828 -1.0642 -1.4258 -2.7130
 1023TIP3   OH224483   4.210   0.396  15.057  0.4540  0.7959  0.5219
 1023TIP3    H124484   4.158   0.471  15.028 -0.7755  0.2563  1.2476
 1023TIP3    H224485   4.221   0.409  15.151  0.7447  0.3769  0.5507
 1024TIP3   OH224486   6.777   5.508   4.827  0.3193  0.5331  0.2963
 1024TIP3    H124487   6.744   5.462   4.905 -0.8004 -1.9339 -1.5010
 1024TIP3    H224488   6.717   5.582   4.816 -2.1685 -1.4121 -0.4220
 1025TIP3   OH224489   4.279   3.792  13.795 -0.5737 -0.6036 -0.4687
 1025TIP3    H124490   4.271   3.886  13.813 -0.3531 -0.4777 -1.0081
 1025TIP3    H224491   4.336   3.787  13.718 -0.3152 -1.1973 -0.2458
 1026TIP3   OH224492   0.222   0.498   0.129 -0.2347 -0.0218  0.1397
 1026TIP3    H124493   0.135   0.469   0.157 -0.2786  0.1170  0.1460
 1026TIP3    H224494   0.278   0.484   0.205 -0.9957  3.5186  1.5589
 1027TIP3   OH224495   3.453   0.744   4.437 -0.6346 -0.1207  0.8906
 1027TIP3    H124496   3.398   0.666   4.442 -1.3165 -0.0284 -2.6890
 1027TIP3    H224497   3.523   0.721   4.376  1.1118  1.0690  2.3039
 1028TIP3   OH224498   4.043   2.648   2.153  0.0495  0.3498  0.0894
 1028TIP3    H124499   3.966   2.631   2.099 -1.3810  0.7550  1.8989
 1028TIP3    H224500   4.062   2.741   2.140 -0.1133  0.3794  0.0663
 1029TIP3   OH224501   6.121   2.397   1.433 -0.2002 -0.7785  0.2772
 1029TIP3    H124502   6.149   2.453   1.361 -0.7958 -1.5143 -0.5444
 1029TIP3    H224503   6.196   2.397   1.494  0.2743 -0.0842 -0.2855
 1030TIP3   OH224504   0.641   1.521   2.025 -0.2747 -0.1188  0.1164
 1030TIP3    H124505   0.558   1.564   2.042 -0.0055  0.9098 -1.0171
 1030TIP3    H224506   0.633   1.435   2.066 -0.1671  1.5651  4.0731
 1031TIP3   OH224507   0.377   6.344  13.488  0.2416  0.0219 -0.2865
 1031TIP3    H124508   0.393   6.401  13.563  0.5499 -0.9938  0.4482
 1031TIP3    H224509   0.290   6.308  13.504  1.0689 -1.7363  0.6882
 1032TIP3   OH224510   3.247   4.509   3.750  0.3698  0.1000  0.1851
 1032TIP3    H124511   3.153   4.516   3.769 -0.2453 -1.1785 -2.0342
 1032TIP3    H224512   3.262   4.415   3.739  1.4633  0.4268 -1.4896
 1033TIP3   OH224513   5.502   2.817   4.059 -0.5196  0.2213 -0.4026
 1033TIP3    H124514   5.523   2.731   4.022 -0.3079 -0.2029  0.6471
 1033TIP3    H224515   5.585   2.848   4.095 -0.9473  0.0621  0.7794
 1034TIP3   OH224516   2.468   2.380  11.066  0.0573 -0.0148  0.0540
 1034TIP3    H124517   2.418   2.353  11.142 -0.5597  0.8653 -0.0245
 1034TIP3    H224518   2.559   2.362  11.090 -0.3192 -2.7275 -0.2591
 1035TIP3   OH224519   1.681   4.032  12.457 -0.6291  0.0752  0.3198
 1035TIP3    H124520   1.589   4.032  12.429 -0.5116 -0.9282 -0.0961
 1035TIP3    H224521   1.685   3.966  12.527  0.0098 -0.7506 -0.4806
 1036TIP3   OH224522   3.834   1.047   2.480  0.5213  0.6912  0.5988
 1036TIP3    H124523   3.874   1.066   2.565  1.0040  1.6360  0.1890
 1036TIP3    H224524   3.909   1.044   2.420  0.2893 -0.9661  0.3484
 1037TIP3   OH224525   3.133   4.612  12.952 -0.5417  0.0011 -0.4305
 1037TIP3    H124526   3.083   4.572  13.022  0.7316 -0.8996  0.0194
 1037TIP3    H224527   3.194   4.671  12.996 -0.7477  0.5730 -0.9007
 1038TIP3   OH224528   3.260   5.735   6.212  0.1216  0.4175 -0.3264
 1038TIP3    H124529   3.189   5.672   6.200  1.0465 -0.7076 -0.0457
 1038TIP3    H224530   3.242   5.777   6.296  0.9208 -1.4053  0.7985
 1039TIP3   OH224531   1.845   5.921   2.812 -0.4207  0.2270 -0.0748
 1039TIP3    H124532   1.810   5.973   2.884 -0.9429 -0.6196  0.3024
 1039TIP3    H224533   1.779   5.927   2.744 -0.0221  0.8578 -0.4135
 1040TIP3   OH224534   3.478   3.212   2.051 -0.2133 -0.0353 -0.0078
 1040TIP3    H124535   3.439   3.159   1.981  1.1214 -0.3946 -0.5227
 1040TIP3    H224536   3.527   3.149   2.104  1.5007  0.6466 -0.7030
 1041TIP3   OH224537   4.638   6.620   1.057  0.1394 -0.6620  0.4801
 1041TIP3    H124538   4.638   6.530   1.023 -1.7854 -0.3648 -0.4591
 1041TIP3    H224539   4.573   6.620   1.127 -0.5890  0.1807 -0.1613
 1042TIP3   OH224540   1.264   4.703  10.938  0.7259 -0.3327  0.1936
 1042TIP3    H124541   1.311   4.785  10.955  2.7572 -0.9690 -1.8547
 1042TIP3    H224542   1.333   4.636  10.933 -0.7811 -2.0338  0.7942
 1043TIP3   OH224543   2.610   1.594  13.945 -0.2044 -0.1085  0.4268
 1043TIP3    H124544   2.515   1.610  13.948 -0.2773 -0.2033 -0.8590
 1043TIP3    H224545   2.618   1.505  13.910  0.3721  0.5430 -1.1929
 1044TIP3   OH224546   1.976   4.798   0.621  0.5948  0.1378  0.1693
 1044TIP3    H124547   2.039   4.862   0.653  1.3172 -0.9036  0.8992
 1044TIP3    H224548   2.017   4.760   0.543  0.4172  0.1573  0.0647
 1045TIP3   OH224549   3.070   5.566   3.939 -0.0748  0.0469  0.2390
 1045TIP3    H124550   3.038   5.566   3.848 -1.4134 -0.4739  0.6822
 1045TIP3    H224551   3.149   5.513   3.937 -1.0205 -1.4112 -0.3423
 1046TIP3   OH224552   2.120   5.014   1.606 -0.0993  0.7560  0.3248
 1046TIP3    H124553   2.028   5.033   1.620 -0.5654 -0.6768 -0.5182
 1046TIP3    H224554   2.123   4.970   1.521  1.0919 -0.9491  1.1864
 1047TIP3   OH224555   1.130   0.781  16.540 -0.7954  0.7591 -0.5161
 1047TIP3    H124556   1.131   0.854  16.603  1.1236  0.1212  0.2723
 1047TIP3    H224557   1.110   0.704  16.593  3.2261 -0.1940  0.0026
 1048TIP3   OH224558   6.711   5.335  13.882 -0.4960  0.1261 -0.5340
 1048TIP3    H124559   6.745   5.413  13.838 -0.1784 -0.6235 -1.6666
 1048TIP3    H224560   6.629   5.316  13.836  0.0462 -0.9085 -1.1172
 1049TIP3   OH224561   1.911   6.333  14.771 -0.2944  0.3325  0.3649
 1049TIP3    H124562   1.845   6.299  14.711 -1.4001 -1.0634  2.2883
 1049TIP3    H224563   1.969   6.385  14.715 -1.0874 -1.1209 -1.9493
 1050TIP3   OH224564   5.082   6.019   3.785  0.4238 -0.2048  0.4482
 1050TIP3    H124565   5.100   5.927   3.764  1.1466 -0.0315  0.2614
 1050TIP3    H224566   4.990   6.032   3.762  1.0762 -0.0796 -2.5056
 1051TIP3   OH224567   1.498   3.137   1.475 -0.1534  0.6018  0.7390
 1051TIP3    H124568   1.525   3.163   1.387  0.2085  2.6196  1.3793
 1051TIP3    H224569   1.549   3.059   1.494 -0.7582 -0.2825 -1.0831
 1052TIP3   OH224570   5.746   5.213   0.276 -0.0020 -0.0689  0.2569
 1052TIP3    H124571   5.671   5.159   0.301 -1.0297  1.3251  0.2811
 1052TIP3    H224572   5.734   5.295   0.324  1.9937 -0.1042  0.9007
 1053TIP3   OH224573   4.354   2.498   2.517 -1.0241 -0.1678  0.8533
 1053TIP3    H124574   4.281   2.502   2.579 -1.5286 -1.3107  0.3434
 1053TIP3    H224575   4.388   2.409   2.526 -1.9913 -0.8366 -1.4793
 1054TIP3   OH224576   6.802   5.929   1.898 -0.6322  0.1887  0.2023
 1054TIP3    H124577   6.855   6.006   1.876  1.5603 -1.4083 -0.3422
 1054TIP3    H224578   6.773   5.946   1.988 -1.1187  2.1122 -0.2595
 1055TIP3   OH224579   2.791   3.342  11.798 -0.2033 -0.0002  0.3739
 1055TIP3    H124580   2.747   3.263  11.766 -1.3090 -0.0449  1.8920
 1055TIP3    H224581   2.720   3.401  11.822  0.5967  0.7805  0.8855
 1056TIP3   OH224582   0.994   3.589   5.115  0.4815 -0.1067 -0.2136
 1056TIP3    H124583   1.022   3.549   5.197  3.2747  1.5756 -0.2020
 1056TIP3    H224584   0.950   3.670   5.141 -0.6650 -0.6718 -0.3505
 1057TIP3   OH224585   3.045   4.006  11.941  0.3062 -0.2831  0.1231
 1057TIP3    H124586   3.030   3.914  11.964 -1.4977  0.1679  0.8999
 1057TIP3    H224587   3.080   4.002  11.852  2.5609 -1.8007  0.9909
 1058TIP3   OH224588   3.440   1.948  14.842  0.3055  0.3230  0.4492
 1058TIP3    H124589   3.466   1.932  14.751  0.2035  0.6528  0.3611
 1058TIP3    H224590   3.402   2.036  14.841 -1.1467 -0.2748  0.5009
 1059TIP3   OH224591   5.268   5.991  15.255 -0.8147 -0.0467 -0.0082
 1059TIP3    H124592   5.184   5.946  15.248 -0.1584 -1.1614 -1.1731
 1059TIP3    H224593   5.299   5.998  15.165 -0.2163  1.4822  0.2874
 1060TIP3   OH224594   1.633   1.726   2.724 -0.0383  0.2431 -0.0697
 1060TIP3    H124595   1.596   1.782   2.792  1.3269  1.1137  0.0128
 1060TIP3    H224596   1.573   1.652   2.717 -0.5278  0.4412  1.6528
 1061TIP3   OH224597   5.751   6.632   0.702  0.4925  0.2647  0.7366
 1061TIP3    H124598   5.780   6.701   0.642  0.5573  0.1654  0.6518
 1061TIP3    H224599   5.681   6.587   0.655  2.1470 -1.3718 -0.3280
 1062TIP3   OH224600   3.448   3.599  13.841 -0.4244  0.1712 -0.1224
 1062TIP3    H124601   3.460   3.677  13.787 -0.7698 -0.4811 -1.1786
 1062TIP3    H224602   3.357   3.605  13.871 -0.7389 -0.2700 -0.9557
 1063TIP3   OH224603   5.450   6.489  16.349 -0.1108 -0.5666  0.1714
 1063TIP3    H124604   5.461   6.565  16.407 -2.5605  2.2279 -2.6212
 1063TIP3    H224605   5.523   6.496  16.288  0.3842 -1.3045  0.6604
 1064TIP3   OH224606   1.103   4.509  15.800 -0.4084  0.2034  0.0218
 1064TIP3    H124607   1.111   4.600  15.770  2.4443  0.0097 -0.0996
 1064TIP3    H224608   1.062   4.463  15.727 -3.3909  1.5672  0.6712
 1065TIP3   OH224609   4.235   3.544   5.386 -0.4103 -0.3597  0.6296
 1065TIP3    H124610   4.140   3.556   5.382 -0.4619  0.2799  2.6102
 1065TIP3    H224611   4.270   3.607   5.323 -1.2714 -0.2050  0.2924
 1066TIP3   OH224612   5.111   4.102   2.792 -0.2843  0.5409 -0.2789
 1066TIP3    H124613   5.077   4.013   2.796 -0.0549  0.4820  0.3994
 1066TIP3    H224614   5.034   4.156   2.771 -0.3971  0.1744 -0.8254
 1067TIP3   OH224615   1.825   6.076   4.400 -0.6273 -0.3341  0.5871
 1067TIP3    H124616   1.856   6.024   4.474  0.3484  1.5297  1.5430
 1067TIP3    H224617   1.798   6.159   4.439 -1.8490  0.0281 -0.9397
 1068TIP3   OH224618   6.057   2.203   3.264  0.9019  0.1821 -0.3454
 1068TIP3    H124619   6.005   2.266   3.313 -0.0499 -1.4579  0.8865
 1068TIP3    H224620   6.148   2.234   3.273  0.4021  1.7796 -0.4926
 1069TIP3   OH224621   3.232   4.978  13.097  0.4636  0.8988  0.2229
 1069TIP3    H124622   3.281   4.896  13.095  0.8565  1.1213  0.5642
 1069TIP3    H224623   3.215   4.994  13.189  0.2531  1.1202  0.1463
 1070TIP3   OH224624   5.769   3.809   1.689 -0.0433  0.6769  0.2829
 1070TIP3    H124625   5.789   3.717   1.670 -1.0633  0.6819 -0.9400
 1070TIP3    H224626   5.834   3.834   1.755 -0.1859 -1.1059  1.1621
 1071TIP3   OH224627   5.467   4.684   6.347  0.6970  0.5468 -0.1202
 1071TIP3    H124628   5.536   4.680   6.413  1.1059  2.1958 -0.4063
 1071TIP3    H224629   5.462   4.777   6.323 -0.2120  0.1456 -1.5956
 1072TIP3   OH224630   4.449   3.488   0.669  0.2519 -0.9476  0.0551
 1072TIP3    H124631   4.474   3.417   0.728  1.6789 -0.5539 -0.0560
 1072TIP3    H224632   4.512   3.558   0.686 -1.9386  0.9092  1.1798
 1073TIP3   OH224633   5.421   2.949  12.852  0.5143 -0.0768 -0.6892
 1073TIP3    H124634   5.338   2.920  12.814  0.3138  1.3073 -1.4031
 1073TIP3    H224635   5.478   2.873  12.847 -0.0749 -0.4668 -2.1633
 1074TIP3   OH224636   5.566   0.996   2.415 -0.3001  0.3784  0.2331
 1074TIP3    H124637   5.526   1.056   2.351  1.3223  0.8581 -0.4045
 1074TIP3    H224638   5.605   1.054   2.480 -0.6008 -0.0670  0.8155
 1075TIP3   OH224639   6.158   2.958   0.575 -0.4018 -0.1953  0.7471
 1075TIP3    H124640   6.100   3.027   0.543  0.0019 -1.2009 -2.5377
 1075TIP3    H224641   6.243   2.979   0.536  0.5096 -0.8636  2.2831
 1076TIP3   OH224642   2.053   2.190   5.955  0.3905 -0.6880  0.5930
 1076TIP3    H124643   2.025   2.224   5.870 -1.1419 -0.4940  1.1322
 1076TIP3    H224644   2.088   2.267   6.001  0.7719 -0.6935  0.3107
 1077TIP3   OH224645   3.858   6.010  13.245 -0.2716  0.2273 -0.0062
 1077TIP3    H124646   3.893   6.098  13.231 -2.3148  0.8692 -1.4544
 1077TIP3    H224647   3.869   5.995  13.339  0.5104  1.8345  0.1983
 1078TIP3   OH224648   1.607   1.663   2.415 -0.1533  0.4394  1.1429
 1078TIP3    H124649   1.663   1.695   2.486  0.4423 -1.8887  1.8012
 1078TIP3    H224650   1.657   1.680   2.336  0.2890  0.7939  1.4914
 1079TIP3   OH224651   3.794   2.746   4.893  0.6267  0.0378  0.0938
 1079TIP3    H124652   3.803   2.842   4.897  0.3092  0.0447  0.7985
 1079TIP3    H224653   3.884   2.715   4.885  0.7331  0.3954 -0.1597
 1080TIP3   OH224654   4.297   0.031   2.848 -0.4747  0.1772 -0.3045
 1080TIP3    H124655   4.287   0.011   2.941  1.0969  0.2082 -0.0998
 1080TIP3    H224656   4.358  -0.035   2.816  1.6250  2.1070 -0.5283
 1081TIP3   OH224657   3.365   0.434  15.368  0.3487  0.3286 -0.4835
 1081TIP3    H124658   3.327   0.506  15.419 -0.1292 -0.7989  0.8100
 1081TIP3    H224659   3.300   0.415  15.301  0.0331  0.4569 -0.2168
 1082TIP3   OH224660   1.931   2.742   2.703  0.0755 -0.8531  0.0462
 1082TIP3    H124661   1.940   2.741   2.607 -0.0393  0.2033  0.0124
 1082TIP3    H224662   2.002   2.800   2.732 -0.0226 -1.0049  0.5831
 1083TIP3   OH224663   5.238   4.960  11.878  0.2563  0.0758  0.0761
 1083TIP3    H124664   5.272   4.872  11.894 -0.9110 -0.1454  1.6540
 1083TIP3    H224665   5.258   4.978  11.786 -2.8354 -3.4235 -1.5293
 1084TIP3   OH224666   1.702   5.098  13.617  0.2096  0.2225 -0.4546
 1084TIP3    H124667   1.645   5.173  13.600 -0.6160 -0.1908  0.3770
 1084TIP3    H224668   1.672   5.030  13.558  0.5693  0.3520 -0.7905
 1085TIP3   OH224669   0.487   4.089  13.891 -0.2698 -0.3758 -0.0926
 1085TIP3    H124670   0.447   4.039  13.820 -0.8674 -1.6874  1.1087
 1085TIP3    H224671   0.508   4.174  13.853 -1.8708 -0.5508 -1.4523
 1086TIP3   OH224672   6.431   5.542   4.888 -0.3773 -0.0517 -0.3738
 1086TIP3    H124673   6.421   5.635   4.909 -2.0185 -0.2234 -0.2697
 1086TIP3    H224674   6.357   5.500   4.932 -0.5185 -1.2037 -1.6443
 1087TIP3   OH224675   3.500   6.023  15.787  0.0859 -0.2305  0.8961
 1087TIP3    H124676   3.518   5.990  15.875 -0.0871 -1.0411  0.6314
 1087TIP3    H224677   3.542   5.961  15.729  0.4003  0.4290  0.4007
 1088TIP3   OH224678   4.908   5.648  11.434 -0.1097  0.4791  0.5057
 1088TIP3    H124679   4.853   5.645  11.512  0.0375 -0.2326  0.5949
 1088TIP3    H224680   4.862   5.706  11.373 -0.0951  1.2476  1.2150
 1089TIP3   OH224681   0.964   5.624   3.835  0.0659  0.1354 -0.0312
 1089TIP3    H124682   0.891   5.639   3.774 -0.0937 -2.5945 -0.6169
 1089TIP3    H224683   0.924   5.632   3.921 -0.3502  1.1423 -0.2976
 1090TIP3   OH224684   1.619   2.117  15.544  0.0571  0.5592  0.4764
 1090TIP3    H124685   1.559   2.043  15.554 -0.7807  0.8944 -1.4956
 1090TIP3    H224686   1.605   2.146  15.454  2.7318  1.0809  0.1541
 1091TIP3   OH224687   2.640   5.192   6.338 -0.0688  0.4615 -0.7142
 1091TIP3    H124688   2.711   5.130   6.356  0.8063  1.6120 -0.0253
 1091TIP3    H224689   2.595   5.156   6.262  0.6452 -0.8092 -0.5685
 1092TIP3   OH224690   3.217   3.245  12.902  0.1588  0.1862 -0.4908
 1092TIP3    H124691   3.273   3.306  12.949  2.3215 -0.8775 -1.5616
 1092TIP3    H224692   3.217   3.276  12.812 -1.3066  0.3529 -0.4708
 1093TIP3   OH224693   3.669   4.157   6.258  0.0729  0.1457  0.0698
 1093TIP3    H124694   3.622   4.133   6.338  1.0564 -1.3148  0.2406
 1093TIP3    H224695   3.633   4.243   6.234 -0.6508  0.3473  1.7423
 1094TIP3   OH224696   3.610   4.677   2.482  0.1196 -0.1541  0.4287
 1094TIP3    H124697   3.539   4.629   2.524  0.1741 -1.1648 -0.6178
 1094TIP3    H224698   3.576   4.703   2.397  0.0593  1.7901  0.9849
 1095TIP3   OH224699   0.109   4.329  14.988  0.0926  0.5504 -0.1021
 1095TIP3    H124700   0.030   4.367  15.026 -0.2666 -1.1591  0.9219
 1095TIP3    H224701   0.082   4.303  14.899 -0.4798  0.0808  0.1995
 1096TIP3   OH224702   1.668   6.679  11.595 -0.4150  0.7390  0.1266
 1096TIP3    H124703   1.760   6.691  11.616 -0.6068  0.1838  1.3629
 1096TIP3    H224704   1.630   6.638  11.673 -1.9987  2.2598  0.2187
 1097TIP3   OH224705   2.124   5.225   0.723  0.3413 -0.1197  0.4887
 1097TIP3    H124706   2.180   5.299   0.700 -1.4831  0.8627 -1.0524
 1097TIP3    H224707   2.038   5.249   0.689 -0.3094 -2.9742 -0.0770
 1098TIP3   OH224708   5.235   5.819   0.710  0.3131 -0.2945 -0.3654
 1098TIP3    H124709   5.204   5.883   0.774 -0.4164 -1.1862  0.1970
 1098TIP3    H224710   5.316   5.786   0.747  1.5463  1.4052 -1.4151
 1099TIP3   OH224711   4.816   2.226  12.801 -0.2682 -0.3659  0.2887
 1099TIP3    H124712   4.841   2.194  12.888 -0.4176 -1.3948 -0.0244
 1099TIP3    H224713   4.723   2.204  12.795 -0.8900  1.9130  0.7961
 1100TIP3   OH224714   0.530   4.909   4.099 -0.4511  0.0297 -0.0166
 1100TIP3    H124715   0.467   4.979   4.117 -0.5220 -0.5990  2.4891
 1100TIP3    H224716   0.611   4.956   4.076 -1.0025  0.8721 -0.3016
 1101TIP3   OH224717   2.815   4.053  14.638 -0.4029 -0.1936 -0.2845
 1101TIP3    H124718   2.771   4.138  14.638 -0.8505 -0.3995  0.9148
 1101TIP3    H224719   2.907   4.073  14.618 -1.0879  0.1614 -3.5604
 1102TIP3   OH224720   2.716   2.268   5.320 -0.7214  0.2280  0.0196
 1102TIP3    H124721   2.749   2.247   5.407 -1.1806 -0.9272 -0.0676
 1102TIP3    H224722   2.621   2.265   5.329 -0.7979 -1.4560 -0.8345
 1103TIP3   OH224723   4.220   6.041  16.469 -0.2711  0.1048 -0.3772
 1103TIP3    H124724   4.309   6.072  16.452  0.6848 -1.2147  1.8445
 1103TIP3    H224725   4.173   6.118  16.501 -0.3913  1.1387 -2.8218
 1104TIP3   OH224726   2.823   3.682  13.339 -0.0316 -0.3941 -0.3991
 1104TIP3    H124727   2.845   3.764  13.294 -0.6603 -0.3689 -0.6688
 1104TIP3    H224728   2.796   3.709  13.427  1.3522 -0.4563  0.0656
 1105TIP3   OH224729   1.203   4.826  11.972  0.2720 -0.6957  0.1602
 1105TIP3    H124730   1.246   4.758  12.025  0.0125 -0.8039  0.2339
 1105TIP3    H224731   1.234   4.908  12.009  2.3537 -0.7296 -1.3245
 1106TIP3   OH224732   1.689   6.178  15.251 -0.1502 -0.1372 -0.3301
 1106TIP3    H124733   1.621   6.121  15.216 -0.8281  0.7140 -0.4544
 1106TIP3    H224734   1.769   6.150  15.207 -0.3728 -1.2838 -0.0345
 1107TIP3   OH224735   1.587   0.416  15.571  0.3537 -0.4864  0.1187
 1107TIP3    H124736   1.588   0.511  15.560  1.4862 -0.6115 -1.2117
 1107TIP3    H224737   1.501   0.396  15.607  0.2382  1.0706  0.7718
 1108TIP3   OH224738   6.591   3.589  12.248 -0.1783  0.7033 -0.5949
 1108TIP3    H124739   6.577   3.520  12.184 -2.0923 -0.1035  0.5790
 1108TIP3    H224740   6.546   3.665  12.210  0.6924  0.9062 -1.2377
 1109TIP3   OH224741   4.427   1.655  14.646 -0.4194 -0.4602  0.8263
 1109TIP3    H124742   4.483   1.694  14.579 -1.1252  1.3514  1.2428
 1109TIP3    H224743   4.468   1.570  14.664  0.1485 -0.7491 -1.4108
 1110TIP3   OH224744   0.458   5.844  14.950  0.0722 -0.1648 -0.1554
 1110TIP3    H124745   0.463   5.913  14.884  0.5446  0.9130  0.9459
 1110TIP3    H224746   0.546   5.806  14.952  0.0824 -0.1407 -0.1197
 1111TIP3   OH224747   2.085   2.731   5.286 -0.0312 -0.1814 -0.1062
 1111TIP3    H124748   2.015   2.706   5.226 -2.6313  1.4738  2.0382
 1111TIP3    H224749   2.149   2.776   5.231 -1.8410  0.4529 -1.8142
 1112TIP3   OH224750   3.846   2.654   0.387 -0.2494  0.0320  0.0140
 1112TIP3    H124751   3.818   2.666   0.478  0.5170 -0.3475  0.3177
 1112TIP3    H224752   3.769   2.622   0.341 -0.8427  0.9201  0.3693
 1113TIP3   OH224753   5.998   4.366   4.686 -0.1263 -0.0130  0.7150
 1113TIP3    H124754   5.992   4.284   4.636 -0.1219  0.4484 -0.0500
 1113TIP3    H224755   6.081   4.359   4.733  1.0957  0.5705 -1.2190
 1114TIP3   OH224756   5.895   1.718  16.417 -0.2114  0.1253  0.5436
 1114TIP3    H124757   5.979   1.751  16.448 -0.5441  0.7204  0.8395
 1114TIP3    H224758   5.904   1.623  16.418 -0.0013  0.1305  1.9113
 1115TIP3   OH224759   3.484   3.254   1.394  0.7939 -0.0365 -0.0204
 1115TIP3    H124760   3.576   3.271   1.374  0.7432  1.3018  0.7285
 1115TIP3    H224761   3.484   3.169   1.438  1.4235 -0.9196 -1.6704
 1116TIP3   OH224762   0.898   4.297   3.869 -0.0428 -0.4183  0.3313
 1116TIP3    H124763   0.874   4.295   3.961 -1.3927 -0.0773 -0.0027
 1116TIP3    H224764   0.984   4.255   3.866  0.1461 -0.1803  1.7726
 1117TIP3   OH224765   5.307   6.477   0.637  0.4236  0.2515 -0.1457
 1117TIP3    H124766   5.325   6.402   0.694 -1.5472  0.2455  0.5686
 1117TIP3    H224767   5.382   6.482   0.579  1.8881 -0.5733  1.5907
 1118TIP3   OH224768   6.620   5.126   3.432  0.1601  0.3894  0.2901
 1118TIP3    H124769   6.565   5.107   3.508  0.1678  1.8194  0.6742
 1118TIP3    H224770   6.613   5.220   3.420  1.9077  0.4930 -0.1564
 1119TIP3   OH224771   2.823   4.682   1.096  0.1327 -0.1481 -0.4970
 1119TIP3    H124772   2.784   4.597   1.076  0.3256  0.2785 -2.9959
 1119TIP3    H224773   2.917   4.666   1.092  0.2195 -0.2729  1.3420
 1120TIP3   OH224774   3.333   4.671  14.197  0.0691  0.4846 -0.5876
 1120TIP3    H124775   3.317   4.717  14.279  1.9033  0.1309  0.0099
 1120TIP3    H224776   3.287   4.588  14.207  1.5355 -0.2092  0.7671
 1121TIP3   OH224777   2.175   3.145   4.624  0.7559 -0.4491  0.5492
 1121TIP3    H124778   2.125   3.225   4.606  0.1400 -0.5553  1.7347
 1121TIP3    H224779   2.183   3.103   4.538  0.2952  0.4225  0.0616
 1122TIP3   OH224780   5.972   6.319   4.870 -0.6715 -0.2046 -0.1898
 1122TIP3    H124781   5.920   6.390   4.907  0.2881  1.4179 -1.7902
 1122TIP3    H224782   6.057   6.359   4.850  0.2769 -2.0904 -0.1743
 1123TIP3   OH224783   2.238   4.226  15.040  0.0777 -0.7015 -0.6210
 1123TIP3    H124784   2.326   4.204  15.070  0.1803 -0.9923 -1.1168
 1123TIP3    H224785   2.189   4.245  15.120  0.6393 -0.3519 -0.3523
 1124TIP3   OH224786   0.166   5.321   3.971 -0.2439  0.3025  0.5383
 1124TIP3    H124787   0.142   5.382   3.901  0.3090  2.6022  2.1990
 1124TIP3    H224788   0.146   5.234   3.936 -1.2148  1.4220 -1.9300
 1125TIP3   OH224789   3.896   6.628  15.867 -0.2232 -0.3192 -0.1288
 1125TIP3    H124790   3.827   6.568  15.893  0.1184 -0.7065 -0.0977
 1125TIP3    H224791   3.974   6.598  15.915  0.2036 -0.5087 -0.9211
 1126TIP3   OH224792   4.440   0.470  14.765  0.0986 -0.2299 -0.2181
 1126TIP3    H124793   4.507   0.405  14.783  0.4550 -0.3383 -1.7577
 1126TIP3    H224794   4.377   0.461  14.837  0.0662 -2.3622 -0.4508
 1127TIP3   OH224795   2.197   4.007  16.856 -0.2771 -0.1333  0.1477
 1127TIP3    H124796   2.195   4.028  16.949 -1.2967  0.0776  0.0965
 1127TIP3    H224797   2.138   3.932  16.847 -1.2414  0.6712 -0.5023
 1128TIP3   OH224798   4.375   3.219   6.256  0.2655  0.1697  0.7322
 1128TIP3    H124799   4.385   3.162   6.333  1.1535  0.5277  0.9004
 1128TIP3    H224800   4.371   3.159   6.182  3.0837 -0.1311  0.7116
 1129TIP3   OH224801   6.214   2.301   5.344 -0.1812  0.1393 -0.9412
 1129TIP3    H124802   6.133   2.255   5.320 -0.3766  0.8365 -1.6349
 1129TIP3    H224803   6.237   2.265   5.430 -1.6754  0.5035 -0.3550
 1130TIP3   OH224804   3.924   4.595  13.239 -0.0354  0.4795  0.0732
 1130TIP3    H124805   3.912   4.670  13.298  1.7894 -0.2099  1.4206
 1130TIP3    H224806   3.875   4.524  13.281  0.6780  0.1713  0.3964
 1131TIP3   OH224807   2.276   5.032   3.427 -0.1809 -0.3007 -0.4255
 1131TIP3    H124808   2.327   5.103   3.388 -1.0465  1.4176  1.4283
 1131TIP3    H224809   2.342   4.969   3.457  0.6844  0.3905 -0.8466
 1132TIP3   OH224810   0.934   6.081  16.146 -0.2030  0.5121  0.3647
 1132TIP3    H124811   0.864   6.054  16.087  1.0535  1.2501 -1.5574
 1132TIP3    H224812   1.002   6.117  16.089  1.8841 -0.4071  2.0970
 1133TIP3   OH224813   4.526   5.330   1.678 -0.3631  0.6496  0.2838
 1133TIP3    H124814   4.561   5.251   1.639 -1.3611  0.9987 -1.4121
 1133TIP3    H224815   4.603   5.384   1.698  0.2664 -0.3969  0.7213
 1134TIP3   OH224816   0.376   6.240   5.770 -0.0135  0.9384  0.0879
 1134TIP3    H124817   0.301   6.191   5.736  0.1543  1.0485 -0.4406
 1134TIP3    H224818   0.372   6.325   5.726  1.0672  0.5426 -0.8196
 1135TIP3   OH224819   1.737   2.206   4.062 -0.0876 -0.3201 -0.0650
 1135TIP3    H124820   1.800   2.212   3.990 -0.2864  0.1342 -0.2037
 1135TIP3    H224821   1.771   2.266   4.129  1.2565 -2.2893  1.1357
 1136TIP3   OH224822   2.369   6.029   5.051  0.2792 -0.0958  0.0403
 1136TIP3    H124823   2.432   5.996   5.115 -1.0281 -0.2479  1.2755
 1136TIP3    H224824   2.411   6.109   5.017  0.8129  0.2442  1.4064
 1137TIP3   OH224825   4.263   2.826   4.766  0.1147 -0.3300 -0.0048
 1137TIP3    H124826   4.187   2.768   4.766  0.3492 -0.7161  2.0529
 1137TIP3    H224827   4.263   2.865   4.853  1.3171  0.9710 -0.5503
 1138TIP3   OH224828   2.735   1.430   3.931 -0.1876 -0.7060 -0.1020
 1138TIP3    H124829   2.760   1.347   3.972  0.7828  0.2370  1.3395
 1138TIP3    H224830   2.755   1.419   3.838  0.0087 -2.0439  0.0867
 1139TIP3   OH224831   6.348   5.850   4.672 -0.5538 -0.1982  0.6448
 1139TIP3    H124832   6.357   5.813   4.759  0.0097  0.6254  0.9491
 1139TIP3    H224833   6.299   5.931   4.685  1.3746  1.0671  0.5455
 1140TIP3   OH224834   1.836   4.174  16.478 -0.1490  0.0702  0.1731
 1140TIP3    H124835   1.830   4.222  16.560  0.7222  0.4625  0.0205
 1140TIP3    H224836   1.774   4.102  16.487 -0.2242  0.2412  1.0806
 1141TIP3   OH224837   3.470   2.945   5.829 -0.4338  0.1355  0.1192
 1141TIP3    H124838   3.547   2.990   5.794 -0.9191  0.8004 -0.1138
 1141TIP3    H224839   3.499   2.908   5.912 -0.1862  1.3858  0.6021
 1142TIP3   OH224840   2.552   4.118  16.490 -0.1296 -0.3358 -0.4664
 1142TIP3    H124841   2.484   4.132  16.556 -0.7545  0.1858 -1.2101
 1142TIP3    H224842   2.528   4.036  16.448  1.0162 -1.3939  0.8244
 1143TIP3   OH224843   3.940   3.481   2.654  0.0207  0.3910 -0.4126
 1143TIP3    H124844   3.927   3.456   2.562 -0.9401 -0.6637 -0.0204
 1143TIP3    H224845   3.885   3.559   2.665 -0.3384  0.1691 -0.5874
 1144TIP3   OH224846   3.353   2.029  11.315 -0.4753  1.0069 -0.0170
 1144TIP3    H124847   3.428   1.975  11.340  0.7058  2.7166  0.2545
 1144TIP3    H224848   3.353   2.026  11.219 -2.6947 -2.4137 -0.0810
 1145TIP3   OH224849   5.001   4.068  10.810 -0.2773  0.5641  0.2517
 1145TIP3    H124850   4.974   4.159  10.796 -0.0394  0.4994 -0.6903
 1145TIP3    H224851   5.015   4.034  10.722 -2.4750 -1.0528  0.4329
 1146TIP3   OH224852   0.592   2.705  15.919 -0.4792  0.4400  0.0054
 1146TIP3    H124853   0.625   2.750  15.997  2.3812 -0.9560 -0.2643
 1146TIP3    H224854   0.564   2.619  15.950 -0.5916  0.3552 -0.3223
 1147TIP3   OH224855   4.745   2.204  13.704 -0.1532 -0.3229 -0.6564
 1147TIP3    H124856   4.676   2.218  13.639 -1.8011 -2.0868  0.5920
 1147TIP3    H224857   4.714   2.131  13.756  1.3941  0.6249  1.7595
 1148TIP3   OH224858   3.488   2.705  12.529  0.0547  0.0116  0.3217
 1148TIP3    H124859   3.403   2.666  12.549  0.8223 -1.5986  0.6014
 1148TIP3    H224860   3.512   2.752  12.608 -0.5717  0.5060  0.2290
 1149TIP3   OH224861   0.620   0.841   6.612  0.2929 -0.2618 -0.1736
 1149TIP3    H124862   0.708   0.812   6.587 -0.6656 -2.1841 -1.6169
 1149TIP3    H224863   0.565   0.815   6.538 -1.4463  1.2658  0.5115
 1150TIP3   OH224864   5.904   3.704   4.015  0.7081 -0.0053 -0.8405
 1150TIP3    H124865   5.835   3.654   4.058  1.7944 -0.2644  0.6596
 1150TIP3    H224866   5.924   3.776   4.075  1.1424  0.6006 -1.6693
 1151TIP3   OH224867   6.469   2.701   0.556 -0.3595  0.3569 -0.1768
 1151TIP3    H124868   6.486   2.609   0.535 -1.3510  0.7365 -2.9625
 1151TIP3    H224869   6.373   2.706   0.566 -0.3773  1.1944 -0.6873
 1152TIP3   OH224870   6.679   5.079   6.130 -0.0041  0.2103 -0.0712
 1152TIP3    H124871   6.739   5.006   6.144  0.6054  0.9395  1.3482
 1152TIP3    H224872   6.730   5.157   6.151 -1.2424  0.8918  0.5430
 1153TIP3   OH224873   6.630   6.027   2.722 -0.1427  0.3368  0.2850
 1153TIP3    H124874   6.577   6.029   2.802 -0.4700 -1.7669  0.1862
 1153TIP3    H224875   6.586   6.088   2.663  0.8440  2.9376  2.0727
 1154TIP3   OH224876   3.492   1.030   4.215  0.0238  0.3730  0.1488
 1154TIP3    H124877   3.464   1.094   4.150  0.0277 -1.2157 -1.5123
 1154TIP3    H224878   3.529   1.082   4.287 -2.6310  2.3125  0.2248
 1155TIP3   OH224879   6.701   2.255  14.779  0.4263  0.2829 -0.0058
 1155TIP3    H124880   6.629   2.288  14.834 -0.0347  0.3768 -0.6570
 1155TIP3    H224881   6.780   2.281  14.826  0.0391 -0.3489  1.0317
 1156TIP3   OH224882   6.419   6.661   0.489  0.6286  0.4441 -0.0354
 1156TIP3    H124883   6.420   6.605   0.567 -1.1926  1.6757  0.9478
 1156TIP3    H224884   6.356   6.620   0.431 -0.2133  1.0662  0.4103
 1157TIP3   OH224885   3.207   6.274   5.646  0.2491  0.2384  0.1435
 1157TIP3    H124886   3.238   6.262   5.557  2.0571 -1.0449  0.8886
 1157TIP3    H224887   3.112   6.266   5.640  0.4679 -1.9733 -1.3561
 1158TIP3   OH224888   6.525   5.904  17.038  0.4670 -0.4697  0.1505
 1158TIP3    H124889   6.553   5.898  17.129  0.7825  1.6005  0.2340
 1158TIP3    H224890   6.467   5.829  17.026 -1.5039  0.5119  2.7596
 1159TIP3   OH224891   2.576   6.495  10.661 -0.3778  0.3960 -0.1989
 1159TIP3    H124892   2.481   6.489  10.654 -0.4180  0.2789  0.4162
 1159TIP3    H224893   2.604   6.407  10.689 -0.2537  0.8785  1.2787
 1160TIP3   OH224894   1.936   0.883   0.589  0.3845  0.0597  0.8169
 1160TIP3    H124895   1.843   0.890   0.569  0.3828 -0.1380  0.7514
 1160TIP3    H224896   1.950   0.790   0.607  0.9669 -0.2994 -1.1711
 1161TIP3   OH224897   1.852   6.085  15.072 -0.5159 -0.2367  0.0341
 1161TIP3    H124898   1.808   6.082  14.987 -1.1523 -2.5769  0.3541
 1161TIP3    H224899   1.925   6.023  15.063 -1.2294 -1.3304  1.4830
 1162TIP3   OH224900   5.812   5.116  14.719 -0.1058  0.1591  0.0798
 1162TIP3    H124901   5.850   5.060  14.787 -0.5794 -0.2013  0.0532
 1162TIP3    H224902   5.858   5.199  14.728  0.7064 -0.2679  0.0409
 1163TIP3   OH224903   5.842   1.155  15.819  0.4773  0.2074 -0.3129
 1163TIP3    H124904   5.815   1.088  15.882 -0.1090  3.3597  3.1417
 1163TIP3    H224905   5.761   1.178  15.773  0.5731 -0.9747 -1.1141
 1164TIP3   OH224906   4.582   2.296  10.318  0.3187  0.4746  0.4119
 1164TIP3    H124907   4.548   2.366  10.375 -0.3371  0.7016 -0.2354
 1164TIP3    H224908   4.533   2.218  10.345  2.8769 -0.4098  2.9356
 1165TIP3   OH224909   6.485   4.082  14.702 -0.5177  0.1884 -0.1414
 1165TIP3    H124910   6.512   4.148  14.639  2.4369  0.1566  0.9357
 1165TIP3    H224911   6.562   4.026  14.712 -1.5299 -0.9196  2.0724
 1166TIP3   OH224912   2.929   1.756  17.081 -0.5791 -0.1089 -0.1462
 1166TIP3    H124913   2.961   1.774  17.169  0.2027 -0.2529 -0.3905
 1166TIP3    H224914   2.968   1.671  17.059 -0.1266  0.2926 -0.9251
 1167TIP3   OH224915   2.000   3.051  13.825  0.0294  0.5562 -0.6357
 1167TIP3    H124916   2.030   3.102  13.751  0.6440 -0.1623 -0.8975
 1167TIP3    H224917   1.914   3.088  13.847  0.1135  1.1669 -1.3103
 1168TIP3   OH224918   3.121   5.789   4.565 -0.6051  0.8151  0.1469
 1168TIP3    H124919   3.093   5.745   4.485  1.7265 -0.5208 -0.0456
 1168TIP3    H224920   3.084   5.736   4.636 -0.3555  0.3449 -0.0731
 1169TIP3   OH224921   4.281   6.459  12.245 -0.0465 -0.2000  0.0150
 1169TIP3    H124922   4.234   6.538  12.273 -0.4742 -0.5492  0.2982
 1169TIP3    H224923   4.212   6.395  12.228  0.3440 -1.0457  1.4224
 1170TIP3   OH224924   6.063   6.641   6.304 -0.1639  0.5088 -0.5005
 1170TIP3    H124925   6.034   6.692   6.229  0.2362  0.4245 -0.7168
 1170TIP3    H224926   6.154   6.619   6.284 -0.9542 -2.2865 -1.5309
 1171TIP3   OH224927   5.365   6.191  17.069 -0.0577 -0.1837 -0.2643
 1171TIP3    H124928   5.369   6.218  17.161 -2.3859 -1.0832  0.1657
 1171TIP3    H224929   5.450   6.150  17.052  0.2082 -0.5056  1.6652
 1172TIP3   OH224930   2.261   5.132   5.583 -0.0088  0.4813 -0.6097
 1172TIP3    H124931   2.214   5.056   5.616  0.6192 -0.2859 -1.4339
 1172TIP3    H224932   2.297   5.104   5.499  1.8098  1.0732 -0.0774
 1173TIP3   OH224933   1.024   5.920  15.040 -0.2901 -0.0050 -0.2092
 1173TIP3    H124934   1.007   5.991  15.103  0.3025  1.6299 -1.7979
 1173TIP3    H224935   1.085   5.958  14.977  1.0843 -2.3836 -0.4232
 1174TIP3   OH224936   1.109   0.609  15.010 -0.3232 -0.1995 -0.5500
 1174TIP3    H124937   1.121   0.565  14.926  0.6126 -0.2258 -0.4178
 1174TIP3    H224938   1.163   0.558  15.071 -0.5496  0.1515 -0.0519
 1175TIP3   OH224939   3.702   0.344   5.834 -0.3639 -0.0227  0.0813
 1175TIP3    H124940   3.748   0.311   5.911  1.0410  4.8617  1.6732
 1175TIP3    H224941   3.615   0.366   5.865 -0.7836 -0.7411 -0.5545
 1176TIP3   OH224942   3.857   4.320   3.884  0.3658  0.5352 -0.1630
 1176TIP3    H124943   3.831   4.310   3.792 -2.2396 -2.4493  0.7029
 1176TIP3    H224944   3.780   4.360   3.925  0.5544 -0.3134  1.0641
 1177TIP3   OH224945   4.138   3.728   0.033  0.2263 -0.8298  0.4758
 1177TIP3    H124946   4.099   3.656   0.083 -0.0111 -0.6400  0.5659
 1177TIP3    H224947   4.135   3.802   0.093  1.2986 -0.9610  0.7174
 1178TIP3   OH224948   2.595   5.855  12.329 -0.1156 -0.2080 -0.3173
 1178TIP3    H124949   2.683   5.888  12.316  0.6288 -1.3033  1.4904
 1178TIP3    H224950   2.581   5.793  12.258 -0.1861  1.3210 -1.6895
 1179TIP3   OH224951   4.403   3.111   6.608  0.0023 -0.0176  0.0821
 1179TIP3    H124952   4.367   3.037   6.656 -0.6367 -0.1019 -0.5162
 1179TIP3    H224953   4.337   3.132   6.542  0.4425  0.7024 -0.1419
 1180TIP3   OH224954   2.083   3.702   2.385  0.0627  0.8136 -0.1326
 1180TIP3    H124955   2.060   3.762   2.455  0.0982  2.4842 -1.4876
 1180TIP3    H224956   2.146   3.750   2.332 -0.2699 -0.2362 -1.5406
 1181TIP3   OH224957   1.351   2.513  16.814 -0.3635  0.1793 -0.4302
 1181TIP3    H124958   1.351   2.418  16.827 -1.5920  0.1427 -0.6365
 1181TIP3    H224959   1.340   2.549  16.903 -1.6760  0.0782 -0.5368
 1182TIP3   OH224960   2.118   5.898   5.159 -0.6089  0.6627 -0.3702
 1182TIP3    H124961   2.191   5.939   5.112 -0.5540 -0.8371 -1.6608
 1182TIP3    H224962   2.040   5.940   5.123 -0.4511  1.7385  0.4832
 1183TIP3   OH224963   4.920   3.587  11.916 -0.2220 -0.5794  0.7153
 1183TIP3    H124964   4.987   3.518  11.920  2.9604  2.0491 -1.6054
 1183TIP3    H224965   4.942   3.646  11.989 -0.3424  0.0280  0.2697
 1184TIP3   OH224966   1.842   5.095   5.996  0.1829 -0.4926 -0.1387
 1184TIP3    H124967   1.824   5.189   5.997  4.1110  0.4094  0.4448
 1184TIP3    H224968   1.821   5.065   6.085  1.9063  0.5798  0.6683
 1185TIP3   OH224969   4.984   4.479  12.148 -0.6161  0.6310 -0.0669
 1185TIP3    H124970   5.068   4.440  12.122 -0.8393 -0.1816  0.3788
 1185TIP3    H224971   4.921   4.407  12.141 -1.2725  1.2272 -0.3609
 1186TIP3   OH224972   0.181   5.882  15.930 -0.6026 -0.1970  0.2552
 1186TIP3    H124973   0.123   5.873  16.006  0.0262  0.4633  0.8208
 1186TIP3    H224974   0.269   5.886  15.967 -0.2836  0.0684 -0.5171
 1187TIP3   OH224975   6.813   5.666  17.105  0.4202 -0.1858 -0.2012
 1187TIP3    H124976   6.746   5.657  17.172  1.4736 -3.6275  0.5566
 1187TIP3    H224977   6.768   5.647  17.023  0.1083 -0.6693  0.0806
 1188TIP3   OH224978   4.093   2.746  15.894  0.5331  0.0569 -0.5972
 1188TIP3    H124979   4.123   2.677  15.954  0.6446 -0.0474 -0.7712
 1188TIP3    H224980   4.004   2.720  15.871  0.9502 -0.6349 -1.5298
 1189TIP3   OH224981   0.909   1.519   5.407  0.0334  0.7367  0.2985
 1189TIP3    H124982   0.843   1.510   5.338  0.1924 -0.5297  0.2930
 1189TIP3    H224983   0.867   1.575   5.472 -0.8112  0.4737  0.0035
 1190TIP3   OH224984   1.400   3.568   3.332 -0.0267 -0.2883 -0.2776
 1190TIP3    H124985   1.324   3.625   3.349  1.1172  1.8821 -1.8476
 1190TIP3    H224986   1.372   3.514   3.258 -0.5645 -0.6374  0.1686
 1191TIP3   OH224987   3.928   6.347   0.912  0.3652  0.2088 -0.2675
 1191TIP3    H124988   3.864   6.278   0.929  0.9744 -1.0100 -2.4763
 1191TIP3    H224989   3.998   6.331   0.975 -0.1757 -0.2504  0.2301
 1192TIP3   OH224990   5.238   4.778  13.382 -0.4767  0.0245  0.0835
 1192TIP3    H124991   5.196   4.841  13.441  3.0111  1.5459  1.2587
 1192TIP3    H224992   5.214   4.808  13.294 -2.6697  0.0753  0.6491
 1193TIP3   OH224993   1.412   3.562   5.136 -0.0418 -0.5153 -0.1191
 1193TIP3    H124994   1.465   3.497   5.182 -0.0706 -0.7759 -0.4498
 1193TIP3    H224995   1.386   3.625   5.204 -0.8248 -1.3693  0.4045
 1194TIP3   OH224996   3.386   2.334   0.120 -0.1076  0.7208  0.1439
 1194TIP3    H124997   3.323   2.400   0.149 -0.8413 -0.1866  0.6613
 1194TIP3    H224998   3.333   2.265   0.080  0.4936 -0.2873  1.0155
 1195TIP3   OH224999   3.966   1.780   6.163  0.0584  0.0476 -0.4325
 1195TIP3    H125000   4.061   1.774   6.150  0.6586  1.8454  2.2585
 1195TIP3    H225001   3.934   1.692   6.148  2.8017 -1.6405  2.3873
 1196TIP3   OH225002   5.938   1.392   1.016 -0.4096  0.2556  0.1970
 1196TIP3    H125003   5.963   1.337   1.091 -0.2224 -1.9837 -1.4197
 1196TIP3    H225004   6.021   1.424   0.982 -0.3959  0.1803  0.1596
 1197TIP3   OH225005   5.787   2.790  12.639 -0.2924  0.5797  0.4816
 1197TIP3    H125006   5.821   2.706  12.670 -2.5744 -0.5286  0.1851
 1197TIP3    H225007   5.844   2.855  12.679  0.7721 -1.0495  1.7545
 1198TIP3   OH225008   3.593   1.326  16.573 -0.2577 -0.1969  1.3425
 1198TIP3    H125009   3.630   1.397  16.626  1.0217  0.2775 -0.1318
 1198TIP3    H225010   3.524   1.368  16.522  1.2019  0.2900 -0.3203
 1199TIP3   OH225011   6.023   5.899  15.406  0.1702  0.2613  0.0334
 1199TIP3    H125012   6.057   5.981  15.370 -1.6011  0.3861 -1.5528
 1199TIP3    H225013   5.958   5.927  15.471  0.2293  0.1008  0.1616
 1200TIP3   OH225014   2.105   5.945  10.635  0.2077  0.8601  0.4600
 1200TIP3    H125015   2.138   6.018  10.687 -1.3939  1.2385  1.0186
 1200TIP3    H225016   2.018   5.973  10.607  0.3737 -0.0208 -1.0466
 1201TIP3   OH225017   0.776   3.975  11.789 -0.2866 -0.0460 -0.3572
 1201TIP3    H125018   0.681   3.971  11.785 -0.4084  0.3272  1.4684
 1201TIP3    H225019   0.800   3.921  11.864  0.8086  1.1733  0.2167
 1202TIP3   OH225020   1.119   6.420   2.355 -0.5230 -0.4076 -0.9235
 1202TIP3    H125021   1.155   6.343   2.398  1.7828  0.4592 -1.1531
 1202TIP3    H225022   1.070   6.466   2.423  1.4713 -0.0421  0.3177
 1203TIP3   OH225023   4.872   3.412   0.306 -0.1487  0.1881 -0.0571
 1203TIP3    H125024   4.912   3.499   0.320  1.0952 -0.0655 -1.6778
 1203TIP3    H225025   4.907   3.384   0.222  1.0359 -2.7294  1.2711
 1204TIP3   OH225026   0.560   4.071  14.279 -0.4739  0.2694  0.1498
 1204TIP3    H125027   0.576   4.148  14.224  0.9355 -0.3379 -0.3181
 1204TIP3    H225028   0.625   4.077  14.348 -1.1160  0.0986  0.7833
 1205TIP3   OH225029   5.231   3.705   2.434  0.0727  0.0364  0.8042
 1205TIP3    H125030   5.175   3.745   2.367 -0.2085 -0.2722  0.8593
 1205TIP3    H225031   5.242   3.774   2.500 -1.5265 -0.4080  1.5813
 1206TIP3   OH225032   4.136   2.749   0.441  0.3770  0.0768  0.0353
 1206TIP3    H125033   4.062   2.810   0.446 -0.0555 -0.5063  1.2385
 1206TIP3    H225034   4.197   2.791   0.381 -0.1398  1.4560  0.4232
 1207TIP3   OH225035   4.690   6.533  14.281 -0.4176 -0.0752 -0.3547
 1207TIP3    H125036   4.738   6.544  14.199  1.3955 -1.2165  0.4873
 1207TIP3    H225037   4.732   6.459  14.324 -1.7835  0.0429  1.3054
 1208TIP3   OH225038   6.462   3.940   1.211  0.0683  0.0070 -0.1091
 1208TIP3    H125039   6.427   3.937   1.122 -1.5453 -2.5684  0.4699
 1208TIP3    H225040   6.423   4.019   1.249  0.7180  1.1012 -1.6236
 1209TIP3   OH225041   1.112   1.915   3.513 -0.3083  0.2258  0.6535
 1209TIP3    H125042   1.088   1.842   3.456  0.0392  2.3649 -2.4816
 1209TIP3    H225043   1.034   1.969   3.517 -0.4232 -0.0273  2.5719
 1210TIP3   OH225044   0.698   2.825  14.653 -0.6264  0.4241  0.1286
 1210TIP3    H125045   0.756   2.844  14.579 -1.0048 -0.8536 -0.5286
 1210TIP3    H225046   0.612   2.856  14.624 -0.7576  0.0033  0.0688
 1211TIP3   OH225047   4.208   5.917  12.236 -0.4168 -0.4813  0.2402
 1211TIP3    H125048   4.258   5.998  12.231 -0.2095 -0.5677  0.8173
 1211TIP3    H225049   4.265   5.857  12.285  1.6827 -2.6335 -4.2158
 1212TIP3   OH225050   2.697   6.007   3.675 -0.4058 -0.3022 -0.2384
 1212TIP3    H125051   2.621   5.961   3.639 -0.4387 -0.3205 -0.1468
 1212TIP3    H225052   2.696   5.986   3.768  0.0343 -0.7532 -0.3338
 1213TIP3   OH225053   3.101   0.639   0.565 -0.8128  0.4470  0.6565
 1213TIP3    H125054   3.093   0.602   0.652  2.9495 -1.7362  0.3104
 1213TIP3    H225055   3.084   0.565   0.506 -1.8680  1.5296 -0.4476
 1214TIP3   OH225056   3.951   4.363  16.401 -0.2783  0.2027  0.4589
 1214TIP3    H125057   3.941   4.365  16.305 -1.5804  0.5814  0.5813
 1214TIP3    H225058   3.960   4.270  16.421  1.3037  0.1990 -0.1261
 1215TIP3   OH225059   1.910   4.488  14.737 -0.0188  0.0591 -0.4867
 1215TIP3    H125060   1.952   4.457  14.657  0.3424 -0.3765 -0.1399
 1215TIP3    H225061   1.890   4.580  14.720  1.7096  0.4790 -0.4344
 1216TIP3   OH225062   3.182   5.583  15.503  0.4257  0.5245 -0.2256
 1216TIP3    H125063   3.197   5.613  15.414 -0.3864  1.3697 -0.0998
 1216TIP3    H225064   3.144   5.659  15.548 -0.0021 -0.1518  0.6031
 1217TIP3   OH225065   2.771   3.828   5.616  0.2389 -0.0974 -0.2208
 1217TIP3    H125066   2.690   3.843   5.665  0.6712  2.3632 -0.1268
 1217TIP3    H225067   2.834   3.802   5.683 -0.3088 -1.4353 -0.2057
 1218TIP3   OH225068   4.772   0.923   4.783 -0.6895  0.0033 -0.1551
 1218TIP3    H125069   4.866   0.933   4.769 -0.2725 -1.9057  0.8269
 1218TIP3    H225070   4.753   0.834   4.752 -2.5757  0.9957 -2.0703
 1219TIP3   OH225071   3.448   2.834  16.930 -0.8004  0.0981  0.4662
 1219TIP3    H125072   3.421   2.907  16.985 -0.0573  0.8126 -0.0945
 1219TIP3    H225073   3.445   2.758  16.988 -0.7017  0.7162  1.3033
 1220TIP3   OH225074   3.373   3.066  15.799 -0.0610 -0.1135 -0.8443
 1220TIP3    H125075   3.312   3.088  15.869 -0.2147 -0.7768 -0.7658
 1220TIP3    H225076   3.387   3.149  15.752  2.6274  1.2215  1.9308
 1221TIP3   OH225077   5.564   2.898  15.541  0.4384 -0.5709 -0.6139
 1221TIP3    H125078   5.595   2.985  15.515  0.1797 -0.0146  0.8476
 1221TIP3    H225079   5.533   2.909  15.631  0.4510 -2.1941 -0.3754
 1222TIP3   OH225080   6.558   4.594   3.585  0.0901  0.0152  0.3237
 1222TIP3    H125081   6.544   4.649   3.507 -3.2315  0.6645  1.1862
 1222TIP3    H225082   6.540   4.505   3.554  0.4155  0.0581  0.0022
 1223TIP3   OH225083   6.605   3.470  13.469 -0.0557 -0.2303  0.3354
 1223TIP3    H125084   6.671   3.530  13.435 -1.6452  0.1226 -2.3614
 1223TIP3    H225085   6.527   3.523  13.480 -0.5613 -1.1221  1.2058
 1224TIP3   OH225086   0.743   1.435   1.358 -0.2274 -0.0446  0.0623
 1224TIP3    H125087   0.735   1.429   1.453  0.8388  1.7726  0.2960
 1224TIP3    H225088   0.660   1.398   1.326 -0.4005 -1.1668  1.6386
 1225TIP3   OH225089   0.573   3.885   5.138 -0.0916  0.1739 -0.5588
 1225TIP3    H125090   0.579   3.920   5.227 -0.5596 -1.2028  0.0500
 1225TIP3    H225091   0.644   3.928   5.090 -0.1155  1.2801  0.3473
 1226TIP3   OH225092   4.858   6.115   1.868 -0.9105  0.4472  0.1217
 1226TIP3    H125093   4.926   6.141   1.930  1.1798 -1.4052 -1.2346
 1226TIP3    H225094   4.889   6.147   1.783 -1.9751 -0.0120 -0.4609
 1227TIP3   OH225095   4.343   5.757   3.541 -0.3247  0.4061  0.1300
 1227TIP3    H125096   4.378   5.788   3.624  1.0546 -0.5164 -0.0718
 1227TIP3    H225097   4.399   5.799   3.475 -1.2671  0.9596 -0.3330
 1228TIP3   OH225098   6.425   1.999  10.546 -0.8693 -0.3207 -0.1923
 1228TIP3    H125099   6.370   1.938  10.596 -0.2963 -0.1381  0.6811
 1228TIP3    H225100   6.391   1.995  10.456 -2.3362 -0.1897  0.3319
 1229TIP3   OH225101   4.560   1.323  13.515 -0.5716 -0.4711  0.6756
 1229TIP3    H125102   4.563   1.418  13.526 -3.3890 -0.3446  0.9287
 1229TIP3    H225103   4.562   1.310  13.420  0.7066 -0.2495  0.6561
 1230TIP3   OH225104   6.287   1.821  10.746 -0.7171 -0.1360 -0.5505
 1230TIP3    H125105   6.221   1.811  10.677  0.5485 -0.5228 -1.7398
 1230TIP3    H225106   6.336   1.739  10.745 -1.4791 -0.6868  1.7234
 1231TIP3   OH225107   4.326   2.041   3.672  0.2598  0.0700  0.0190
 1231TIP3    H125108   4.297   2.037   3.763 -0.0050  1.2762  0.0047
 1231TIP3    H225109   4.245   2.048   3.621  0.4475  1.0494 -0.1776
 1232TIP3   OH225110   4.049   6.080  16.832 -0.2199  0.3967  0.6327
 1232TIP3    H125111   4.106   6.146  16.793 -0.1272  0.0995  0.2697
 1232TIP3    H225112   3.965   6.091  16.787  0.5007 -1.4483 -1.3065
 1233TIP3   OH225113   0.436   2.058  14.484  0.1752  0.2268  0.1050
 1233TIP3    H125114   0.488   2.096  14.555  1.0811  0.0427 -0.4453
 1233TIP3    H225115   0.446   1.963  14.495  1.4063  0.1936 -1.0164
 1234TIP3   OH225116   3.830   2.084  12.735  0.0044 -0.8096  0.2799
 1234TIP3    H125117   3.739   2.056  12.739 -0.0199 -0.7770  0.0082
 1234TIP3    H225118   3.829   2.174  12.766  0.0922 -1.1195  1.2227
 1235TIP3   OH225119   6.273   1.975   0.978  0.1893  0.4251 -0.3538
 1235TIP3    H125120   6.190   2.022   0.972  0.0428  0.4453  1.3444
 1235TIP3    H225121   6.330   2.032   1.029  0.8709 -0.0812 -0.5339
 1236TIP3   OH225122   2.984   4.166   0.246  0.1199  0.1390 -0.1717
 1236TIP3    H125123   2.929   4.173   0.167 -0.2398 -0.4899  0.0148
 1236TIP3    H225124   3.066   4.128   0.215 -0.3957 -1.0952 -0.0975
 1237TIP3   OH225125   6.338   5.866   1.777  0.7704  0.1484 -0.1725
 1237TIP3    H125126   6.399   5.939   1.791  0.4065  0.7331 -1.5118
 1237TIP3    H225127   6.296   5.885   1.693 -0.8998 -0.4999  0.4684
 1238TIP3   OH225128   2.384   1.759   6.595  0.0471 -0.8332  0.7766
 1238TIP3    H125129   2.344   1.687   6.644  0.5625 -0.7010  1.4255
 1238TIP3    H225130   2.311   1.810   6.561 -0.3241 -1.6886  0.2640
 1239TIP3   OH225131   2.412   0.542   1.284  0.6415 -0.2086 -0.0388
 1239TIP3    H125132   2.414   0.488   1.204  0.4056 -0.4398  0.1108
 1239TIP3    H225133   2.356   0.493   1.344 -0.9170  0.9821 -0.4523
 1240TIP3   OH225134   2.395   3.418  16.310  0.3492  0.1971  0.4532
 1240TIP3    H125135   2.445   3.384  16.384  1.6628  2.1943  0.5494
 1240TIP3    H225136   2.375   3.509  16.334 -2.9875 -0.3528  0.1971
 1241TIP3   OH225137   0.997   2.888   1.739 -0.0106  0.2591  0.2338
 1241TIP3    H125138   0.943   2.930   1.806 -0.2896 -1.2634  0.9998
 1241TIP3    H225139   1.003   2.954   1.669  1.3407  2.3854  2.2267
 1242TIP3   OH225140   1.587   6.350  12.739 -0.5529  0.3219  0.4363
 1242TIP3    H125141   1.652   6.355  12.808  0.1733  1.0126 -0.2725
 1242TIP3    H225142   1.551   6.261  12.745  0.4318 -0.0550  0.8571
 1243TIP3   OH225143   4.003   0.008  11.531  0.1561 -0.0305  0.1091
 1243TIP3    H125144   4.075   0.056  11.574  1.3852  0.3912 -2.2821
 1243TIP3    H225145   4.035  -0.082  11.525 -0.9455 -0.6062  1.9558
 1244TIP3   OH225146   3.789   6.499   1.229  0.1374 -0.2484  0.2708
 1244TIP3    H125147   3.841   6.420   1.213 -0.2797 -0.8500  1.7512
 1244TIP3    H225148   3.813   6.558   1.157  1.6671 -1.1030  0.0336
 1245TIP3   OH225149   1.093   2.075  12.464  0.0052 -0.3940 -0.3643
 1245TIP3    H125150   1.080   2.039  12.551  1.0747 -1.6084 -0.6742
 1245TIP3    H225151   1.026   2.034  12.410  0.2428 -0.7482 -0.3956
 1246TIP3   OH225152   4.815   4.583  12.482 -0.7829  0.3252  0.1397
 1246TIP3    H125153   4.836   4.636  12.560 -2.0847 -1.5288  1.8431
 1246TIP3    H225154   4.723   4.603  12.464 -0.8654 -0.2701 -0.1048
 1247TIP3   OH225155   0.360   6.226   5.079 -0.0180  0.0012 -0.4276
 1247TIP3    H125156   0.430   6.214   5.015 -0.4062  1.3702 -1.1523
 1247TIP3    H225157   0.366   6.318   5.104 -1.6566  0.2068 -0.6458
 1248TIP3   OH225158   6.403   6.548  12.079  0.1458 -0.1819  0.3984
 1248TIP3    H125159   6.470   6.480  12.075  1.2482  0.8947 -0.1664
 1248TIP3    H225160   6.436   6.617  12.021 -2.0477 -0.1414 -0.9228
 1249TIP3   OH225161   1.297   2.398   1.671 -0.7252  0.3296 -0.4075
 1249TIP3    H125162   1.215   2.447   1.668  0.4872  2.4834 -1.1689
 1249TIP3    H225163   1.349   2.442   1.739 -0.0693 -0.7920 -0.1478
 1250TIP3   OH225164   3.504   3.115   3.670  0.0218 -0.0300 -0.1195
 1250TIP3    H125165   3.592   3.086   3.648  0.5720  0.4888  1.3533
 1250TIP3    H225166   3.499   3.205   3.638 -0.0816 -0.1372 -0.4201
 1251TIP3   OH225167   6.429   3.606  15.167 -0.1638  0.0761  0.0068
 1251TIP3    H125168   6.492   3.596  15.096  0.3936  0.4280  0.4435
 1251TIP3    H225169   6.344   3.595  15.125  0.1501  0.4275 -0.7421
 1252TIP3   OH225170   4.352   3.713  15.357  0.0933 -0.2623  0.0787
 1252TIP3    H125171   4.442   3.710  15.324  0.5761 -0.7347  1.3785
 1252TIP3    H225172   4.354   3.778  15.426 -0.6087 -0.1701  0.0199
 1253TIP3   OH225173   5.459   6.454   1.931 -0.4346  0.5074  0.6384
 1253TIP3    H125174   5.458   6.416   1.843  0.3133 -0.6343  1.1016
 1253TIP3    H225175   5.495   6.542   1.918  0.3272  0.1057 -0.1285
 1254TIP3   OH225176   0.877   5.598   4.101 -0.3668  0.3357  1.0213
 1254TIP3    H125177   0.943   5.578   4.167  0.5870  0.8766  0.2482
 1254TIP3    H225178   0.819   5.661   4.144 -0.3842 -0.1275  1.6979
 1255TIP3   OH225179   5.187   2.019   2.841 -0.2008 -0.2648 -0.3708
 1255TIP3    H125180   5.214   1.999   2.752 -1.6102  2.4540 -1.5179
 1255TIP3    H225181   5.255   1.980   2.896  1.2802 -1.1014 -2.6498
 1256TIP3   OH225182   1.932   3.759  10.799  0.0839  0.3605  0.1277
 1256TIP3    H125183   1.890   3.839  10.831  0.8348  0.3404  1.2246
 1256TIP3    H225184   1.933   3.768  10.704  2.3311  2.8255  0.2634
 1257TIP3   OH225185   0.437   1.946   5.427  1.0418  0.4166 -0.2230
 1257TIP3    H125186   0.456   1.975   5.337  2.8296 -1.3122 -0.4672
 1257TIP3    H225187   0.360   1.996   5.452  0.8981  1.4574 -2.4785
 1258TIP3   OH225188   6.644   1.760  14.664 -0.4240  0.0775 -0.0193
 1258TIP3    H125189   6.715   1.824  14.670 -0.9583  0.7832 -0.8511
 1258TIP3    H225190   6.689   1.676  14.658  0.3522  0.4976 -0.3892
 1259TIP3   OH225191   4.864   4.165  14.783  0.2692 -0.3029  0.4896
 1259TIP3    H125192   4.802   4.224  14.825 -1.9494 -2.0113 -0.2055
 1259TIP3    H225193   4.902   4.114  14.855 -1.2806 -1.1606  0.7437
 1260TIP3   OH225194   6.448   1.236   3.688 -0.2123 -0.5085  0.0712
 1260TIP3    H125195   6.453   1.286   3.607  0.5729  0.5563  0.7464
 1260TIP3    H225196   6.363   1.194   3.685 -0.8044  0.6903 -0.6355
 1261TIP3   OH225197   5.356   5.323  11.088 -0.0758  0.3248 -0.4446
 1261TIP3    H125198   5.418   5.281  11.029 -0.1957  1.4067 -1.3742
 1261TIP3    H225199   5.299   5.375  11.031 -2.1362 -0.9513  0.3130
 1262TIP3   OH225200   4.869   5.389  14.118 -0.5036  0.0362 -0.3323
 1262TIP3    H125201   4.918   5.360  14.040  0.3740  0.4950  0.0311
 1262TIP3    H225202   4.788   5.426  14.083 -0.3467 -0.2246 -0.9947
 1263TIP3   OH225203   3.017   1.315   5.234 -0.2601 -0.3587 -0.4645
 1263TIP3    H125204   3.018   1.410   5.229 -0.5697 -0.2772  0.6341
 1263TIP3    H225205   3.031   1.285   5.144 -0.5038  0.7201 -0.8713
 1264TIP3   OH225206   5.876   3.604   1.903  0.4262  0.4977  0.4278
 1264TIP3    H125207   5.843   3.607   1.813  0.2784 -0.1426  0.4549
 1264TIP3    H225208   5.892   3.511   1.919  0.5283  0.6186  1.0391
 1265TIP3   OH225209   0.669   4.733   2.617  0.4420 -0.2676 -0.1154
 1265TIP3    H125210   0.683   4.810   2.671 -0.4006  0.4171 -0.8512
 1265TIP3    H225211   0.688   4.761   2.528 -1.4538 -0.4204 -0.6129
 1266TIP3   OH225212   0.734   3.496  11.391 -0.4291  0.0503 -0.2404
 1266TIP3    H125213   0.673   3.556  11.434 -0.4201 -0.9108  1.1948
 1266TIP3    H225214   0.819   3.541  11.397 -0.4122 -0.0976  0.8649
 1267TIP3   OH225215   3.963   2.739   6.025 -0.5325 -0.2029 -0.4822
 1267TIP3    H125216   3.940   2.832   6.019  0.9196  0.2712  0.5964
 1267TIP3    H225217   4.025   2.735   6.098 -0.0264 -1.9159 -0.9713
 1268TIP3   OH225218   2.325   1.297   2.887  0.4103 -0.0865  0.0617
 1268TIP3    H125219   2.277   1.215   2.872  2.0389 -1.2228  0.7235
 1268TIP3    H225220   2.259   1.358   2.918 -0.5799 -1.6795  1.2727
 1269TIP3   OH225221   3.435   1.199   3.411  0.1157 -0.2355 -0.0965
 1269TIP3    H125222   3.417   1.240   3.496  2.2899  3.1972 -1.0971
 1269TIP3    H225223   3.524   1.166   3.418 -0.4552 -1.9395 -0.4115
 1270TIP3   OH225224   6.295   1.957   4.489 -0.0315 -0.0662 -0.0223
 1270TIP3    H125225   6.317   1.946   4.582 -2.3719  1.3302  0.7701
 1270TIP3    H225226   6.217   1.904   4.476  0.4095 -0.4457 -1.2878
 1271TIP3   OH225227   4.880   2.371  16.629  0.2122 -0.3123 -0.0297
 1271TIP3    H125228   4.976   2.371  16.625  0.4895  1.6601  3.1184
 1271TIP3    H225229   4.854   2.453  16.588  0.1610  0.4898  1.5166
 1272TIP3   OH225230   0.087   4.633   3.690 -0.1076  0.8382  0.2063
 1272TIP3    H125231   0.026   4.704   3.673 -2.3581 -1.1992 -0.9025
 1272TIP3    H225232   0.080   4.576   3.613  1.5800 -0.6134  1.0376
 1273TIP3   OH225233   6.569   4.276  14.521  0.0152 -0.0074 -0.4896
 1273TIP3    H125234   6.508   4.295  14.449  0.3530  0.1306 -0.7454
 1273TIP3    H225235   6.631   4.214  14.483  0.8820  0.9530 -0.6872
 1274TIP3   OH225236   0.373   3.176  10.830  0.5367 -0.0993  0.1551
 1274TIP3    H125237   0.468   3.168  10.841  0.4370 -3.5738 -0.3451
 1274TIP3    H225238   0.341   3.199  10.917  1.7595  0.3508  0.5112
 1275TIP3   OH225239   1.513   3.842   1.423  0.2417 -0.0039 -0.6461
 1275TIP3    H125240   1.516   3.852   1.518  0.0094  1.2879 -0.7543
 1275TIP3    H225241   1.449   3.773   1.408 -0.7763  0.7388  0.1082
 1276TIP3   OH225242   1.255   1.495   4.219  0.1019  0.2582 -0.0249
 1276TIP3    H125243   1.292   1.581   4.199 -0.1567  0.7601  1.5306
 1276TIP3    H225244   1.329   1.445   4.254  0.6407 -0.7359 -2.4231
 1277TIP3   OH225245   5.353   5.784   1.040 -0.3370  0.4202  0.4234
 1277TIP3    H125246   5.343   5.691   1.024 -1.7167  0.4646  0.8655
 1277TIP3    H225247   5.446   5.801   1.027 -0.4875 -0.4748 -2.3384
 1278TIP3   OH225248   0.034   5.604  15.071  0.0833 -0.3181 -0.2905
 1278TIP3    H125249   0.097   5.662  15.029 -0.6653 -1.2215 -2.8465
 1278TIP3    H225250  -0.051   5.646  15.055 -0.2015 -0.4369  0.8226
 1279TIP3   OH225251   0.358   0.797   2.972 -0.3158  0.1221  0.4860
 1279TIP3    H125252   0.406   0.721   2.939  0.6405  0.8245  0.2038
 1279TIP3    H225253   0.303   0.761   3.042 -3.7820 -1.7520 -2.8317
 1280TIP3   OH225254   1.421   4.314   2.837 -0.1330 -0.4837 -0.6368
 1280TIP3    H125255   1.505   4.359   2.833 -0.0098 -0.6086  0.2814
 1280TIP3    H225256   1.379   4.348   2.916 -0.3982 -1.3513 -0.3851
 1281TIP3   OH225257   5.904   3.739  14.962  0.4546 -0.0990 -0.1500
 1281TIP3    H125258   5.970   3.690  15.011  2.0809  1.8016 -0.3453
 1281TIP3    H225259   5.843   3.672  14.931  1.2704 -1.7180  1.5570
 1282TIP3   OH225260   2.710   2.174  11.734  0.0021 -0.0458  0.2408
 1282TIP3    H125261   2.789   2.122  11.749 -1.3723 -2.5900 -0.7412
 1282TIP3    H225262   2.657   2.162  11.813  0.4149  1.4328  0.7845
 1283TIP3   OH225263   0.482   0.105   3.343 -0.7619 -0.3090 -0.7164
 1283TIP3    H125264   0.578   0.114   3.345 -0.5568 -1.9747 -1.4383
 1283TIP3    H225265   0.453   0.148   3.423  0.5743  0.3729 -0.5625
 1284TIP3   OH225266   6.088   2.744   1.596  0.4466 -0.4657  0.1910
 1284TIP3    H125267   6.006   2.738   1.646  0.6951 -2.1015  0.4595
 1284TIP3    H225268   6.090   2.834   1.564 -0.6312  0.0948  1.5814
 1285TIP3   OH225269   1.647   5.158  10.785 -0.4075  0.4175  0.4154
 1285TIP3    H125270   1.713   5.133  10.720  0.8703  0.8638  1.4843
 1285TIP3    H225271   1.612   5.075  10.817  1.4863  0.0303  1.6334
 1286TIP3   OH225272   2.952   5.691  15.646  0.1527 -0.2615  0.0642
 1286TIP3    H125273   2.864   5.668  15.617 -0.5053  1.4065  0.5970
 1286TIP3    H225274   2.963   5.782  15.618  2.2175 -0.8016 -1.1017
 1287TIP3   OH225275   0.507   3.356   2.410  1.0935  0.6228 -0.5207
 1287TIP3    H125276   0.513   3.309   2.493  0.7590  0.8430 -0.3693
 1287TIP3    H225277   0.459   3.436   2.431  1.3278  0.8539 -0.8535
 1288TIP3   OH225278   3.571   0.681  11.836  0.2478  0.3758  0.4268
 1288TIP3    H125279   3.601   0.706  11.749 -0.7941  1.2254  0.2774
 1288TIP3    H225280   3.612   0.745  11.895  1.6346 -0.7228  0.6791
 1289TIP3   OH225281   1.547   6.303   2.741  0.0398 -0.3235 -0.0606
 1289TIP3    H125282   1.575   6.224   2.788 -2.5283 -1.2059  0.2016
 1289TIP3    H225283   1.628   6.348   2.719  1.5009 -1.5034  2.3975
 1290TIP3   OH225284   1.453   1.679  12.646 -0.6652 -1.1075 -0.6636
 1290TIP3    H125285   1.419   1.701  12.560 -1.9144 -2.7198 -0.6453
 1290TIP3    H225286   1.457   1.762  12.693  3.4210  0.4678 -3.2796
 1291TIP3   OH225287   0.334   4.405  10.775 -0.1389  0.3495  0.0823
 1291TIP3    H125288   0.298   4.331  10.824 -1.3578 -0.5533 -2.0081
 1291TIP3    H225289   0.272   4.417  10.703  1.4394  1.7153 -1.1072
 1292TIP3   OH225290   1.103   2.745  12.984  0.6211  0.0950 -0.5433
 1292TIP3    H125291   1.018   2.702  12.992 -0.5180  1.8734 -2.1573
 1292TIP3    H225292   1.150   2.693  12.920 -0.6644  0.9924 -2.3245
 1293TIP3   OH225293   3.605   3.135   1.746 -0.0376  0.2544 -0.1773
 1293TIP3    H125294   3.639   3.222   1.769  0.4702 -0.0849  0.4009
 1293TIP3    H225295   3.680   3.076   1.759 -0.8306 -0.5190  1.1122
 1294TIP3   OH225296   2.630   3.221  12.683 -0.0091 -0.2103  0.5733
 1294TIP3    H125297   2.656   3.309  12.710 -2.0997  0.9867 -1.0477
 1294TIP3    H225298   2.550   3.203  12.733  1.1154 -1.8126  1.9007
 1295TIP3   OH225299   6.170   4.428   0.280  0.3985 -0.0668 -0.2035
 1295TIP3    H125300   6.232   4.492   0.246  1.1367 -0.4245  0.4318
 1295TIP3    H225301   6.096   4.431   0.219  1.3181 -0.0876 -1.3634
 1296TIP3   OH225302   5.892   4.002  14.860 -0.2813 -0.1525 -0.4555
 1296TIP3    H125303   5.912   3.909  14.864  2.0605  0.2346 -1.5549
 1296TIP3    H225304   5.801   4.009  14.889 -0.6218 -2.7993 -0.7222
 1297TIP3   OH225305   0.010   0.474  11.869  0.5709  0.0820 -0.6623
 1297TIP3    H125306   0.093   0.493  11.825  0.7246  0.8306 -0.0649
 1297TIP3    H225307   0.015   0.380  11.888  1.3573  0.1483 -0.4916
 1298TIP3   OH225308   0.617   2.875   0.006 -0.1142 -0.2976  0.3173
 1298TIP3    H125309   0.605   2.966   0.033  1.0802  0.0129 -0.1578
 1298TIP3    H225310   0.606   2.876  -0.089  0.2227 -0.6003  0.2707
 1299TIP3   OH225311   1.975   3.486  11.252 -0.3668  0.1588  0.6753
 1299TIP3    H125312   2.060   3.449  11.276 -1.3134 -1.7424  1.3511
 1299TIP3    H225313   1.994   3.545  11.179  1.2879 -1.8486 -0.6495
 1300TIP3   OH225314   3.944   0.951   3.350 -0.1588 -0.6436 -0.1379
 1300TIP3    H125315   4.010   1.002   3.304 -1.0452  0.8260  0.1480
 1300TIP3    H225316   3.973   0.950   3.441 -1.6135  2.0213  0.4606
 1301TIP3   OH225317   0.185   5.459  14.024 -0.0478  0.0868 -0.1867
 1301TIP3    H125318   0.119   5.396  14.052 -0.0839  0.2078  0.0084
 1301TIP3    H225319   0.202   5.438  13.933  1.3078 -1.4275  0.3649
 1302TIP3   OH225320   3.093   2.336  14.594  0.3261  0.5717  0.6521
 1302TIP3    H125321   3.168   2.288  14.626  1.2606  2.3704  1.3021
 1302TIP3    H225322   3.049   2.369  14.673  0.0568  1.2592  0.2322
 1303TIP3   OH225323   5.013   5.211  12.872  0.7748  0.1873  0.1402
 1303TIP3    H125324   5.027   5.306  12.880  0.4574  0.4046 -1.4473
 1303TIP3    H225325   5.067   5.186  12.797  1.8797 -1.1561  1.3182
 1304TIP3   OH225326   1.162   0.593  15.827 -0.1156  0.8131 -0.3484
 1304TIP3    H125327   1.206   0.673  15.798  0.9459  0.2382 -0.3945
 1304TIP3    H225328   1.230   0.526  15.822 -1.2297 -0.2993 -1.2451
 1305TIP3   OH225329   6.348   2.425  15.886 -0.3859 -0.1661 -0.7418
 1305TIP3    H125330   6.399   2.485  15.940  1.9863  1.1530 -4.1948
 1305TIP3    H225331   6.263   2.468  15.876  0.5505  1.5929 -1.4036
 1306TIP3   OH225332   0.312   2.700   4.159  0.4075 -0.3723  0.9268
 1306TIP3    H125333   0.348   2.681   4.246  0.2555  1.0515  1.3282
 1306TIP3    H225334   0.221   2.725   4.176 -0.4843 -2.7691  0.0440
 1307TIP3   OH225335   5.081   6.066   4.325 -0.5304  0.0218  0.2667
 1307TIP3    H125336   5.005   6.040   4.273  1.2322 -1.8481 -1.5135
 1307TIP3    H225337   5.051   6.059   4.416 -2.4614 -0.6946 -0.3753
 1308TIP3   OH225338   1.600   5.648  16.808  0.1890 -0.2507 -0.1407
 1308TIP3    H125339   1.554   5.646  16.892 -0.4812 -1.0336 -0.5115
 1308TIP3    H225340   1.643   5.563  16.801  1.5749  0.4000  0.1062
 1309TIP3   OH225341   6.096   5.744   2.799 -0.2909 -0.2831 -0.1828
 1309TIP3    H125342   6.042   5.779   2.728  0.9801  2.9015  0.2178
 1309TIP3    H225343   6.149   5.819   2.827  2.6197 -2.5894  1.0233
 1310TIP3   OH225344   1.691   2.577  15.073 -0.1301  0.0592  0.4624
 1310TIP3    H125345   1.613   2.525  15.089  0.3181 -0.4018  1.1893
 1310TIP3    H225346   1.692   2.641  15.144  1.4029 -1.4411  1.8835
 1311TIP3   OH225347   3.562   0.717  15.518 -0.1571  0.2141  0.4938
 1311TIP3    H125348   3.614   0.775  15.463 -0.6766 -0.0185 -0.2541
 1311TIP3    H225349   3.615   0.638  15.527  0.3291  0.5955  1.0970
 1312TIP3   OH225350   0.620   0.534  11.210 -0.0683  0.8296  0.2524
 1312TIP3    H125351   0.670   0.610  11.181  0.5897  0.2095 -0.2640
 1312TIP3    H225352   0.580   0.561  11.292  1.5380  1.1700  0.9515
 1313TIP3   OH225353   6.079   3.109  12.014  0.1646  0.3338  0.8534
 1313TIP3    H125354   6.082   3.162  12.093 -1.2972  1.7715  0.0019
 1313TIP3    H225355   6.168   3.074  12.005  0.5229  0.6496  2.7553
 1314TIP3   OH225356   5.050   3.661   0.947 -0.6230 -0.3030  0.1703
 1314TIP3    H125357   4.966   3.696   0.978 -0.0246  0.1201  1.3860
 1314TIP3    H225358   5.041   3.566   0.956 -0.9632 -0.2578  0.3331
 1315TIP3   OH225359   6.264   5.139   0.772  0.1370 -0.0404  0.1739
 1315TIP3    H125360   6.233   5.101   0.854  0.7260 -1.2368 -0.1404
 1315TIP3    H225361   6.186   5.142   0.716  0.2626 -1.8597 -0.1752
 1316TIP3   OH225362   3.305   3.484   4.358 -1.0941 -0.0376 -0.2937
 1316TIP3    H125363   3.278   3.393   4.372 -1.3616 -0.1375 -1.3591
 1316TIP3    H225364   3.399   3.485   4.378 -1.1699 -0.4564  0.0975
 1317TIP3   OH225365   4.103   5.848   3.243 -0.2372 -0.3689 -0.7249
 1317TIP3    H125366   4.115   5.767   3.294 -0.5580  0.0806  0.0882
 1317TIP3    H225367   4.143   5.916   3.297 -1.3041  0.2488 -0.6871
 1318TIP3   OH225368   1.404   0.255  13.918 -0.1500  0.5485  0.2111
 1318TIP3    H125369   1.330   0.277  13.861  0.4302 -0.1263 -0.8309
 1318TIP3    H225370   1.400   0.320  13.989 -1.3424  0.9241 -0.1841
 1319TIP3   OH225371   5.565   3.719  13.998  0.9096 -0.2989 -0.2089
 1319TIP3    H125372   5.520   3.708  13.914 -0.2550 -1.7529  0.5536
 1319TIP3    H225373   5.573   3.814  14.009 -0.9765 -0.0084 -0.9175
 1320TIP3   OH225374   5.001   0.676  12.165  0.3742 -0.5721 -0.0693
 1320TIP3    H125375   5.068   0.657  12.230 -0.8382 -1.0675  1.0939
 1320TIP3    H225376   5.046   0.725  12.097  2.2994 -2.4088 -0.2143
 1321TIP3   OH225377   3.887   6.068   1.849  0.0284 -0.3570 -0.0895
 1321TIP3    H125378   3.938   6.002   1.896 -1.0428 -0.9195  0.3043
 1321TIP3    H225379   3.852   6.124   1.917  0.0252 -0.0314 -0.3560
 1322TIP3   OH225380   3.266   1.363   0.010  0.3992  0.8299  0.0945
 1322TIP3    H125381   3.267   1.396   0.100 -1.8828  1.0811  0.0857
 1322TIP3    H225382   3.334   1.295   0.009  1.1427  1.4717  1.7183
 1323TIP3   OH225383   4.289   0.005   1.037  0.0179 -0.9728  0.0373
 1323TIP3    H125384   4.243  -0.043   0.968 -2.3049  1.4530 -0.2808
 1323TIP3    H225385   4.242   0.088   1.044  2.5633  0.4794  1.9008
 1324TIP3   OH225386   3.479   4.777   5.531 -0.7782 -0.0625  0.1538
 1324TIP3    H125387   3.448   4.752   5.444  1.7320 -2.1067 -0.2942
 1324TIP3    H225388   3.409   4.750   5.591 -1.7972 -0.2278 -1.0709
 1325TIP3   OH225389   2.487   5.995   5.309 -0.4679 -0.4014  0.0080
 1325TIP3    H125390   2.512   6.062   5.372  0.6132 -0.0367 -0.7773
 1325TIP3    H225391   2.535   5.917   5.336  1.7446  0.3125 -1.5312
 1326TIP3   OH225392   6.768   2.350  10.770 -0.1890  0.2926 -0.1040
 1326TIP3    H125393   6.684   2.395  10.777 -0.1861  0.3509 -0.4383
 1326TIP3    H225394   6.801   2.347  10.860 -0.5603  0.2450  0.0326
 1327TIP3   OH225395   1.090   4.177   4.247  0.3535  0.1224  0.2021
 1327TIP3    H125396   1.137   4.099   4.276 -0.6523 -1.2925 -1.7892
 1327TIP3    H225397   1.093   4.173   4.152 -0.3455  2.1623  0.0562
 1328TIP3   OH225398   6.022   3.581   0.096 -0.0874  0.6206  0.1308
 1328TIP3    H125399   5.952   3.516   0.102  1.0855 -0.7002 -0.0041
 1328TIP3    H225400   6.022   3.625   0.181 -3.2543  3.0567 -0.9179
 1329TIP3   OH225401   1.709   1.845   3.400 -0.3887  0.0883  0.2674
 1329TIP3    H125402   1.732   1.837   3.307 -2.1181  0.7307 -0.2407
 1329TIP3    H225403   1.793   1.864   3.443  0.7218 -1.8185 -0.9167
 1330TIP3   OH225404   2.392   2.460  13.404 -1.0448 -0.2838 -0.3234
 1330TIP3    H125405   2.417   2.533  13.460 -1.2045 -0.6728  0.2628
 1330TIP3    H225406   2.338   2.499  13.336 -0.6758  0.2253 -0.3316
 1331TIP3   OH225407   2.334   3.820   3.396  0.1383  0.5740 -0.3265
 1331TIP3    H125408   2.416   3.868   3.385 -0.1906  1.5864  1.2389
 1331TIP3    H225409   2.267   3.888   3.407 -0.7588 -0.2311 -0.6143
 1332TIP3   OH225410   3.900   4.889   0.789  0.2969  0.7713 -0.5358
 1332TIP3    H125411   3.868   4.813   0.837  1.3455 -1.0204 -2.4842
 1332TIP3    H225412   3.988   4.904   0.823  0.7283  0.0074 -1.2490
 1333TIP3   OH225413   6.107   3.302   4.661  0.1176  0.2699 -0.5888
 1333TIP3    H125414   6.150   3.245   4.597 -1.7677 -0.8057 -0.9478
 1333TIP3    H225415   6.115   3.255   4.744  1.1121  0.8991 -0.3011
 1334TIP3   OH225416   4.541   1.630   1.922  0.1415 -0.2024 -0.3691
 1334TIP3    H125417   4.470   1.632   1.987 -0.2234 -0.2966 -0.7574
 1334TIP3    H225418   4.520   1.554   1.867  0.5942 -0.2809 -0.4351
 1335TIP3   OH225419   3.868   1.503  12.889 -0.2684  0.3595 -0.2209
 1335TIP3    H125420   3.925   1.550  12.829  1.7950 -0.1149  1.2361
 1335TIP3    H225421   3.864   1.414  12.854  0.4790  0.2208  0.0333
 1336TIP3   OH225422   2.439   5.676   0.329 -0.6448 -0.0477  0.1428
 1336TIP3    H125423   2.401   5.652   0.244  0.3267  1.1280 -0.6593
 1336TIP3    H225424   2.421   5.601   0.385 -0.4151 -1.3028 -1.3852
 1337TIP3   OH225425   4.993   6.796   3.363  0.3693  0.5855 -0.4489
 1337TIP3    H125426   5.066   6.747   3.326  0.2498  0.8760 -1.0812
 1337TIP3    H225427   4.951   6.837   3.288  0.3823  1.5441  0.0525
 1338TIP3   OH225428   5.002   3.057  15.500 -0.0643  0.7701 -0.4896
 1338TIP3    H125429   5.025   3.081  15.589  2.0307 -1.0171 -0.4566
 1338TIP3    H225430   4.981   2.963  15.506 -3.1042  1.3013 -1.3719
 1339TIP3   OH225431   3.022   0.833   2.734 -0.0038 -0.2308  0.1442
 1339TIP3    H125432   3.012   0.771   2.807 -1.1924  0.2198  0.3741
 1339TIP3    H225433   3.115   0.856   2.737 -0.0860  0.0560  1.7566
 1340TIP3   OH225434   3.368   2.381   4.140 -0.0705 -0.0729 -0.2860
 1340TIP3    H125435   3.392   2.367   4.232  0.2331  0.2548 -0.3099
 1340TIP3    H225436   3.310   2.458   4.143 -0.9801 -0.7393 -0.2514
 1341TIP3   OH225437   2.439   0.314   3.401  0.5569 -0.3013 -0.0621
 1341TIP3    H125438   2.405   0.388   3.451  2.5594  0.6865 -0.0625
 1341TIP3    H225439   2.384   0.240   3.428  0.5684  0.4971  2.4473
 1342TIP3   OH225440   1.622   3.873   6.813 -0.4883 -0.5129  0.2810
 1342TIP3    H125441   1.625   3.969   6.818 -0.6482 -0.2440 -2.7208
 1342TIP3    H225442   1.709   3.845   6.841 -0.0123  0.6136 -0.0167
 1343TIP3   OH225443   0.360   3.345  11.428  0.1580 -0.0998 -0.8431
 1343TIP3    H125444   0.345   3.375  11.517  0.0892 -0.5308 -0.7068
 1343TIP3    H225445   0.394   3.422  11.382  2.9919 -0.5858  0.2539
 1344TIP3   OH225446   0.466   3.120   2.250  0.4899  0.0972 -0.2767
 1344TIP3    H125447   0.407   3.152   2.182  0.3694  0.2371 -0.1062
 1344TIP3    H225448   0.497   3.198   2.295  1.5045  0.0885 -0.9296
 1345TIP3   OH225449   4.425   0.345  14.292 -0.4159 -0.0305 -0.4257
 1345TIP3    H125450   4.409   0.399  14.369  1.5771  0.7632 -0.5072
 1345TIP3    H225451   4.345   0.294  14.281 -0.3504 -1.1063  2.9178
 1346TIP3   OH225452   3.355   6.393  11.492 -0.3936  0.2354 -0.0512
 1346TIP3    H125453   3.338   6.446  11.570 -1.7770 -0.6227  0.2551
 1346TIP3    H225454   3.362   6.457  11.421 -0.1748  0.9484  0.5959
 1347TIP3   OH225455   1.577   6.638   0.966 -0.0251 -0.5497 -0.1320
 1347TIP3    H125456   1.645   6.598   1.019 -0.8919 -0.0358  1.4186
 1347TIP3    H225457   1.536   6.702   1.024  0.4453  1.6851 -2.0849
 1348TIP3   OH225458   1.945   2.267   2.336  0.0160  0.8075  0.4275
 1348TIP3    H125459   1.988   2.352   2.345  0.3682  0.8959 -1.5301
 1348TIP3    H225460   1.906   2.269   2.248 -0.0945 -0.9951  0.3862
 1349TIP3   OH225461   1.878   6.397   2.664  0.2298 -0.2082  0.4697
 1349TIP3    H125462   1.973   6.409   2.670  0.1025  0.8049  0.7105
 1349TIP3    H225463   1.848   6.401   2.755  0.0196 -1.2273  0.4599
 1350TIP3   OH225464   3.634   2.032   4.525  0.2861 -0.0139  0.0714
 1350TIP3    H125465   3.680   1.997   4.449 -1.8885 -1.9898 -0.4510
 1350TIP3    H225466   3.660   1.975   4.597 -0.0648 -0.1098  0.1235
 1351TIP3   OH225467   1.294   4.779  12.340 -0.0706  0.0980 -0.2132
 1351TIP3    H125468   1.316   4.721  12.267 -1.6543  0.6127 -1.1436
 1351TIP3    H225469   1.198   4.782  12.341 -0.1026  0.2068  1.8299
 1352TIP3   OH225470   0.707   1.335  14.613  0.0904  0.1108 -0.1202
 1352TIP3    H125471   0.651   1.263  14.641  1.5889 -1.5828 -1.3168
 1352TIP3    H225472   0.660   1.375  14.539  0.4269 -1.3118 -1.1379
 1353TIP3   OH225473   1.318   5.720  13.589  0.0963  0.2835  0.0249
 1353TIP3    H125474   1.237   5.760  13.557  0.3461  2.5014  1.8478
 1353TIP3    H225475   1.305   5.713  13.684  2.2301  1.3294  0.4724
 1354TIP3   OH225476   2.458   4.237   4.076 -1.1087  0.8916  0.0183
 1354TIP3    H125477   2.471   4.331   4.088  1.8490  0.4896  0.6431
 1354TIP3    H225478   2.468   4.200   4.164  0.1638 -0.1979 -0.5474
 1355TIP3   OH225479   4.350   4.827  15.459  0.8809  0.0014 -0.2353
 1355TIP3    H125480   4.381   4.853  15.546  0.0742 -1.7019  0.6236
 1355TIP3    H225481   4.373   4.900  15.402  0.9427  1.4196  1.5144
 1356TIP3   OH225482   6.742   3.650  15.139 -0.2817  0.0919 -0.1221
 1356TIP3    H125483   6.720   3.620  15.227 -0.7211 -0.5636 -0.4484
 1356TIP3    H225484   6.785   3.575  15.098 -0.3043  0.3100 -0.5508
 1357TIP3   OH225485   1.142   4.796  16.210  0.2796 -0.2597 -0.4991
 1357TIP3    H125486   1.098   4.730  16.264  1.1572 -1.4068 -1.1383
 1357TIP3    H225487   1.235   4.783  16.228  0.4421  1.2999 -0.0981
 1358TIP3   OH225488   3.715   2.631  16.542  0.1416  0.1877 -0.3016
 1358TIP3    H125489   3.808   2.616  16.560 -0.2222  1.0148  2.8852
 1358TIP3    H225490   3.685   2.686  16.615 -2.5146  1.3068 -2.0792
 1359TIP3   OH225491   6.527   4.420  13.945  0.0146 -0.3696  0.7844
 1359TIP3    H125492   6.534   4.397  13.852  0.4995 -1.9960  1.1887
 1359TIP3    H225493   6.617   4.416  13.977  0.0973  1.9689  0.9666
 1360TIP3   OH225494   4.642   2.149   5.010 -0.3958 -0.2136  0.1333
 1360TIP3    H125495   4.661   2.103   5.092  0.0726  0.4156  0.3887
 1360TIP3    H225496   4.713   2.212   5.002  0.4474 -1.3101 -1.5555
 1361TIP3   OH225497   3.904   0.310   1.588 -0.3413 -0.3660  0.9037
 1361TIP3    H125498   3.982   0.350   1.626 -0.8749  1.4398  0.2268
 1361TIP3    H225499   3.835   0.323   1.654 -0.2734 -1.2619  1.1714
 1362TIP3   OH225500   3.637   3.877  11.327  0.1903 -0.6383  0.1393
 1362TIP3    H125501   3.674   3.959  11.359 -0.6708 -0.7130  1.4201
 1362TIP3    H225502   3.594   3.901  11.244 -0.9766  0.4677  1.0149
 1363TIP3   OH225503   1.221   4.883   2.416  0.2387  0.0245 -0.5189
 1363TIP3    H125504   1.262   4.953   2.366  3.1687 -1.4761 -0.4226
 1363TIP3    H225505   1.189   4.821   2.350  0.6002 -0.0841 -0.5973
 1364TIP3   OH225506   6.464   0.826  15.572 -0.2312 -0.1555 -0.1675
 1364TIP3    H125507   6.513   0.805  15.492 -1.4314  0.2310 -1.0313
 1364TIP3    H225508   6.462   0.744  15.621  1.5181 -0.1105  0.0503
 1365TIP3   OH225509   2.218   3.884  16.239 -0.3659 -0.0912  0.0774
 1365TIP3    H125510   2.224   3.804  16.187  0.2093  0.8421 -1.3180
 1365TIP3    H225511   2.137   3.926  16.209  0.3095  0.7798 -0.5753
 1366TIP3   OH225512   0.983   6.139  14.437 -0.4926  0.4130 -0.6321
 1366TIP3    H125513   0.911   6.202  14.440 -1.0861 -0.2604 -0.5113
 1366TIP3    H225514   0.941   6.053  14.437  0.3045  0.0067 -0.7714
 1367TIP3   OH225515   5.544   4.617   3.714 -0.3501  0.6994 -0.1223
 1367TIP3    H125516   5.568   4.532   3.678 -0.3825  0.7350 -0.2276
 1367TIP3    H225517   5.615   4.639   3.774 -1.1221 -0.1501  1.1417
 1368TIP3   OH225518   3.362   2.976  16.695  0.0998 -0.4566 -0.0823
 1368TIP3    H125519   3.403   2.945  16.776  1.9047  2.6883  0.3750
 1368TIP3    H225520   3.407   2.928  16.626 -0.5981 -2.2861  0.6860
 1369TIP3   OH225521   4.376   3.834   2.972  0.6178 -0.2373  0.6727
 1369TIP3    H125522   4.451   3.784   2.941 -0.1017 -0.7501 -0.3077
 1369TIP3    H225523   4.325   3.772   3.023  0.3396 -0.1815  0.4659
 1370TIP3   OH225524   2.107   2.278  13.117  0.1118 -0.5789  0.2710
 1370TIP3    H125525   2.028   2.238  13.081 -0.3545  0.5754 -0.0204
 1370TIP3    H225526   2.084   2.301  13.206 -0.0183  0.1352  0.0541
 1371TIP3   OH225527   6.092   6.780   5.088  0.1853 -0.3955  0.3189
 1371TIP3    H125528   6.129   6.698   5.055  3.5864  1.0233  0.2119
 1371TIP3    H225529   6.166   6.826   5.128 -1.5724  2.5866  0.4899
 1372TIP3   OH225530   1.909   6.715   2.526 -0.6588 -0.2583 -0.0676
 1372TIP3    H125531   1.993   6.761   2.535  0.0286 -1.6768  1.4992
 1372TIP3    H225532   1.932   6.633   2.482 -0.8740 -1.3484  1.7259
 1373TIP3   OH225533   3.056   0.759   3.247 -0.0173 -0.0543 -0.3291
 1373TIP3    H125534   3.111   0.720   3.315 -0.5968 -0.0891  0.1264
 1373TIP3    H225535   3.111   0.826   3.207  0.9104 -1.1351 -0.9532
 1374TIP3   OH225536   1.754   3.191  15.659 -0.1187 -0.2626  0.2000
 1374TIP3    H125537   1.788   3.191  15.749 -1.6349 -3.0307  0.8838
 1374TIP3    H225538   1.830   3.174  15.604  0.7078  0.7317  1.0027
 1375TIP3   OH225539   0.421   1.039   5.848  0.9680 -0.3490  0.0711
 1375TIP3    H125540   0.475   1.113   5.822 -1.0748  0.3800 -2.6020
 1375TIP3    H225541   0.346   1.078   5.892 -1.2875 -0.3769 -3.3531
 1376TIP3   OH225542   0.512   4.540   0.225  0.0635  0.2632  0.6479
 1376TIP3    H125543   0.509   4.475   0.154 -1.6181 -0.1220  1.0277
 1376TIP3    H225544   0.458   4.612   0.193 -1.0524 -0.0888  1.6726
 1377TIP3   OH225545   4.930   2.639  12.688  0.2534 -0.3102  0.4724
 1377TIP3    H125546   5.020   2.666  12.671  1.1232 -2.6364  1.0004
 1377TIP3    H225547   4.938   2.564  12.747 -2.0067 -0.9031  0.1221
 1378TIP3   OH225548   3.358   6.599  11.303  0.5150 -0.7654 -0.4863
 1378TIP3    H125549   3.326   6.584  11.214  1.7890  0.3721 -1.1631
 1378TIP3    H225550   3.347   6.693  11.317  0.8580 -0.8419  0.3607
 1379TIP3   OH225551   1.744   3.920  11.445  0.2955 -0.0553  0.2857
 1379TIP3    H125552   1.748   4.009  11.482  0.3589  0.8572 -1.7774
 1379TIP3    H225553   1.658   3.915  11.404  0.3138 -0.9418  0.3424
 1380TIP3   OH225554   3.573   5.719  16.672  0.6296  0.2371 -0.1223
 1380TIP3    H125555   3.495   5.666  16.653  1.2519 -1.7859  2.3734
 1380TIP3    H225556   3.637   5.693  16.606 -0.2822  0.8649 -1.3108
 1381TIP3   OH225557   0.720   0.619   1.401 -0.2382 -0.2533 -0.0057
 1381TIP3    H125558   0.739   0.613   1.495 -3.5761 -0.7445  0.7407
 1381TIP3    H225559   0.667   0.542   1.382 -0.0944  0.1359 -2.1941
 1382TIP3   OH225560   6.045   6.060   3.064 -0.3147  0.0525 -0.2824
 1382TIP3    H125561   6.132   6.062   3.024 -0.3277  2.5628 -0.3530
 1382TIP3    H225562   6.035   6.147   3.103 -1.8222 -1.0347  1.9249
 1383TIP3   OH225563   0.642   2.243  10.874 -0.1507 -0.1297 -0.4328
 1383TIP3    H125564   0.563   2.286  10.843  0.2653  0.8931 -0.1094
 1383TIP3    H225565   0.622   2.149  10.870 -1.1887  0.1006 -0.8221
 1384TIP3   OH225566   2.740   3.635  12.618  0.7411  0.5188  0.5103
 1384TIP3    H125567   2.748   3.574  12.545 -0.7418 -0.1992  0.9171
 1384TIP3    H225568   2.824   3.628  12.664  0.9089 -0.5852  0.0772
 1385TIP3   OH225569   0.459   5.964   5.687  0.1445  0.3726 -0.3205
 1385TIP3    H125570   0.522   5.927   5.748 -1.5234 -1.1236  0.5701
 1385TIP3    H225571   0.465   6.059   5.701  2.1783  0.2935 -0.3176
 1386TIP3   OH225572   2.812   1.059   2.945 -0.5062  0.0336  0.7576
 1386TIP3    H125573   2.744   1.113   2.905  0.3552 -0.4206 -1.4212
 1386TIP3    H225574   2.894   1.095   2.912  0.1722 -1.3668  0.8503
 1387TIP3   OH225575   4.027   5.536  16.925 -0.3472 -0.2300  0.1988
 1387TIP3    H125576   3.948   5.506  16.878 -0.2162  1.6166 -1.3355
 1387TIP3    H225577   4.084   5.570  16.856 -0.1382  2.6352  1.6467
 1388TIP3   OH225578   5.424   2.164  10.482  0.3852  0.2183 -0.0521
 1388TIP3    H125579   5.434   2.246  10.433  1.0650  1.0926  1.4425
 1388TIP3    H225580   5.477   2.100  10.434 -0.1565  0.6352 -1.2433
 1389TIP3   OH225581   5.652   6.300  12.756  0.0798  0.3469 -0.1703
 1389TIP3    H125582   5.642   6.212  12.720 -2.4436  1.5163 -2.7147
 1389TIP3    H225583   5.719   6.341  12.701 -1.6950  1.2123 -1.8095
 1390TIP3   OH225584   6.016   4.929   5.095  0.1632  0.2394 -0.8553
 1390TIP3    H125585   6.078   4.858   5.081 -2.0683 -1.9820 -0.2133
 1390TIP3    H225586   6.019   4.981   5.015  1.0265 -1.2837 -1.8417
 1391TIP3   OH225587   5.506   1.900   1.222 -0.4711  0.0090 -0.1606
 1391TIP3    H125588   5.441   1.837   1.189 -0.6773  0.3708 -0.4530
 1391TIP3    H225589   5.466   1.936   1.301  0.0253 -0.8611  0.4975
 1392TIP3   OH225590   4.136   6.757   4.589  0.1090 -0.0607  0.0054
 1392TIP3    H125591   4.076   6.704   4.641  1.4447 -2.6670 -0.9557
 1392TIP3    H225592   4.117   6.847   4.615  0.7443 -1.1252  4.9940
 1393TIP3   OH225593   3.757   0.863   6.352 -0.4068  0.0133 -0.4414
 1393TIP3    H125594   3.741   0.780   6.396 -0.6728  0.0161 -0.5322
 1393TIP3    H225595   3.849   0.859   6.326 -0.2664 -0.0214  0.0450
 1394TIP3   OH225596   2.721   2.125   2.948 -0.1895  0.1977  0.0974
 1394TIP3    H125597   2.797   2.169   2.986  0.0427  0.5262 -0.7104
 1394TIP3    H225598   2.661   2.196   2.926 -0.5115 -0.0221  0.2603
 1395TIP3   OH225599   4.574   5.633   3.220  0.1524 -0.1585 -0.1869
 1395TIP3    H125600   4.540   5.594   3.139 -1.6764  1.1236 -0.1008
 1395TIP3    H225601   4.547   5.573   3.289  0.0418 -0.3006 -0.3527
 1396TIP3   OH225602   6.362   6.494  16.164 -0.6756 -0.1319 -0.5478
 1396TIP3    H125603   6.370   6.447  16.081  2.4731 -0.0674 -0.3761
 1396TIP3    H225604   6.386   6.430  16.231  0.6299  0.8386 -0.0529
 1397TIP3   OH225605   3.966   1.643   0.824  0.1026  0.1556 -0.1303
 1397TIP3    H125606   3.976   1.677   0.735  1.1815  0.8522  0.2354
 1397TIP3    H225607   3.929   1.716   0.874 -0.8359 -0.3459 -0.0658
 1398TIP3   OH225608   4.009   0.079  15.598 -0.1735 -0.3171  0.2315
 1398TIP3    H125609   4.049   0.024  15.665  0.0486 -1.2858 -0.6737
 1398TIP3    H225610   4.047   0.165  15.612 -0.8556 -0.2374  1.9596
 1399TIP3   OH225611   6.613   4.847  12.173 -0.3944 -0.2150 -0.2138
 1399TIP3    H125612   6.639   4.800  12.252 -2.5623 -1.3150 -0.0880
 1399TIP3    H225613   6.621   4.939  12.196  0.9211 -0.5068  0.5939
 1400TIP3   OH225614   0.410   0.574  14.890 -0.5441 -0.0387  0.6063
 1400TIP3    H125615   0.399   0.643  14.955 -1.5998  0.6830 -0.3091
 1400TIP3    H225616   0.504   0.556  14.890 -0.5354 -0.1778  2.4242
 1401TIP3   OH225617   5.809   1.526   6.372 -0.2101 -0.1748 -0.2869
 1401TIP3    H125618   5.773   1.442   6.343 -1.5598  0.3087 -0.1058
 1401TIP3    H225619   5.888   1.537   6.321  0.2824 -1.7917  0.0513
 1402TIP3   OH225620   1.071   6.016   2.346  0.4669 -0.1270  0.5576
 1402TIP3    H125621   1.096   6.058   2.428  0.9446  0.4006  0.1516
 1402TIP3    H225622   1.127   6.057   2.280  0.4157 -0.8733  0.0361
 1403TIP3   OH225623   2.241   6.300   3.270 -0.0831 -0.0277 -0.2409
 1403TIP3    H125624   2.297   6.361   3.316  1.5065 -0.1679 -1.8875
 1403TIP3    H225625   2.300   6.234   3.235 -1.2470 -0.2028 -2.0224
 1404TIP3   OH225626   5.220   2.032   4.265 -0.2228  0.1202 -0.7722
 1404TIP3    H125627   5.150   2.064   4.323  0.2807  0.8787 -0.5676
 1404TIP3    H225628   5.202   2.072   4.181  0.2896  0.7951 -0.5693
 1405TIP3   OH225629   6.002   1.319  13.760 -0.3050  0.0717  0.4469
 1405TIP3    H125630   5.999   1.360  13.674  0.3383  1.8946  1.2406
 1405TIP3    H225631   6.095   1.318  13.783 -0.4872 -0.2162  1.1994
 1406TIP3   OH225632   4.728   5.482  16.636  0.8106  0.1375  0.3362
 1406TIP3    H125633   4.783   5.544  16.684 -0.3387  0.8810  0.7639
 1406TIP3    H225634   4.639   5.499  16.670  0.2310 -0.5444 -0.7933
 1407TIP3   OH225635   1.628   5.421   0.484  0.4203  0.0569 -0.3782
 1407TIP3    H125636   1.557   5.357   0.473  0.6097 -0.2090 -0.0761
 1407TIP3    H225637   1.642   5.424   0.579  0.5208  0.4310 -0.4047
 1408TIP3   OH225638   3.327   3.650   6.340  0.5592 -0.3807 -0.0840
 1408TIP3    H125639   3.316   3.562   6.304 -0.7895 -1.0585  1.8295
 1408TIP3    H225640   3.420   3.669   6.332  0.9893 -2.2776  0.1009
 1409TIP3   OH225641   4.373   1.824  12.340  0.0614  0.5210  0.3711
 1409TIP3    H125642   4.450   1.823  12.285 -0.7692  1.7093 -0.8766
 1409TIP3    H225643   4.299   1.833  12.279 -0.8562  2.3491  1.6462
 1410TIP3   OH225644   2.349   1.427   3.477  0.6580  0.5251  0.1382
 1410TIP3    H125645   2.363   1.391   3.390  1.1368  0.6530  0.1559
 1410TIP3    H225646   2.379   1.518   3.471 -0.0148  0.7594  0.2414
 1411TIP3   OH225647   2.880   3.989  16.011 -0.3856  0.0717  0.8049
 1411TIP3    H125648   2.957   3.933  16.009  0.4246  1.1392 -0.7933
 1411TIP3    H225649   2.806   3.929  16.002  0.4072 -0.8245 -0.0630
 1412TIP3   OH225650   2.591   5.370   1.486  0.2250  0.0586 -0.2064
 1412TIP3    H125651   2.544   5.330   1.559  0.2951 -2.2538 -1.3414
 1412TIP3    H225652   2.536   5.444   1.460 -0.7313 -0.1997  1.0140
 1413TIP3   OH225653   0.597   0.051   2.680  0.4602 -0.7902 -0.2030
 1413TIP3    H125654   0.677   0.099   2.699  0.0104 -0.4718  0.9979
 1413TIP3    H225655   0.531   0.119   2.666  0.0072 -1.0496  0.6427
 1414TIP3   OH225656   1.335   4.383   3.082 -0.4254 -0.3230 -0.5235
 1414TIP3    H125657   1.256   4.384   3.136 -0.1439 -1.6278 -0.0294
 1414TIP3    H225658   1.397   4.437   3.130 -0.8205  0.2083 -0.6009
 1415TIP3   OH225659   1.435   6.277   5.149 -0.1282  0.2730  0.3533
 1415TIP3    H125660   1.473   6.191   5.133 -1.2115 -0.2876  0.6958
 1415TIP3    H225661   1.340   6.262   5.151 -0.3184  1.3983  0.8435
 1416TIP3   OH225662   4.583   5.792  12.168 -0.0532 -0.3177 -0.1947
 1416TIP3    H125663   4.571   5.771  12.261  0.9391  0.5767  0.1550
 1416TIP3    H225664   4.678   5.795  12.156 -0.1639  0.5560 -0.9884
 1417TIP3   OH225665   3.325   1.387   0.291 -0.4182  0.8713  0.1772
 1417TIP3    H125666   3.381   1.454   0.329 -1.8414  1.7401  0.8513
 1417TIP3    H225667   3.265   1.363   0.362 -2.0950  1.3539 -1.0144
 1418TIP3   OH225668   1.508   3.033  15.953 -0.1024 -0.1505  0.3745
 1418TIP3    H125669   1.560   3.091  15.898  1.6220 -0.9602  1.0782
 1418TIP3    H225670   1.499   3.080  16.036  0.6625 -0.5487  0.6944
 1419TIP3   OH225671   2.612   5.302   0.268  0.6332  0.2261 -0.4940
 1419TIP3    H125672   2.563   5.277   0.347 -0.2694  1.7004 -0.5426
 1419TIP3    H225673   2.677   5.365   0.299  0.2737  0.8115 -0.9072
 1420TIP3   OH225674   4.972   6.333  11.194 -0.6134  0.5521 -0.4220
 1420TIP3    H125675   5.047   6.278  11.219 -0.5382  0.9477  0.2395
 1420TIP3    H225676   4.984   6.413  11.243 -2.2655  0.0690  0.8460
 1421TIP3   OH225677   6.388   3.862   3.436 -0.0337 -0.3137  0.1809
 1421TIP3    H125678   6.353   3.801   3.501 -0.6171  0.2352  0.3826
 1421TIP3    H225679   6.321   3.867   3.368 -0.1222  0.3327  0.3118
 1422TIP3   OH225680   0.667   5.637   4.683  0.0001  0.1278 -0.1254
 1422TIP3    H125681   0.648   5.673   4.770 -0.0072 -1.6696  0.6599
 1422TIP3    H225682   0.580   5.623   4.644 -0.0514 -0.4705  0.1941
 1423TIP3   OH225683   1.413   5.660  16.327 -0.5569  0.5004  0.6862
 1423TIP3    H125684   1.488   5.600  16.326  0.0014  1.1833  0.6784
 1423TIP3    H225685   1.452   5.747  16.324 -1.3942  0.8525 -0.4450
 1424TIP3   OH225686   6.631   4.497   4.828 -0.4566  0.5945 -0.2117
 1424TIP3    H125687   6.569   4.527   4.762  0.5697  1.1443 -0.9504
 1424TIP3    H225688   6.666   4.415   4.793  1.0223  1.5102 -1.0184
 1425TIP3   OH225689   4.316   5.210  15.617  0.5352  0.0039  0.7609
 1425TIP3    H125690   4.305   5.150  15.691 -0.7035 -0.5569  0.1559
 1425TIP3    H225691   4.371   5.162  15.555 -1.4478 -1.0765 -0.2564
 1426TIP3   OH225692   3.005   1.762  12.346  0.5978 -0.1171 -0.0090
 1426TIP3    H125693   2.972   1.806  12.268 -2.5058 -1.4440  0.4178
 1426TIP3    H225694   2.997   1.827  12.416  1.0844  0.2871 -0.3195
 1427TIP3   OH225695   6.134   3.242  15.288 -0.3127  0.2487 -0.5213
 1427TIP3    H125696   6.126   3.328  15.245 -0.1099  0.1485 -0.7654
 1427TIP3    H225697   6.074   3.186  15.239 -0.0886  0.1369 -0.6718
 1428TIP3   OH225698   3.047   1.250  14.668  0.0971  0.4190 -0.0817
 1428TIP3    H125699   3.011   1.332  14.700 -3.4505 -0.3769 -1.5133
 1428TIP3    H225700   3.106   1.275  14.597 -0.2691  1.7502  0.0641
 1429TIP3   OH225701   5.561   6.802  16.759 -0.2696 -0.0492  0.4278
 1429TIP3    H125702   5.655   6.791  16.769 -0.6438 -3.4228  1.5336
 1429TIP3    H225703   5.531   6.836  16.843 -0.1377  0.3062  0.3318
 1430TIP3   OH225704   6.680   5.747  12.426  0.3544  0.6016 -0.0352
 1430TIP3    H125705   6.725   5.679  12.375 -1.8713 -0.2343 -1.0460
 1430TIP3    H225706   6.689   5.718  12.517  0.5054 -0.3839 -0.3468
 1431TIP3   OH225707   0.065   3.243   5.697  0.0597  0.4311  0.4605
 1431TIP3    H125708   0.149   3.204   5.675 -0.2773  0.4946 -1.0836
 1431TIP3    H225709   0.003   3.203   5.636 -1.1746 -0.1177  2.0061
 1432TIP3   OH225710   4.207   0.941  14.560 -0.2408 -0.0564 -0.0756
 1432TIP3    H125711   4.171   1.000  14.626 -1.1113 -1.7879  1.0805
 1432TIP3    H225712   4.134   0.923  14.501  0.2106  0.5516 -0.8312
 1433TIP3   OH225713   2.423   3.905  13.117 -0.7565  0.1540  0.3368
 1433TIP3    H125714   2.458   3.943  13.037  1.5265 -1.9564  0.2017
 1433TIP3    H225715   2.385   3.979  13.164  0.9904  2.0946 -1.1053
 1434TIP3   OH225716   1.199   3.542   2.719  0.2558 -0.5402 -0.3626
 1434TIP3    H125717   1.196   3.626   2.765 -0.9680 -0.3352 -0.7981
 1434TIP3    H225718   1.272   3.551   2.658 -2.0301  1.6463 -3.0438
 1435TIP3   OH225719   6.424   0.429  13.015 -0.5078 -0.2592 -0.1444
 1435TIP3    H125720   6.451   0.423  13.107 -0.1358  0.4438 -0.1977
 1435TIP3    H225721   6.496   0.387  12.968 -1.4376 -2.0604 -0.0254
 1436TIP3   OH225722   5.596   1.967  14.286 -0.0670  0.0396  0.1669
 1436TIP3    H125723   5.636   1.944  14.370  1.6781  1.7104 -0.1183
 1436TIP3    H225724   5.516   2.015  14.309  0.4031  0.4912  0.9020
 1437TIP3   OH225725   5.784   3.401   2.620  0.1672 -0.3815  0.6490
 1437TIP3    H125726   5.791   3.474   2.682 -0.1611 -1.0266  1.4608
 1437TIP3    H225727   5.709   3.350   2.651  0.5730 -1.2322  0.2655
 1438TIP3   OH225728   1.514   1.525   2.930  0.3173 -0.3278 -0.2158
 1438TIP3    H125729   1.528   1.481   2.846  0.9688 -1.1437  0.3014
 1438TIP3    H225730   1.573   1.479   2.990 -0.8792 -0.4322  0.9070
 1439TIP3   OH225731   0.730   0.359  16.915 -0.2177  0.4517 -0.6776
 1439TIP3    H125732   0.816   0.326  16.888  0.0247  1.7055 -1.5113
 1439TIP3    H225733   0.668   0.306  16.864  0.1051  0.3193 -0.9402
 1440TIP3   OH225734   0.777   5.440   6.621 -0.6719  0.4027  0.3310
 1440TIP3    H125735   0.696   5.390   6.632 -0.7779  0.5747  0.3206
 1440TIP3    H225736   0.846   5.373   6.625 -0.8849  0.0629 -1.0202
 1441TIP3   OH225737   2.806   3.418   5.302  0.2177  0.3158  0.2296
 1441TIP3    H125738   2.760   3.441   5.383  0.8068  0.9236  0.4053
 1441TIP3    H225739   2.878   3.362   5.330  0.3052  0.3659  0.1072
 1442TIP3   OH225740   3.843   0.032  16.150 -0.1119 -0.1399 -0.2084
 1442TIP3    H125741   3.866   0.079  16.069  0.1433 -0.8706 -0.5769
 1442TIP3    H225742   3.913  -0.033  16.160 -1.0302 -1.1789 -0.3290
 1443TIP3   OH225743   4.426   5.253   4.956 -0.0429 -0.2972  0.1693
 1443TIP3    H125744   4.475   5.331   4.932  1.0905 -1.3984 -1.3173
 1443TIP3    H225745   4.383   5.225   4.875  1.7531 -2.6530 -0.1129
 1444TIP3   OH225746   5.453   2.620   6.124 -0.6644  0.0624  0.0095
 1444TIP3    H125747   5.537   2.606   6.080  1.0672  0.4454  2.9682
 1444TIP3    H225748   5.448   2.715   6.137 -1.1216 -0.0428  0.6720
 1445TIP3   OH225749   6.314   3.434   3.615 -0.2441  0.1442  0.1550
 1445TIP3    H125750   6.246   3.378   3.577  0.3332  0.3551 -1.2477
 1445TIP3    H225751   6.363   3.376   3.674  0.5248 -0.9529 -1.4972
 1446TIP3   OH225752   2.078   3.492  13.545 -0.4614 -0.3790  0.5568
 1446TIP3    H125753   2.113   3.581  13.542  1.9830 -1.2876 -0.2371
 1446TIP3    H225754   2.058   3.476  13.637 -0.2835  0.7504  0.7996
 1447TIP3   OH225755   1.479   1.487  16.575 -0.6663  0.1248  0.5218
 1447TIP3    H125756   1.570   1.500  16.602 -0.6512  0.7643  0.1852
 1447TIP3    H225757   1.428   1.498  16.656 -0.5055  0.5576  0.5673
 1448TIP3   OH225758   5.510   4.371  15.627  0.1677  0.3704  0.6117
 1448TIP3    H125759   5.538   4.417  15.706  0.5895  1.0438  0.0812
 1448TIP3    H225760   5.490   4.282  15.656  1.3755  0.3038  1.2853
 1449TIP3   OH225761   6.071   5.602   1.396  0.1059 -0.2629  0.2095
 1449TIP3    H125762   5.987   5.560   1.377 -0.0642 -0.5916  1.5494
 1449TIP3    H225763   6.094   5.649   1.316 -1.4876  0.0458 -0.0898
 1450TIP3   OH225764   5.750   5.381  13.360  0.1940  0.8505  0.0771
 1450TIP3    H125765   5.666   5.420  13.382  0.7980  1.0133  2.3945
 1450TIP3    H225766   5.812   5.454  13.365  0.7983  0.3074  0.8685
 1451TIP3   OH225767   0.217   3.106  15.875  0.2747 -0.4048  0.2787
 1451TIP3    H125768   0.245   3.048  15.946 -0.8590 -1.6164 -0.2139
 1451TIP3    H225769   0.128   3.133  15.899  0.4370  0.3807  0.0326
 1452TIP3   OH225770   3.195   5.528   2.139  0.6238 -0.3240  0.5826
 1452TIP3    H125771   3.133   5.472   2.186 -0.8122 -0.0434 -0.8942
 1452TIP3    H225772   3.180   5.508   2.047  1.3443  1.1893  0.1107
 1453TIP3   OH225773   3.027   2.846  13.427 -0.4635  0.2713  0.5460
 1453TIP3    H125774   3.003   2.874  13.338 -2.9426 -0.5729  0.8729
 1453TIP3    H225775   3.026   2.926  13.478 -1.3919  0.4646  0.2511
 1454TIP3   OH225776   4.581   2.207   0.535 -0.0713  0.0381 -0.2669
 1454TIP3    H125777   4.586   2.297   0.566  0.4667  0.4593 -1.5300
 1454TIP3    H225778   4.671   2.175   0.537 -0.3603 -0.7540  0.9334
 1455TIP3   OH225779   5.885   3.634  11.273  0.6137 -0.7528  0.3172
 1455TIP3    H125780   5.936   3.625  11.193  1.0375  0.0189  0.4873
 1455TIP3    H225781   5.798   3.603  11.250  0.4659  0.3628 -0.7301
 1456TIP3   OH225782   0.098   0.747   1.681  0.5912 -0.0639 -0.1008
 1456TIP3    H125783   0.169   0.767   1.742  0.2226 -0.6986  0.5546
 1456TIP3    H225784   0.099   0.651   1.674 -0.6444 -0.1311  0.4645
 1457TIP3   OH225785   3.205   0.159  16.376 -0.1041 -0.1268  0.0728
 1457TIP3    H125786   3.124   0.197  16.408  0.4860  0.7803  0.5416
 1457TIP3    H225787   3.274   0.212  16.416  0.7033 -0.2009 -1.1418
 1458TIP3   OH225788   6.084   4.938   0.101  0.2115 -0.1039  0.1484
 1458TIP3    H125789   6.176   4.955   0.081 -0.0719 -0.9679 -2.1896
 1458TIP3    H225790   6.036   4.973   0.026 -1.2872 -0.7595  0.7436
 1459TIP3   OH225791   0.103   0.325   0.507 -0.3848 -0.4001  0.3853
 1459TIP3    H125792   0.068   0.412   0.526  0.4014 -0.1810  0.8987
 1459TIP3    H225793   0.152   0.336   0.425  1.0241  0.0404  1.2458
 1460TIP3   OH225794   4.424   0.412  12.223 -0.3175 -0.4732 -0.4899
 1460TIP3    H125795   4.364   0.343  12.194 -0.3704 -0.9576  0.7096
 1460TIP3    H225796   4.392   0.491  12.180 -1.0058 -0.9657 -0.9152
 1461TIP3   OH225797   3.820   1.285  13.047  0.5966 -0.4714  0.2861
 1461TIP3    H125798   3.873   1.267  13.124 -0.0565  0.8850  1.0839
 1461TIP3    H225799   3.857   1.365  13.010  0.1379 -0.4351 -0.1057
 1462TIP3   OH225800   1.168   3.306  13.282  0.6599  0.6416  0.2435
 1462TIP3    H125801   1.260   3.314  13.256  0.5613 -0.2049 -0.3929
 1462TIP3    H225802   1.154   3.212  13.296 -0.2754  0.6760 -0.3250
 1463TIP3   OH225803   3.451   4.228  10.982 -0.1843  0.5256  0.3670
 1463TIP3    H125804   3.411   4.315  10.982  1.2550  1.2440  2.0245
 1463TIP3    H225805   3.489   4.220  10.895 -1.3261  1.0469 -0.2068
 1464TIP3   OH225806   2.865   1.027  15.757  0.3425  0.3874 -0.0909
 1464TIP3    H125807   2.771   1.021  15.778  0.3689  0.4106  0.0354
 1464TIP3    H225808   2.904   1.068  15.834  0.4096  0.6757 -0.2794
 1465TIP3   OH225809   6.073   4.424  15.567 -0.5371  0.3127 -0.8066
 1465TIP3    H125810   6.067   4.383  15.653  0.7545 -2.2344 -1.8282
 1465TIP3    H225811   6.134   4.497  15.580  0.6528 -0.8057  0.2071
 1466TIP3   OH225812   0.372   3.826  14.766 -0.1035 -0.0940  0.1082
 1466TIP3    H125813   0.425   3.865  14.835  0.4256  1.1144 -0.9376
 1466TIP3    H225814   0.395   3.733  14.766  1.6319  0.3142  0.0190
 1467TIP3   OH225815   4.837   4.720  11.976 -0.5004  0.2179  0.1447
 1467TIP3    H125816   4.932   4.722  11.965 -0.2651 -0.1964  1.8624
 1467TIP3    H225817   4.824   4.725  12.071 -2.1974  0.3019 -0.0706
 1468TIP3   OH225818   3.409   6.468   3.437 -0.0999  0.3492  0.9164
 1468TIP3    H125819   3.399   6.398   3.372 -0.6471  1.0779  0.2084
 1468TIP3    H225820   3.332   6.459   3.493 -1.4002  1.7727 -0.5371
 1469TIP3   OH225821   1.474   6.805  13.708 -0.1540 -0.1221  0.1183
 1469TIP3    H125822   1.528   6.857  13.647 -1.7883  2.0655  0.4429
 1469TIP3    H225823   1.386   6.807  13.670 -0.7023 -0.8245  1.3067
 1470TIP3   OH225824   4.643   1.024   5.027  0.5652  0.1434 -0.0679
 1470TIP3    H125825   4.687   0.972   5.094  1.9876  1.0993 -0.1959
 1470TIP3    H225826   4.673   0.987   4.944  0.6433  0.4018 -0.1568
 1471TIP3   OH225827   4.612   6.056  14.648 -0.0040 -0.2987 -0.2207
 1471TIP3    H125828   4.676   6.001  14.603 -0.3388 -1.4361  0.6273
 1471TIP3    H225829   4.663   6.125  14.689  0.2640  1.0976 -2.7156
 1472TIP3   OH225830   6.578   5.377   6.910  0.4291  0.2684  0.0616
 1472TIP3    H125831   6.562   5.308   6.845 -0.3559 -0.5734  1.1034
 1472TIP3    H225832   6.507   5.366   6.974  1.4241  0.7789  1.2932
 1473TIP3   OH225833   0.246   3.937  13.766 -0.2611  0.1064  0.1366
 1473TIP3    H125834   0.190   3.944  13.689  1.8435  0.7872 -1.4301
 1473TIP3    H225835   0.291   3.853  13.756  1.7597  1.2201 -0.7044
 1474TIP3   OH225836   2.309   4.916   1.094  0.6748 -0.4669  0.0222
 1474TIP3    H125837   2.321   4.891   1.002 -0.4470 -1.8951  0.2348
 1474TIP3    H225838   2.215   4.931   1.102  0.3209 -3.0844  1.5656
 1475TIP3   OH225839   3.289   5.423  12.866  0.5292 -0.3173  0.0484
 1475TIP3    H125840   3.248   5.345  12.827 -1.8308  1.0119 -0.3362
 1475TIP3    H225841   3.251   5.428  12.954  0.3980  0.5575 -0.0526
 1476TIP3   OH225842   4.442   5.730   2.988 -0.0971  0.2945  0.1514
 1476TIP3    H125843   4.377   5.685   2.933 -0.9681 -0.0333  1.3895
 1476TIP3    H225844   4.394   5.802   3.028  0.1747 -0.1806  1.3858
 1477TIP3   OH225845   4.524   6.095   1.281  0.1198  0.3053 -0.3685
 1477TIP3    H125846   4.541   6.046   1.362  0.5543  0.3220 -0.4508
 1477TIP3    H225847   4.577   6.051   1.215  2.0663  2.0515 -0.0673
 1478TIP3   OH225848   3.999   4.702  14.080 -0.2507  0.0848 -0.5438
 1478TIP3    H125849   3.907   4.723  14.100 -0.0319 -0.4783  1.2320
 1478TIP3    H225850   4.030   4.778  14.031 -1.2254  1.0473  0.2698
 1479TIP3   OH225851   4.529   0.331   3.433 -0.2575  0.0157 -0.1183
 1479TIP3    H125852   4.582   0.348   3.510 -0.5880  2.9165 -0.4170
 1479TIP3    H225853   4.588   0.348   3.359 -0.7303  0.0563 -0.4884
 1480TIP3   OH225854   5.900   5.174  15.546 -0.0542  0.1306 -0.2510
 1480TIP3    H125855   5.944   5.160  15.630 -1.5468  3.3216  1.2390
 1480TIP3    H225856   5.826   5.114  15.546  0.0072  0.0452  0.7066
 1481TIP3   OH225857   2.793   5.703   1.136 -0.3376 -0.3066  0.3872
 1481TIP3    H125858   2.883   5.671   1.125 -0.5834 -1.2068  0.9162
 1481TIP3    H225859   2.795   5.791   1.100  1.2045  0.3875  2.0466
 1482TIP3   OH225860   6.063   1.432   6.233 -0.7999 -0.1692 -0.2338
 1482TIP3    H125861   6.121   1.429   6.309 -0.0811 -0.6912 -0.7782
 1482TIP3    H225862   6.085   1.514   6.189 -0.6673 -0.2321 -0.2868
 1483TIP3   OH225863   0.807   3.353  13.573  0.3579  0.2069  0.1536
 1483TIP3    H125864   0.893   3.385  13.547  0.9206 -0.6712  0.8630
 1483TIP3    H225865   0.806   3.363  13.668 -0.6678  0.9928  0.0813
 1484TIP3   OH225866   3.891   0.375  12.010  0.0601 -0.2397  0.4498
 1484TIP3    H125867   3.890   0.392  11.915  0.4995 -2.5957 -0.0329
 1484TIP3    H225868   3.975   0.409  12.040 -0.1282  0.6232  0.0201
 1485TIP3   OH225869   0.057   5.633   5.492 -0.1021  0.0794 -0.0093
 1485TIP3    H125870   0.108   5.630   5.573 -1.4706 -0.8866  0.8478
 1485TIP3    H225871   0.048   5.542   5.465  2.5931  0.4368 -2.8074
 1486TIP3   OH225872   1.714   3.973  15.794 -0.3518 -0.0626 -0.2179
 1486TIP3    H125873   1.626   3.966  15.759  0.1852  0.3978 -1.7864
 1486TIP3    H225874   1.710   4.045  15.856 -1.2113 -0.4712  0.2095
 1487TIP3   OH225875   4.223   2.971  15.503 -0.6550  0.1184 -0.4000
 1487TIP3    H125876   4.211   2.888  15.551  0.5772  0.7461  1.0717
 1487TIP3    H225877   4.264   3.029  15.567  0.4352  1.2197 -2.0451
 1488TIP3   OH225878   4.991   5.218   0.476  0.0616  0.3798  0.3225
 1488TIP3    H125879   4.958   5.308   0.475  1.9134  1.1118  0.5792
 1488TIP3    H225880   4.952   5.177   0.399  1.5280  2.3178 -1.5617
 1489TIP3   OH225881   5.079   4.671   1.695  0.0368 -1.1163 -0.0054
 1489TIP3    H125882   5.011   4.659   1.761 -1.4882 -1.3194 -1.5417
 1489TIP3    H225883   5.065   4.601   1.632 -0.0554  0.3780 -1.7529
 1490TIP3   OH225884   5.298   5.382   2.740 -0.0605 -0.6859  0.0140
 1490TIP3    H125885   5.240   5.447   2.701 -0.4282 -0.7274  0.4729
 1490TIP3    H225886   5.341   5.429   2.812  0.7099 -0.5702 -0.5151
 1491TIP3   OH225887   3.612   4.547   0.149 -0.4934  0.5368 -0.4575
 1491TIP3    H125888   3.561   4.622   0.179  0.8652  1.3430 -0.0483
 1491TIP3    H225889   3.696   4.585   0.122  0.5819 -0.9195  0.6623
 1492TIP3   OH225890   0.805   5.187  11.051  0.2505 -0.1283  0.1365
 1492TIP3    H125891   0.758   5.270  11.053  1.4869  0.6325 -0.9575
 1492TIP3    H225892   0.760   5.136  10.983 -1.1704 -0.7947  1.5372
 1493TIP3   OH225893   6.793   2.040   3.706 -0.2080  0.4862  0.7936
 1493TIP3    H125894   6.845   2.114   3.676  1.1450 -0.3220  1.0918
 1493TIP3    H225895   6.704   2.075   3.715  0.0528  1.6235 -0.7252
 1494TIP3   OH225896   5.817   0.675  14.052 -0.1646  0.4177  0.4782
 1494TIP3    H125897   5.753   0.613  14.087  1.8569 -1.8075  0.4810
 1494TIP3    H225898   5.884   0.681  14.120  1.3747 -0.1242 -0.9355
 1495TIP3   OH225899   5.558   4.101  13.364 -0.3017  0.4747  0.0418
 1495TIP3    H125900   5.575   4.053  13.445 -0.1716  1.9495  0.9223
 1495TIP3    H225901   5.467   4.079  13.342 -0.2328 -0.1899  0.3897
 1496TIP3   OH225902   6.086   3.142   1.187  0.3499  0.7186 -0.6963
 1496TIP3    H125903   6.128   3.072   1.137  3.1688  0.2024  2.0611
 1496TIP3    H225904   6.099   3.221   1.135  1.6380 -0.0394 -1.5767
 1497TIP3   OH225905   0.412   0.704  12.893 -0.7777 -0.5546  0.0690
 1497TIP3    H125906   0.371   0.622  12.865 -0.4101 -0.1264 -1.8926
 1497TIP3    H225907   0.491   0.676  12.940  0.4168 -1.3881 -2.2704
 1498TIP3   OH225908   0.299   5.711  13.828 -0.4836  0.5191  0.3258
 1498TIP3    H125909   0.394   5.720  13.839 -0.5316  0.3764  0.8599
 1498TIP3    H225910   0.290   5.657  13.749 -0.0987 -0.2237  0.7683
 1499TIP3   OH225911   4.431   0.352  15.708  0.0622  0.2153  0.0178
 1499TIP3    H125912   4.437   0.434  15.659 -2.5261 -0.4898 -1.6978
 1499TIP3    H225913   4.363   0.368  15.773  1.6264  0.2899  1.7205
 1500TIP3   OH225914   6.623   4.011   3.350 -0.3340  0.6207  0.9140
 1500TIP3    H125915   6.540   3.964   3.351 -0.6946  1.1681 -1.0632
 1500TIP3    H225916   6.662   3.989   3.266  0.8699  1.5265  1.2113
 1501TIP3   OH225917   5.581   0.407  11.949  0.1632 -0.0594 -0.0580
 1501TIP3    H125918   5.637   0.474  11.987 -0.6845  0.1738  0.8284
 1501TIP3    H225919   5.495   0.423  11.987 -0.4841 -0.4955 -1.2750
 1502TIP3   OH225920   0.243   3.710   1.117 -0.5344 -0.4520  0.0475
 1502TIP3    H125921   0.176   3.756   1.169  0.3369  0.1409  0.6792
 1502TIP3    H225922   0.223   3.733   1.026 -0.1860  1.1380  0.3372
 1503TIP3   OH225923   0.221   1.509  13.953  0.1490  0.0047  0.1585
 1503TIP3    H125924   0.296   1.454  13.978 -1.0636 -0.9673  1.8386
 1503TIP3    H225925   0.160   1.449  13.910 -0.0787  0.6027 -0.3688
 1504TIP3   OH225926   5.686   1.062  11.896  0.1668 -0.0062 -0.6483
 1504TIP3    H125927   5.692   1.063  11.991 -1.6561  0.5227 -0.5069
 1504TIP3    H225928   5.777   1.060  11.866  0.7622 -0.0647  1.0913
 1505TIP3   OH225929   6.596   1.527  15.680  0.4514 -0.0262  0.3310
 1505TIP3    H125930   6.630   1.502  15.594 -0.9929 -0.0903 -0.2550
 1505TIP3    H225931   6.581   1.621  15.673 -1.9162 -0.3974 -0.3590
 1506TIP3   OH225932   3.088   5.347  13.745 -0.1630 -0.3530 -0.5800
 1506TIP3    H125933   3.101   5.431  13.700  1.0770 -0.4445 -0.4251
 1506TIP3    H225934   3.100   5.367  13.838  0.2356 -0.7074 -0.5493
 1507TIP3   OH225935   5.283   3.795   0.137 -0.2621  0.4441  0.6083
 1507TIP3    H125936   5.225   3.734   0.092 -1.6831  0.9023  1.7222
 1507TIP3    H225937   5.365   3.747   0.149 -1.0041 -0.8740  0.5552
 1508TIP3   OH225938   5.386   4.702   5.059 -0.9812  0.5454 -0.0193
 1508TIP3    H125939   5.367   4.654   5.139 -0.9650 -0.0575 -0.3696
 1508TIP3    H225940   5.387   4.794   5.086 -0.1479  0.3002  0.8274
 1509TIP3   OH225941   2.641   0.160   4.740 -0.4303  0.2107 -0.2724
 1509TIP3    H125942   2.710   0.204   4.691 -0.3480  0.8814  0.4365
 1509TIP3    H225943   2.562   0.174   4.687 -0.6296  2.2097  0.4827
 1510TIP3   OH225944   4.882   2.917   1.944  0.3799  0.0383 -0.8391
 1510TIP3    H125945   4.934   2.958   1.874  2.1683 -1.7433 -0.6403
 1510TIP3    H225946   4.811   2.873   1.897  1.6837 -1.3242 -1.6365
 1511TIP3   OH225947   5.424   3.741   4.182 -0.3020 -0.3782  0.5767
 1511TIP3    H125948   5.380   3.825   4.189  0.1740 -0.1306  0.6100
 1511TIP3    H225949   5.408   3.699   4.267  0.4766  0.1812  1.0110
 1512TIP3   OH225950   3.381   0.306   2.553 -0.2247  0.9065 -0.1457
 1512TIP3    H125951   3.456   0.250   2.531  0.2876  2.4331 -2.6810
 1512TIP3    H225952   3.315   0.245   2.585  1.0408 -0.8956 -0.7808
 1513TIP3   OH225953   3.503   1.325   2.458  0.2632 -0.0180  0.5111
 1513TIP3    H125954   3.553   1.246   2.475  0.8024  0.0912 -0.4699
 1513TIP3    H225955   3.503   1.334   2.363 -1.9228 -0.2011  0.4299
 1514TIP3   OH225956   3.986   4.340   6.051  0.4054 -0.1166  0.7154
 1514TIP3    H125957   4.079   4.327   6.068  0.3463 -0.2844  0.9122
 1514TIP3    H225958   3.962   4.417   6.102 -0.0324 -1.2891  2.3508
 1515TIP3   OH225959   3.647   5.997  11.998 -0.7479 -0.3742  0.5906
 1515TIP3    H125960   3.677   6.085  12.022  0.7225 -0.7003  0.0333
 1515TIP3    H225961   3.686   5.940  12.064  0.7380 -0.9183 -0.7213
 1516TIP3   OH225962   2.810   2.899  12.300 -0.0004  0.4135  0.0611
 1516TIP3    H125963   2.827   2.907  12.206  0.8577  1.0686  0.2618
 1516TIP3    H225964   2.783   2.987  12.327  3.2871  1.2365  1.0868
 1517TIP3   OH225965   4.808   0.940  15.187 -0.2461  0.1253 -0.8526
 1517TIP3    H125966   4.755   0.992  15.127  0.9125  2.1249 -0.2226
 1517TIP3    H225967   4.898   0.968  15.170  0.0927  1.2810  2.2379
 1518TIP3   OH225968   1.522   6.660  12.469 -0.1329  0.3173 -0.6985
 1518TIP3    H125969   1.482   6.578  12.499  1.4618 -0.5065 -0.7134
 1518TIP3    H225970   1.556   6.701  12.548 -1.7331  1.4622 -0.5651
 1519TIP3   OH225971   6.357   5.883   0.830  0.3429 -0.2192 -0.2905
 1519TIP3    H125972   6.319   5.797   0.848  0.3210 -0.2261 -0.3704
 1519TIP3    H225973   6.284   5.944   0.839  0.4649 -0.1475  0.2867
 1520TIP3   OH225974   1.358   1.318  14.462  0.6736 -0.4230 -0.6373
 1520TIP3    H125975   1.439   1.345  14.419  1.7875 -0.7006  1.1742
 1520TIP3    H225976   1.308   1.399  14.471  1.1054 -0.1038 -1.0385
 1521TIP3   OH225977   5.342   5.945   2.735 -0.0890 -0.3846 -0.1304
 1521TIP3    H125978   5.310   5.991   2.813  2.1425  1.6520 -0.2905
 1521TIP3    H225979   5.356   6.015   2.670  2.1863 -1.4200 -0.8630
 1522TIP3   OH225980   1.264   1.327  16.513  0.2327  0.9564 -0.4003
 1522TIP3    H125981   1.266   1.418  16.544 -0.7841  0.9686 -0.3376
 1522TIP3    H225982   1.204   1.328  16.439 -0.4950  0.1776  0.1534
 1523TIP3   OH225983   6.626   5.544   2.442 -0.0289 -0.3210 -0.1454
 1523TIP3    H125984   6.717   5.563   2.465 -0.1832  0.4601 -0.1720
 1523TIP3    H225985   6.626   5.538   2.346 -0.0327 -0.2187 -0.1509
 1524TIP3   OH225986   5.570   3.688  14.645 -0.2274  0.0507  0.2002
 1524TIP3    H125987   5.481   3.673  14.615  0.3513  0.6660 -1.9605
 1524TIP3    H225988   5.562   3.694  14.741 -2.4509 -0.0896  0.0714
 1525TIP3   OH225989   4.350   4.452   3.109  0.1396 -0.0973  0.0531
 1525TIP3    H125990   4.414   4.519   3.133 -0.5210  0.1763  1.1622
 1525TIP3    H225991   4.402   4.379   3.077  0.8606  1.1102 -1.6766
 1526TIP3   OH225992   1.678   4.473  16.061  0.5593  0.7479 -0.6680
 1526TIP3    H125993   1.703   4.482  16.153 -1.0001  0.5321 -0.1909
 1526TIP3    H225994   1.713   4.552  16.019 -3.0637  3.6760  1.1604
 1527TIP3   OH225995   6.810   4.743   4.608 -0.1817 -0.5218 -0.3301
 1527TIP3    H125996   6.789   4.833   4.635  0.7134 -0.0041 -1.3188
 1527TIP3    H225997   6.819   4.747   4.513 -0.9220 -1.8405 -0.4873
 1528TIP3   OH225998   5.882   4.284  11.023  0.9064 -1.0136 -0.5082
 1528TIP3    H125999   5.974   4.292  11.048  0.7104  1.6229 -0.4164
 1528TIP3    H226000   5.863   4.363  10.974 -1.2820 -1.6020 -0.7228
 1529TIP3   OH226001   2.527   4.653  17.095 -0.1668 -0.1427 -0.1650
 1529TIP3    H126002   2.606   4.604  17.072  0.0705  0.5843 -0.9958
 1529TIP3    H226003   2.522   4.649  17.190  0.6397 -0.5559 -0.1334
 1530TIP3   OH226004   0.147   6.395  13.111 -0.1182  0.9612  0.0351
 1530TIP3    H126005   0.240   6.416  13.098 -0.1133  1.2722  0.5595
 1530TIP3    H226006   0.147   6.301  13.131  0.1591  1.1110  0.7711
 1531TIP3   OH226007   3.525   2.426   4.563 -0.4729 -0.7936  0.1829
 1531TIP3    H126008   3.438   2.468   4.562 -0.5146 -0.7674 -3.0099
 1531TIP3    H226009   3.581   2.489   4.607 -1.2868  1.0153 -1.2686
 1532TIP3   OH226010   5.861   2.816   3.103  0.0045  0.2206  0.3345
 1532TIP3    H126011   5.797   2.886   3.116 -1.5263 -1.0372 -0.0333
 1532TIP3    H226012   5.893   2.830   3.014  0.8770  1.3266  0.7989
 1533TIP3   OH226013   5.218   6.220   4.657  0.0271  0.5036 -0.4623
 1533TIP3    H126014   5.200   6.126   4.667 -2.1247  0.6944 -1.8007
 1533TIP3    H226015   5.297   6.224   4.604 -0.7708 -0.6336 -1.8202
 1534TIP3   OH226016   6.192   1.844   1.927 -0.6350 -0.1076  0.1178
 1534TIP3    H126017   6.107   1.856   1.884 -0.6941 -3.0424 -0.7659
 1534TIP3    H226018   6.223   1.759   1.897  1.3808 -0.3492  2.5330
 1535TIP3   OH226019   0.655   3.334  16.641 -0.0575 -0.4009  0.3765
 1535TIP3    H126020   0.684   3.275  16.572  0.3230 -1.6187  1.5360
 1535TIP3    H226021   0.670   3.286  16.722 -0.8168  0.8472  1.3038
 1536TIP3   OH226022   2.221   0.160   0.866 -0.0799  0.3316 -0.3354
 1536TIP3    H126023   2.310   0.151   0.834 -0.1787 -0.4863 -0.3923
 1536TIP3    H226024   2.230   0.175   0.960  0.1927  2.3270 -0.6247
 1537TIP3   OH226025   0.587   1.785  12.513 -0.1499 -0.1757  0.0395
 1537TIP3    H126026   0.503   1.787  12.468  0.0292  2.0162 -0.3057
 1537TIP3    H226027   0.566   1.794  12.605 -0.3136  1.5547 -0.1246
 1538TIP3   OH226028   6.298   6.689  12.828 -0.1046 -0.4881 -0.0567
 1538TIP3    H126029   6.316   6.668  12.920  0.5158 -1.1210 -0.3162
 1538TIP3    H226030   6.367   6.645  12.779  0.1059  0.6013 -0.7715
 1539TIP3   OH226031   0.120   2.834  12.821 -0.1826 -0.3625 -0.4671
 1539TIP3    H126032   0.128   2.770  12.892  0.9720 -0.2147 -0.4412
 1539TIP3    H226033   0.035   2.875  12.835  0.8720  1.1594  2.1350
 1540TIP3   OH226034   4.970   6.616  13.619 -0.7537  0.5206 -0.3843
 1540TIP3    H126035   4.921   6.606  13.538 -1.1699 -0.9444  0.0127
 1540TIP3    H226036   5.038   6.548  13.616 -1.6762 -0.5430  1.0824
 1541TIP3   OH226037   0.578   2.292  14.616 -0.0411  0.4194  0.5022
 1541TIP3    H126038   0.651   2.256  14.666  0.2831  2.1789  1.3553
 1541TIP3    H226039   0.579   2.386  14.635 -0.7984  0.9304 -1.6951
 1542TIP3   OH226040   4.021   0.563   3.383  0.0241  0.0316 -0.5103
 1542TIP3    H126041   4.112   0.532   3.381 -0.4848 -1.6233 -2.6298
 1542TIP3    H226042   4.012   0.615   3.303 -0.9955 -0.1743 -0.5363
 1543TIP3   OH226043   6.319   4.020  13.480  0.3539 -0.3340 -0.2412
 1543TIP3    H126044   6.324   3.931  13.446  0.6690  0.1419 -1.5333
 1543TIP3    H226045   6.408   4.054  13.471  0.0666  0.3713 -0.5376
 1544TIP3   OH226046   2.525   3.735  14.959  0.2887 -0.7424 -0.7613
 1544TIP3    H126047   2.559   3.809  15.009 -1.8578 -1.2625  1.6534
 1544TIP3    H226048   2.590   3.666  14.972  0.8944 -0.1666 -0.6494
 1545TIP3   OH226049   5.026   2.779  13.289  0.5201 -0.3133  0.3974
 1545TIP3    H126050   4.988   2.832  13.219  0.0742  1.2224  1.7406
 1545TIP3    H226051   5.112   2.819  13.304  0.8446 -0.9892  0.3483
 1546TIP3   OH226052   1.251   6.367   0.070  0.0868  0.0120 -0.2869
 1546TIP3    H126053   1.169   6.409   0.044 -0.4717  0.3655  1.8892
 1546TIP3    H226054   1.319   6.429   0.044 -0.5550  1.0837  0.5072
 1547TIP3   OH226055   6.033   1.338  15.327  0.1576  0.0285  0.0262
 1547TIP3    H126056   6.101   1.280  15.294 -1.6151 -2.2537  0.0946
 1547TIP3    H226057   6.053   1.348  15.420  1.9123  1.7344 -0.4698
 1548TIP3   OH226058   5.620   4.951  13.161  0.2235  0.6130  0.0756
 1548TIP3    H126059   5.715   4.938  13.166  0.4098  2.1478  1.8348
 1548TIP3    H226060   5.583   4.870  13.198  0.9235  0.6138  0.8155
 1549TIP3   OH226061   5.726   0.953  15.000  0.0874  0.1951 -0.4718
 1549TIP3    H126062   5.710   1.037  14.957  0.2456 -0.0297 -0.9831
 1549TIP3    H226063   5.760   0.897  14.930  2.1407  0.3474  0.3332
 1550TIP3   OH226064   6.361   0.132  13.741  0.3593  0.3205 -0.6069
 1550TIP3    H126065   6.309   0.105  13.817 -0.2100  2.1820 -0.2844
 1550TIP3    H226066   6.448   0.093  13.756 -0.1700 -0.5846  0.2132
 1551TIP3   OH226067   2.961   0.817  16.572  0.1032  0.2006 -0.3437
 1551TIP3    H126068   2.886   0.816  16.512 -0.7152 -0.3681  0.6500
 1551TIP3    H226069   3.022   0.753  16.535  0.8841  1.8502 -2.0678
 1552TIP3   OH226070   0.148   4.042   1.493  0.4662  0.1086 -0.3171
 1552TIP3    H126071   0.189   3.962   1.527  0.6797 -0.2412 -1.3518
 1552TIP3    H226072   0.091   4.072   1.563  0.2630 -1.0529  0.0306
 1553TIP3   OH226073   3.472   2.299   5.611 -0.7888  0.0712 -0.6335
 1553TIP3    H126074   3.404   2.273   5.548  0.3341  0.0434 -1.8599
 1553TIP3    H226075   3.442   2.385   5.643 -0.9691  0.4794 -1.8348
 1554TIP3   OH226076   0.400   1.291  13.994  0.4910 -0.1365 -0.4661
 1554TIP3    H126077   0.454   1.366  14.020  1.5898 -0.6687 -1.1159
 1554TIP3    H226078   0.459   1.237  13.941 -0.2219 -1.5440  0.1333
 1555TIP3   OH226079   4.621   2.907   0.578  0.0214 -0.1029 -0.3187
 1555TIP3    H126080   4.654   2.820   0.601 -2.0947 -1.5486 -2.3292
 1555TIP3    H226081   4.526   2.900   0.588 -0.3017  1.5599 -1.7760
 1556TIP3   OH226082   5.353   6.018   3.560  0.9027  0.1819  0.0586
 1556TIP3    H126083   5.397   6.097   3.592  0.3448  0.1947  0.8424
 1556TIP3    H226084   5.325   5.973   3.640 -1.8184  0.9336 -0.3810
 1557TIP3   OH226085   1.291   0.668   4.346  0.1591  0.1167 -0.1800
 1557TIP3    H126086   1.268   0.701   4.433 -0.8663  0.7682 -0.6817
 1557TIP3    H226087   1.270   0.574   4.350  1.4816 -0.1804  0.7082
 1558TIP3   OH226088   2.623   4.589  14.108 -0.3119  0.1513  0.6487
 1558TIP3    H126089   2.679   4.664  14.090  0.5789 -0.0647  2.2822
 1558TIP3    H226090   2.676   4.513  14.088 -1.3036 -0.0882 -1.2547
 1559TIP3   OH226091   4.647   0.730   2.754  0.3599 -0.3184 -0.0163
 1559TIP3    H126092   4.730   0.685   2.769 -0.1293 -1.6220 -0.9669
 1559TIP3    H226093   4.671   0.813   2.712  1.1503 -2.0668 -3.4561
 1560TIP3   OH226094   0.648   4.985  16.800 -0.0239  0.2310 -0.4578
 1560TIP3    H126095   0.613   5.061  16.753 -1.5107  1.1604  1.9869
 1560TIP3    H226096   0.733   5.014  16.832  0.1344  0.2676 -0.9007
 1561TIP3   OH226097   6.013   5.761  13.536  0.2005  0.0406 -0.5180
 1561TIP3    H126098   6.025   5.753  13.631  1.5033 -0.8870 -0.7404
 1561TIP3    H226099   5.918   5.773  13.525 -0.2680 -2.0103  0.7721
 1562TIP3   OH226100   3.257   4.397  14.287 -0.2645  0.4391 -0.6831
 1562TIP3    H126101   3.168   4.406  14.322 -0.9468 -0.3745 -2.1148
 1562TIP3    H226102   3.247   4.338  14.212  1.3043  1.2675 -1.5851
 1563TIP3   OH226103   6.331   1.156  13.494  0.1242  0.2485 -0.0415
 1563TIP3    H126104   6.256   1.194  13.447  0.2958  0.8760  0.1911
 1563TIP3    H226105   6.313   1.062  13.494  0.0115  0.2454 -1.1857
 1564TIP3   OH226106   5.180   4.968  14.595 -0.0661  0.0109  0.1577
 1564TIP3    H126107   5.178   4.896  14.658 -1.7846 -1.3986 -1.3630
 1564TIP3    H226108   5.264   4.960  14.551 -1.4628 -3.4299 -2.3653
 1565TIP3   OH226109   6.572   4.542  14.690 -0.0668 -0.4507 -0.4791
 1565TIP3    H126110   6.581   4.447  14.703 -1.9950 -0.6968 -0.7074
 1565TIP3    H226111   6.484   4.562  14.721  1.0683  1.6858  1.6693
 1566TIP3   OH226112   0.977   2.988   3.296 -0.1933  0.3687  0.4288
 1566TIP3    H126113   0.970   2.969   3.389 -0.8399  1.2512  0.5652
 1566TIP3    H226114   1.020   3.074   3.292  2.7309 -0.9811 -0.1744
 1567TIP3   OH226115   5.257   0.891  12.892  0.4152 -0.2340 -0.1132
 1567TIP3    H126116   5.204   0.916  12.816 -0.1497  0.4704  0.5034
 1567TIP3    H226117   5.319   0.827  12.857  0.4845  0.4418 -1.2707
 1568TIP3   OH226118   0.985   2.442   4.391  0.3193  1.0218 -0.3487
 1568TIP3    H126119   1.080   2.428   4.387  0.3472 -1.2798  3.5164
 1568TIP3    H226120   0.973   2.494   4.471 -1.7448 -2.4172  1.8409
 1569TIP3   OH226121   1.174   4.431   3.674 -0.6251 -0.2626  0.4598
 1569TIP3    H126122   1.167   4.524   3.696 -0.4384 -0.3511  0.8978
 1569TIP3    H226123   1.192   4.387   3.757 -0.0865 -0.6171  0.1672
 1570TIP3   OH226124   1.780   3.998  17.030  0.3748  0.0722  0.3595
 1570TIP3    H126125   1.790   4.091  17.050 -1.3318 -0.1219  2.4136
 1570TIP3    H226126   1.863   3.959  17.056  1.4889  1.1103 -1.4530
 1571TIP3   OH226127   6.717   4.480   5.912  0.3733  0.5070  0.2516
 1571TIP3    H126128   6.643   4.421   5.897  1.1594 -0.1120 -1.4869
 1571TIP3    H226129   6.791   4.421   5.931  0.4588  1.1170  2.0249
 1572TIP3   OH226130   3.734   2.721  13.678  0.6418 -0.0090 -0.2765
 1572TIP3    H126131   3.713   2.644  13.625  1.0612 -0.4905  0.2507
 1572TIP3    H226132   3.649   2.753  13.708  0.5738 -2.4662  2.6085
 1573TIP3   OH226133   0.301   1.082  13.443 -0.2888  0.2216 -0.0171
 1573TIP3    H126134   0.350   1.110  13.520 -0.6473 -2.3022  1.2239
 1573TIP3    H226135   0.358   1.019  13.400 -0.7090  0.4989 -1.0055
 1574TIP3   OH226136   4.059   5.373  15.366  0.6713 -0.4260  0.4076
 1574TIP3    H126137   4.127   5.348  15.304 -0.2725 -0.7954 -0.5038
 1574TIP3    H226138   4.104   5.428  15.431  1.4510  0.8967 -1.1949
 1575TIP3   OH226139   4.179   1.556   1.656 -0.0330 -0.5404  0.0938
 1575TIP3    H126140   4.138   1.603   1.729 -1.4850 -2.4069  0.5667
 1575TIP3    H226141   4.124   1.479   1.644  0.8475 -0.8707 -2.2518
 1576TIP3   OH226142   5.377   1.012  12.042 -0.2337  0.2272  0.3510
 1576TIP3    H126143   5.390   0.946  12.110 -2.2064  0.1094  0.6807
 1576TIP3    H226144   5.398   0.968  11.960 -0.5588 -0.5029  0.6534
 1577TIP3   OH226145   0.004   1.072  16.538 -0.0127 -0.9035 -0.2065
 1577TIP3    H126146  -0.029   1.069  16.628  0.4775  0.5668  0.0496
 1577TIP3    H226147  -0.075   1.063  16.483 -0.8002  1.5004  0.3938
 1578TIP3   OH226148   0.793   6.307  14.429  0.2459 -0.0450  0.0704
 1578TIP3    H126149   0.800   6.397  14.397  1.3670 -1.3148 -3.7534
 1578TIP3    H226150   0.699   6.291  14.435 -0.0646  0.5042 -2.3004
 1579TIP3   OH226151   1.994   2.499   1.203 -0.3320 -0.0795  0.2061
 1579TIP3    H126152   2.012   2.559   1.130  2.2852 -0.2697  0.6006
 1579TIP3    H226153   2.041   2.419   1.180 -0.7862 -0.6980  1.3653
 1580TIP3   OH226154   2.902   2.129   5.167  0.1793 -0.0199  1.0058
 1580TIP3    H126155   2.850   2.056   5.133  0.9049  0.0763 -0.3788
 1580TIP3    H226156   2.837   2.195   5.192 -0.4151 -0.3376  0.3436
 1581TIP3   OH226157   4.868   2.554   2.820  0.3076  0.3131 -0.0647
 1581TIP3    H126158   4.854   2.619   2.889 -1.9147  0.1076 -0.2537
 1581TIP3    H226159   4.941   2.589   2.768  2.9236 -0.1256  3.0209
 1582TIP3   OH226160   3.052   2.608   5.042 -0.2654  0.0894 -0.3282
 1582TIP3    H126161   3.076   2.575   5.129  1.3948  2.2289  0.1139
 1582TIP3    H226162   3.052   2.531   4.986  2.3609 -0.8612  0.8191
 1583TIP3   OH226163   1.816   2.679  14.560 -0.6257 -0.3256  0.0546
 1583TIP3    H126164   1.738   2.735  14.552  0.4083  1.0865 -0.6948
 1583TIP3    H226165   1.826   2.665  14.655 -0.9650  0.7061  0.2553
 1584TIP3   OH226166   0.065   0.921  11.048 -0.2323  0.1483 -0.5634
 1584TIP3    H126167   0.116   1.002  11.039  1.4987 -0.7673  0.5572
 1584TIP3    H226168   0.123   0.853  11.015 -1.3658 -0.7669 -0.7205
 1585TIP3   OH226169   4.133   1.453  11.708  0.0324 -0.6219  0.0462
 1585TIP3    H126170   4.171   1.442  11.621  0.9307 -2.2228  0.5959
 1585TIP3    H226171   4.209   1.467  11.765 -0.4097 -1.2480  0.8041
 1586TIP3   OH226172   2.048   1.731  13.619 -0.2111  0.5101  0.0070
 1586TIP3    H126173   2.057   1.824  13.642 -0.4111  0.8459 -1.2307
 1586TIP3    H226174   2.135   1.694  13.637  0.6221  1.4657 -1.7795
 1587TIP3   OH226175   6.319   1.370  16.710 -0.6054 -0.2634 -0.3306
 1587TIP3    H126176   6.228   1.397  16.723 -1.0830 -1.9475  0.0056
 1587TIP3    H226177   6.354   1.435  16.649 -0.2006  4.0789  3.9154
 1588TIP3   OH226178   2.249   0.263   5.328  0.3364  0.1834  0.2179
 1588TIP3    H126179   2.190   0.337   5.342 -0.9845 -0.7816 -0.1723
 1588TIP3    H226180   2.263   0.227   5.416  1.5656  1.2781  0.5187
 1589TIP3   OH226181   0.003   0.027   5.029  0.0993  0.0039 -0.2728
 1589TIP3    H126182   0.009   0.084   5.106  0.9273  1.6061 -1.4724
 1589TIP3    H226183  -0.018   0.086   4.957  1.7433 -1.0703 -1.7165
 1590TIP3   OH226184   5.356   3.710   5.063 -0.3880  0.0157  0.0978
 1590TIP3    H126185   5.291   3.666   5.119 -0.2126  0.0296  0.3152
 1590TIP3    H226186   5.322   3.799   5.053 -1.6407 -0.6275 -1.7632
 1591TIP3   OH226187   0.929   0.470   1.773 -0.0628  0.3998 -0.1552
 1591TIP3    H126188   0.860   0.484   1.708  1.1277  0.4590 -1.4521
 1591TIP3    H226189   0.899   0.395   1.824 -2.6971  2.4444  1.5748
 1592TIP3   OH226190   3.761   6.369   6.254 -0.6554 -0.4512  0.3518
 1592TIP3    H126191   3.761   6.417   6.337  0.3574  1.2406 -0.5998
 1592TIP3    H226192   3.717   6.427   6.192 -1.9811 -1.9644 -0.1907
 1593TIP3   OH226193   2.107   5.873  13.650  0.6123  0.2779 -0.5899
 1593TIP3    H126194   2.134   5.870  13.742 -0.4783 -0.7951 -0.2646
 1593TIP3    H226195   2.123   5.963  13.623 -0.6184  1.0838  1.1624
 1594TIP3   OH226196   1.389   3.083   6.437 -0.1628 -0.1493  0.5039
 1594TIP3    H126197   1.347   3.043   6.514 -0.9436  0.1566  0.2374
 1594TIP3    H226198   1.400   3.175   6.461  0.4605 -0.2475  0.6112
 1595TIP3   OH226199   6.518   4.787   2.181  0.4223  0.2804 -0.0706
 1595TIP3    H126200   6.588   4.851   2.168 -0.5247  1.1387 -1.2780
 1595TIP3    H226201   6.438   4.840   2.182 -0.3281 -0.8192 -0.2504
 1596TIP3   OH226202   4.903   0.822   0.168  0.5019 -0.3270 -0.2002
 1596TIP3    H126203   4.829   0.880   0.188  1.1667 -0.4335  3.1567
 1596TIP3    H226204   4.908   0.821   0.072 -3.2789  0.3459 -0.5537
 1597TIP3   OH226205   3.053   4.575   0.358  0.1615 -0.2238  0.1012
 1597TIP3    H126206   3.127   4.521   0.383  1.9227  1.0243 -2.1091
 1597TIP3    H226207   2.979   4.515   0.354  1.6007 -2.0406 -0.2268
 1598TIP3   OH226208   5.247   0.729  14.839  0.3795  0.2760 -0.0607
 1598TIP3    H126209   5.264   0.773  14.923  0.0221 -0.6312  0.5006
 1598TIP3    H226210   5.334   0.705  14.807  0.4404 -1.5845  1.2956
 1599TIP3   OH226211   2.517   3.998   5.520  0.5383 -0.6779 -0.1458
 1599TIP3    H126212   2.504   4.008   5.426  0.2028 -1.3102 -0.1733
 1599TIP3    H226213   2.600   3.950   5.528  1.0642  0.2277 -0.0834
 1600TIP3   OH226214   1.133   0.495  12.672 -0.2453  0.7818  0.2143
 1600TIP3    H126215   1.159   0.585  12.690  4.7407 -0.9862  4.5682
 1600TIP3    H226216   1.187   0.469  12.597  0.9401  0.6173  1.0949
 1601TIP3   OH226217   2.973   3.370  12.951  0.0189 -0.3049  0.2438
 1601TIP3    H126218   2.994   3.404  13.039  0.5777 -0.7134  0.2708
 1601TIP3    H226219   3.046   3.312  12.930 -0.1982 -0.3385 -0.4263
 1602TIP3   OH226220   1.400   6.397   5.550  0.2716 -0.3414 -0.0108
 1602TIP3    H126221   1.378   6.318   5.500  2.5955 -1.1278  0.1166
 1602TIP3    H226222   1.467   6.368   5.612 -0.1970  1.3501  1.3560
 1603TIP3   OH226223   1.438   2.530   1.851 -0.4115  0.3300  0.3930
 1603TIP3    H126224   1.390   2.610   1.830  0.5286  1.3496  1.8860
 1603TIP3    H226225   1.411   2.509   1.941 -1.5115 -1.7170 -0.3621
 1604TIP3   OH226226   3.181   6.405   4.307 -0.0950  0.3283  0.4046
 1604TIP3    H126227   3.115   6.472   4.290  0.1667  0.7266  0.9329
 1604TIP3    H226228   3.154   6.330   4.253 -0.0266  1.0716 -0.7043
 1605TIP3   OH226229   2.173   3.735  11.906  0.0163 -0.6847 -0.1347
 1605TIP3    H126230   2.207   3.825  11.898 -0.0483 -0.7225 -1.0208
 1605TIP3    H226231   2.089   3.745  11.950  0.6459 -0.4658  1.0407
 1606TIP3   OH226232   6.433   4.334  14.917 -0.2992 -0.5284 -0.2224
 1606TIP3    H126233   6.349   4.345  14.872 -1.4893  2.3441  2.3142
 1606TIP3    H226234   6.414   4.270  14.986 -0.5024  0.2148  0.4300
 1607TIP3   OH226235   4.575   1.350  14.141 -0.2290 -0.1816 -0.2596
 1607TIP3    H126236   4.547   1.394  14.061  0.6941  0.1510 -0.4092
 1607TIP3    H226237   4.501   1.361  14.201 -1.2837 -1.1800 -1.3311
 1608TIP3   OH226238   4.560   1.065   4.681 -0.2887 -0.7814  0.4577
 1608TIP3    H126239   4.625   0.995   4.684 -0.0206 -0.5260  0.6536
 1608TIP3    H226240   4.611   1.145   4.674 -0.5688 -0.5502  0.9961
 1609TIP3   OH226241   3.337   4.646   2.560  0.2142 -0.2369 -0.1303
 1609TIP3    H126242   3.347   4.562   2.515  0.8659  0.4281 -1.2779
 1609TIP3    H226243   3.371   4.630   2.648 -1.6724 -1.7357  0.4034
 1610TIP3   OH226244   6.787   2.557  10.967 -0.3548 -0.0972 -0.1943
 1610TIP3    H126245   6.859   2.554  10.904 -0.2858 -1.2347 -0.0898
 1610TIP3    H226246   6.808   2.630  11.025  0.5509 -0.2242 -0.3517
 1611TIP3   OH226247   1.262   6.805  14.930  0.5740  0.0554  0.1918
 1611TIP3    H126248   1.323   6.842  14.994  0.9607 -0.8418  0.3467
 1611TIP3    H226249   1.285   6.849  14.848  1.4489 -0.2796  0.2425
 1612TIP3   OH226250   2.525   6.778   5.340  0.0013 -0.5665  0.4299
 1612TIP3    H126251   2.472   6.817   5.410 -0.3624  1.7978 -1.0444
 1612TIP3    H226252   2.462   6.765   5.268  0.7686 -0.9009 -0.1889
 1613TIP3   OH226253   4.815   3.849  13.535 -0.2513 -0.1160  0.1739
 1613TIP3    H126254   4.855   3.932  13.562 -2.2418  0.8264  0.3988
 1613TIP3    H226255   4.823   3.848  13.439  1.0105 -0.3475  0.2713
 1614TIP3   OH226256   2.182   3.636   3.288  0.1425 -0.2403  0.0202
 1614TIP3    H126257   2.106   3.657   3.343  0.9850  0.3141  0.9898
 1614TIP3    H226258   2.250   3.696   3.316  0.9081 -0.6196 -0.9607
 1615TIP3   OH226259   2.425   1.704   3.456  0.2189 -0.1893  0.0113
 1615TIP3    H126260   2.495   1.769   3.464 -0.4308  0.4355  0.8940
 1615TIP3    H226261   2.377   1.710   3.539  0.1099 -1.7826  0.0949
 1616TIP3   OH226262   1.703   6.632   4.830 -0.4398  0.1367 -0.0592
 1616TIP3    H126263   1.684   6.541   4.856  0.9912 -0.4083 -0.7959
 1616TIP3    H226264   1.786   6.652   4.874  0.9556 -0.0908 -2.4317
 1617TIP3   OH226265   3.704   4.668   1.461  0.3806  0.3891  0.6386
 1617TIP3    H126266   3.746   4.582   1.453 -0.4701  0.0127  0.0982
 1617TIP3    H226267   3.611   4.651   1.447  0.4283  1.7185 -1.7670
 1618TIP3   OH226268   3.321   3.409  16.344  0.0486  0.3852  0.0508
 1618TIP3    H126269   3.286   3.331  16.301  2.7900 -0.7444 -0.3196
 1618TIP3    H226270   3.311   3.392  16.438 -0.9241  0.3768 -0.0500
 1619TIP3   OH226271   0.251   4.430   1.856 -0.0776  0.3520  0.2435
 1619TIP3    H126272   0.271   4.344   1.893  0.0215  1.5786  3.3821
 1619TIP3    H226273   0.313   4.441   1.784  0.8429 -1.6175  0.6750
 1620TIP3   OH226274   2.967   1.952  10.851 -0.5841 -0.2442  0.1873
 1620TIP3    H126275   2.917   1.884  10.897  0.3838 -2.0015 -1.2019
 1620TIP3    H226276   2.925   1.959  10.766  0.6684 -0.7782 -0.5024
 1621TIP3   OH226277   6.593   1.221  15.947  0.5427  0.4563 -0.5909
 1621TIP3    H126278   6.649   1.148  15.920 -0.9228 -1.2839  0.7399
 1621TIP3    H226279   6.557   1.255  15.865  0.7373 -0.7900 -1.2229
 1622TIP3   OH226280   5.135   1.256  15.917  0.0195 -0.0004 -0.1173
 1622TIP3    H126281   5.205   1.212  15.965  0.0141 -0.1345 -0.2336
 1622TIP3    H226282   5.116   1.198  15.843  1.0980  0.9521 -1.1778
 1623TIP3   OH226283   5.398   3.545   4.631 -0.6263 -0.0962 -0.5778
 1623TIP3    H126284   5.425   3.531   4.721 -0.3166 -0.7878 -0.7734
 1623TIP3    H226285   5.441   3.475   4.582  0.2849  1.0504 -1.4664
 1624TIP3   OH226286   1.184   4.385  16.142 -0.4159  0.0979 -0.1422
 1624TIP3    H126287   1.228   4.300  16.134 -0.5827 -0.2521  2.0577
 1624TIP3    H226288   1.251   4.449  16.119  0.3667 -0.5547  0.2696
 1625TIP3   OH226289   6.293   3.355  16.024  0.0220  0.2234 -0.4285
 1625TIP3    H126290   6.251   3.379  15.942  1.2887  0.2903 -1.0841
 1625TIP3    H226291   6.379   3.397  16.019 -0.3384  1.3198  1.5104
 1626TIP3   OH226292   6.395   5.505  11.568 -0.4792  0.0190 -0.9626
 1626TIP3    H126293   6.342   5.521  11.645 -0.5480 -0.1630 -0.9722
 1626TIP3    H226294   6.379   5.581  11.512  0.2784  0.6068 -0.4063
 1627TIP3   OH226295   6.577   2.511   2.486 -0.0062  0.1977 -0.9455
 1627TIP3    H126296   6.549   2.563   2.561  0.5637 -0.0734 -0.5331
 1627TIP3    H226297   6.504   2.514   2.425 -0.0971  1.2410 -0.8003
 1628TIP3   OH226298   6.449   2.331  14.655 -0.2722 -0.4432  0.1150
 1628TIP3    H126299   6.412   2.268  14.718  0.9221 -0.0164  1.2935
 1628TIP3    H226300   6.509   2.279  14.602  1.2921 -0.2239  1.5835
 1629TIP3   OH226301   6.427   1.627  16.581  0.0632 -0.1607 -0.7195
 1629TIP3    H126302   6.394   1.679  16.508 -0.3133  1.1438  0.3352
 1629TIP3    H226303   6.518   1.656  16.591 -0.3045  0.7498  0.2134
 1630TIP3   OH226304   2.071   0.308   4.515 -0.3582 -0.4078 -0.1527
 1630TIP3    H126305   2.148   0.363   4.504  0.3331 -1.6201 -1.7812
 1630TIP3    H226306   2.075   0.279   4.606 -0.1312  1.2706  0.4073
 1631TIP3   OH226307   1.347   1.824   4.520  0.3484  0.2965  0.6314
 1631TIP3    H126308   1.263   1.821   4.567  0.1892  1.4882  0.4727
 1631TIP3    H226309   1.411   1.843   4.589  0.2181  1.2585  0.5112
 1632TIP3   OH226310   6.392   0.699   2.216  0.4984 -0.1495  0.2607
 1632TIP3    H126311   6.358   0.733   2.298 -1.4947  1.3161 -1.0857
 1632TIP3    H226312   6.364   0.607   2.214  0.5434 -0.1939  1.1619
 1633TIP3   OH226313   0.061   4.211   5.979 -0.0331 -0.1364  0.2541
 1633TIP3    H126314  -0.019   4.165   5.955  0.2983 -1.5174  1.6408
 1633TIP3    H226315   0.130   4.166   5.930 -0.0141  0.8047 -0.6373
 1634TIP3   OH226316   4.453   5.172  16.639 -0.2899  0.0769 -0.6520
 1634TIP3    H126317   4.412   5.258  16.639  0.7993  0.6394  0.6053
 1634TIP3    H226318   4.381   5.110  16.647 -0.9767  0.9784  0.4292
 1635TIP3   OH226319   5.501   2.965   0.713  0.1424  0.1805  0.0443
 1635TIP3    H126320   5.499   3.057   0.686 -0.3990  0.9189  2.3955
 1635TIP3    H226321   5.410   2.945   0.737  0.2740 -0.9489 -0.3487
 1636TIP3   OH226322   3.556   0.258  17.072 -0.0922 -0.9545  0.0188
 1636TIP3    H126323   3.604   0.341  17.076 -1.0048 -0.3850 -0.5447
 1636TIP3    H226324   3.583   0.219  16.989  0.6050 -1.3947  0.4484
 1637TIP3   OH226325   4.833   2.029  14.645 -0.1041  0.0978 -0.1756
 1637TIP3    H126326   4.890   2.079  14.703 -0.9581  1.2632 -0.2977
 1637TIP3    H226327   4.808   1.952  14.695  0.0476  0.5442  0.5931
 1638TIP3   OH226328   3.090   3.736   1.101 -1.0081 -0.6649  0.3627
 1638TIP3    H126329   3.056   3.664   1.049 -2.5017  1.2609 -1.5057
 1638TIP3    H226330   3.173   3.758   1.059 -0.3218 -1.5282  1.2176
 1639TIP3   OH226331   4.279   2.052  16.767  0.2526 -0.7733  0.0460
 1639TIP3    H126332   4.337   2.015  16.700 -0.4276 -1.2487 -0.2866
 1639TIP3    H226333   4.339   2.081  16.837  1.0131  0.1745 -0.9644
 1640TIP3   OH226334   2.171   1.884   4.403  0.5203  0.1579  0.2214
 1640TIP3    H126335   2.176   1.853   4.313 -2.0727  1.3820 -0.4314
 1640TIP3    H226336   2.084   1.859   4.433  0.7224  1.2011  1.8393
 1641TIP3   OH226337   5.909   0.849   1.971  0.0965 -0.2270  0.2173
 1641TIP3    H126338   5.907   0.758   2.001 -0.3675 -0.3505 -0.1780
 1641TIP3    H226339   5.973   0.849   1.900  1.1328  0.0481  1.1194
 1642TIP3   OH226340   1.172   5.021   2.673  0.1884 -0.8016  0.5027
 1642TIP3    H126341   1.155   4.970   2.594 -3.3710 -0.0644  0.6223
 1642TIP3    H226342   1.213   5.101   2.641 -0.2139 -0.9759 -0.4868
 1643TIP3   OH226343   5.463   6.366  14.624  0.4106 -0.3386 -0.0905
 1643TIP3    H126344   5.486   6.451  14.586  2.0220 -1.3590 -1.5315
 1643TIP3    H226345   5.374   6.349  14.593  1.8793 -1.4746 -4.3727
 1644TIP3   OH226346   6.439   0.039   4.108  0.7487 -0.6510 -0.1142
 1644TIP3    H126347   6.348   0.067   4.121  0.7311 -0.2297 -1.0586
 1644TIP3    H226348   6.491   0.117   4.126  0.9252 -0.8587  0.2972
 1645TIP3   OH226349   2.105   5.593   4.472 -0.2978 -0.0821  0.1970
 1645TIP3    H126350   2.195   5.566   4.452 -1.2299 -3.0471 -0.5539
 1645TIP3    H226351   2.102   5.599   4.567  0.1891 -2.3154  0.4108
 1646TIP3   OH226352   0.916   3.178   2.217  0.1063 -0.5233  0.1277
 1646TIP3    H126353   0.923   3.177   2.312 -1.2963  1.3552  0.3182
 1646TIP3    H226354   0.855   3.107   2.196 -0.5598 -0.1482  0.7595
 1647TIP3   OH226355   4.692   4.926   3.359  0.0976 -0.7153 -0.3100
 1647TIP3    H126356   4.597   4.930   3.350  0.0889  0.4911  0.1510
 1647TIP3    H226357   4.724   5.003   3.312  0.7617 -0.5390  0.4071
 1648TIP3   OH226358   6.754   1.214   2.946  0.0510  0.0408 -0.1864
 1648TIP3    H126359   6.753   1.209   2.851  0.5286  2.0194 -0.3346
 1648TIP3    H226360   6.812   1.143   2.973  2.1708  1.1434 -1.5576
 1649TIP3   OH226361   3.251   3.995  15.416  0.1266  0.6973 -0.4996
 1649TIP3    H126362   3.201   3.921  15.384 -0.6968  1.4001 -0.8900
 1649TIP3    H226363   3.198   4.031  15.488  0.3913  1.0444 -0.4722
 1650TIP3   OH226364   1.413   2.140   0.197  0.1708 -0.2257 -0.1067
 1650TIP3    H126365   1.408   2.049   0.168  0.7830 -0.6688  1.1066
 1650TIP3    H226366   1.503   2.151   0.225 -0.1433  0.4754  0.6530
 1651TIP3   OH226367   6.658   6.815   2.356 -0.1796  0.5695 -0.0851
 1651TIP3    H126368   6.660   6.803   2.261  0.5782 -0.2338  0.0197
 1651TIP3    H226369   6.716   6.747   2.390 -0.3006  0.9631  0.9451
 1652TIP3   OH226370   3.274   0.985   1.061 -0.3522 -0.4377 -0.0039
 1652TIP3    H126371   3.300   1.031   1.141 -0.6521 -1.5890  0.7756
 1652TIP3    H226372   3.348   0.999   1.001  0.6200 -0.9105  1.0330
 1653TIP3   OH226373   6.595   3.918  15.635  0.1236  0.8137 -0.0688
 1653TIP3    H126374   6.625   3.845  15.580  0.5933  0.3129  0.8448
 1653TIP3    H226375   6.502   3.927  15.613  0.2915  0.5931 -0.9154
 1654TIP3   OH226376   6.466   0.335   0.556 -0.2918  0.2326 -0.2569
 1654TIP3    H126377   6.462   0.410   0.496 -0.1194 -0.4993 -1.2142
 1654TIP3    H226378   6.527   0.275   0.514  0.1562 -0.1334  0.8774
 1655TIP3   OH226379   4.984   3.647  13.671 -0.2447 -0.0992  0.7744
 1655TIP3    H126380   4.920   3.694  13.618 -0.6284 -0.1295  1.2092
 1655TIP3    H226381   5.058   3.707  13.678 -0.0052 -0.2616 -0.1567
 1656TIP3   OH226382   5.409   6.491   6.007 -0.0116 -0.2153 -0.6290
 1656TIP3    H126383   5.497   6.525   6.018  0.3695 -1.0957 -0.8733
 1656TIP3    H226384   5.366   6.506   6.091  0.4906 -0.1180 -0.3896
 1657TIP3   OH226385   6.798   3.444  12.030 -0.3593  0.0707  0.0216
 1657TIP3    H126386   6.720   3.390  12.038  0.6985 -1.3197  1.4097
 1657TIP3    H226387   6.841   3.411  11.951 -0.4637 -0.1083  0.0377
 1658TIP3   OH226388   4.478   3.177   1.140 -0.0342  0.0597 -0.0436
 1658TIP3    H126389   4.500   3.087   1.114  0.7104  0.1070  0.3913
 1658TIP3    H226390   4.523   3.189   1.224  0.6560  1.1610 -0.5602
 1659TIP3   OH226391   0.182   2.673   0.011  0.3146 -0.0595  0.0577
 1659TIP3    H126392   0.128   2.639  -0.060  1.7127 -1.6512 -0.3330
 1659TIP3    H226393   0.147   2.631   0.090  1.2179 -1.4759 -0.2568
 1660TIP3   OH226394   6.370   1.385  13.258 -0.1563 -0.2278 -0.2588
 1660TIP3    H126395   6.375   1.480  13.243 -0.4449 -0.2735 -0.6742
 1660TIP3    H226396   6.446   1.350  13.211 -0.6816 -0.3055 -1.0714
 1661TIP3   OH226397   1.070   6.677  14.529 -0.0018 -0.1067  0.3019
 1661TIP3    H126398   0.993   6.632  14.564 -0.6559  0.9796  0.3358
 1661TIP3    H226399   1.144   6.630  14.566 -0.6670 -0.4390  1.2609
 1662TIP3   OH226400   1.810   4.661  15.005 -0.1777  0.3702 -0.1035
 1662TIP3    H126401   1.752   4.660  14.929 -1.3086  0.4453  0.7496
 1662TIP3    H226402   1.774   4.728  15.063  1.9454  1.9377 -0.4361
 1663TIP3   OH226403   6.766   6.155  13.460  0.0235 -0.2784 -0.6084
 1663TIP3    H126404   6.674   6.135  13.473  0.0607 -0.7241 -1.0067
 1663TIP3    H226405   6.768   6.211  13.383  0.0559  0.0098 -0.3993
 1664TIP3   OH226406   0.163   4.575  11.032  0.3604 -0.1624 -0.1834
 1664TIP3    H126407   0.141   4.486  11.061 -0.3199  0.0760  0.0481
 1664TIP3    H226408   0.257   4.583  11.048  0.3154 -0.6384  0.3476
 1665TIP3   OH226409   5.316   4.004   1.956 -0.1871 -0.1251 -0.1591
 1665TIP3    H126410   5.372   4.050   1.894 -1.2088 -0.1688 -1.1569
 1665TIP3    H226411   5.355   4.021   2.042  0.1865  1.5263 -0.6270
 1666TIP3   OH226412   1.078   4.869  11.101  0.0174 -0.4288  0.2312
 1666TIP3    H126413   1.160   4.854  11.148 -0.7767 -0.7663  1.5770
 1666TIP3    H226414   1.058   4.961  11.117  0.1969 -0.3082 -0.2199
 1667TIP3   OH226415   6.249   0.978  16.279  0.3279 -0.2169  0.4089
 1667TIP3    H126416   6.184   1.007  16.343 -0.4598  0.4295 -0.6588
 1667TIP3    H226417   6.289   1.059  16.246  0.5447 -0.5206 -0.0917
 1668TIP3   OH226418   6.474   6.063  12.808 -0.7346 -0.0727 -0.2231
 1668TIP3    H126419   6.521   6.057  12.725 -1.0956 -0.6270 -0.3942
 1668TIP3    H226420   6.413   6.135  12.797 -1.1657 -0.4910 -0.6449
 1669TIP3   OH226421   3.039   2.793  15.458  0.2096  0.0695  0.2582
 1669TIP3    H126422   3.043   2.887  15.441 -1.0887 -0.1264 -1.4334
 1669TIP3    H226423   3.130   2.767  15.471  0.5830  1.5627  0.8056
 1670TIP3   OH226424   3.574   6.045  12.489 -0.2466 -0.0296  0.1593
 1670TIP3    H126425   3.524   5.982  12.541  0.5471 -0.0220  0.9666
 1670TIP3    H226426   3.510   6.084  12.431 -0.8189 -1.3682 -0.1611
 1671TIP3   OH226427   2.700   1.775  12.437  0.2661 -0.3796 -0.0332
 1671TIP3    H126428   2.685   1.869  12.445  0.6643 -0.3140 -0.0121
 1671TIP3    H226429   2.781   1.760  12.486  0.1710 -0.7422  0.0139
 1672TIP3   OH226430   1.403   6.366   3.873 -0.3247 -0.1400  0.5508
 1672TIP3    H126431   1.455   6.288   3.854  0.0490  0.4063 -0.8113
 1672TIP3    H226432   1.433   6.394   3.960  0.9334 -0.4242  0.2307
 1673TIP3   OH226433   5.686   2.242   0.287 -1.0221 -0.0472  0.6706
 1673TIP3    H126434   5.730   2.233   0.372 -1.7504 -0.5423  1.0103
 1673TIP3    H226435   5.598   2.271   0.310 -1.3807 -0.6721  0.1185
 1674TIP3   OH226436   5.966   4.669   2.157  0.3232 -0.4896  0.5426
 1674TIP3    H126437   5.899   4.696   2.219 -1.6104  1.3256 -2.1225
 1674TIP3    H226438   5.982   4.577   2.178 -1.0425 -0.2820  2.9106
 1675TIP3   OH226439   2.575   1.414   0.865  0.2691 -0.2463 -0.2944
 1675TIP3    H126440   2.656   1.462   0.885  0.2836 -0.1327 -0.6132
 1675TIP3    H226441   2.536   1.396   0.950 -0.1305  1.0236 -0.1816
 1676TIP3   OH226442   4.790   0.741   1.305  0.2051 -0.1982  0.1223
 1676TIP3    H126443   4.800   0.646   1.312  2.0936 -0.0403  0.0668
 1676TIP3    H226444   4.766   0.769   1.393  0.4972 -0.6531  0.3536
 1677TIP3   OH226445   4.972   2.294  14.780  0.0850 -0.2538 -0.0257
 1677TIP3    H126446   5.042   2.347  14.819  0.0567  0.2297 -0.6059
 1677TIP3    H226447   5.015   2.212  14.755 -0.0478 -0.8612  1.6276
 1678TIP3   OH226448   0.456   6.467  13.090  0.0174 -0.5212 -0.3853
 1678TIP3    H126449   0.533   6.500  13.044 -0.0589  0.0237 -0.1313
 1678TIP3    H226450   0.445   6.526  13.165 -0.3542 -0.8912 -0.1423
 1679TIP3   OH226451   2.386   3.708   1.117  0.7686 -0.3621  0.1463
 1679TIP3    H126452   2.374   3.797   1.086  1.9307 -0.4776 -0.6979
 1679TIP3    H226453   2.312   3.693   1.176  0.0744  0.8447 -0.3780
 1680TIP3   OH226454   4.615   6.526   0.340 -0.2838  0.3473  0.4945
 1680TIP3    H126455   4.521   6.513   0.328 -0.0285 -1.4712  0.2167
 1680TIP3    H226456   4.656   6.482   0.266  0.8215  0.3009  1.0990
 1681TIP3   OH226457   0.778   3.909  16.953  0.1020 -0.1661 -0.3588
 1681TIP3    H126458   0.820   3.919  17.039  0.6444 -0.3599 -0.5973
 1681TIP3    H226459   0.847   3.931  16.890 -0.2992 -0.0008 -0.7459
 1682TIP3   OH226460   3.785   4.111   2.039  0.1964  0.3400 -0.2710
 1682TIP3    H126461   3.787   4.022   2.074 -2.0881  0.5525  0.5258
 1682TIP3    H226462   3.873   4.146   2.058  1.0932 -1.6674 -0.4990
 1683TIP3   OH226463   3.895   4.567   0.582 -0.1155  0.2787  0.5491
 1683TIP3    H126464   3.846   4.509   0.523 -0.0552  1.6466 -0.9125
 1683TIP3    H226465   3.846   4.649   0.581 -0.3226  0.2506  2.7596
 1684TIP3   OH226466   2.047   3.338   4.409  0.1843  0.2334 -0.5373
 1684TIP3    H126467   2.019   3.313   4.321  2.2849  0.4096 -1.3112
 1684TIP3    H226468   1.981   3.402   4.437 -0.9364 -0.3732 -1.6637
 1685TIP3   OH226469   2.841   3.774   5.323  0.0040  0.3324  0.4832
 1685TIP3    H126470   2.776   3.765   5.393  0.0841 -0.3790  0.4686
 1685TIP3    H226471   2.921   3.801   5.367  0.1247 -0.3737  0.7000
 1686TIP3   OH226472   5.366   1.003  16.589 -0.3960  0.1372 -0.5485
 1686TIP3    H126473   5.313   1.076  16.622  0.8558  0.5295  0.7061
 1686TIP3    H226474   5.452   1.017  16.627  0.6603 -0.4417 -2.6034
 1687TIP3   OH226475   5.155   3.235  12.772 -0.1420  0.6501  0.5381
 1687TIP3    H126476   5.145   3.140  12.757 -2.2999  0.9055 -0.0999
 1687TIP3    H226477   5.068   3.263  12.802  0.8705  2.2167  2.1648
 1688TIP3   OH226478   2.710   4.398  11.163 -0.5234  0.3777  0.6326
 1688TIP3    H126479   2.803   4.418  11.167 -0.9124  2.2684  1.3786
 1688TIP3    H226480   2.705   4.314  11.118  1.4391  0.9446 -0.7856
 1689TIP3   OH226481   2.268   2.916  16.986  0.0577 -0.7693 -0.2431
 1689TIP3    H126482   2.336   2.951  16.929  0.2494 -1.1333 -0.2457
 1689TIP3    H226483   2.316   2.878  17.060 -0.2365  0.5508  0.6493
 1690TIP3   OH226484   5.312   1.629   5.961  0.2087  0.9191 -0.1028
 1690TIP3    H126485   5.290   1.689   6.032 -0.1759  0.7965 -0.1174
 1690TIP3    H226486   5.400   1.598   5.982  0.6814  1.9792 -0.4313
 1691TIP3   OH226487   0.843   6.317  15.386  0.0474 -0.1197  0.4171
 1691TIP3    H126488   0.877   6.247  15.331  2.4981  0.5432  0.9803
 1691TIP3    H226489   0.830   6.277  15.471 -1.8856 -0.6679 -0.0834
 1692TIP3   OH226490   0.344   3.440  11.992 -0.4211 -0.0062 -0.4574
 1692TIP3    H126491   0.291   3.515  12.021  0.5506  0.7170 -0.5059
 1692TIP3    H226492   0.290   3.397  11.926 -0.8825  0.8258 -0.6417
 1693TIP3   OH226493   5.544   0.478  11.684  0.4052 -0.4909  0.4408
 1693TIP3    H126494   5.492   0.550  11.718  0.0014 -0.8303  0.5516
 1693TIP3    H226495   5.611   0.463  11.751  0.3455 -0.3722  0.5267
 1694TIP3   OH226496   1.408   5.111   3.981 -0.5307 -0.3337 -0.2010
 1694TIP3    H126497   1.408   5.204   4.003  1.3017 -0.3896  0.1684
 1694TIP3    H226498   1.397   5.108   3.886 -2.1982  0.1716 -0.0446
 1695TIP3   OH226499   2.961   3.519   5.633 -0.1917 -0.0999 -0.0660
 1695TIP3    H126500   2.980   3.606   5.597  0.7534 -0.4732 -0.4971
 1695TIP3    H226501   3.046   3.483   5.656 -0.7164 -0.0494  2.1957
 1696TIP3   OH226502   0.422   6.624   5.883 -0.2159  0.2769  0.3711
 1696TIP3    H126503   0.452   6.671   5.961  0.7716  2.7471 -1.3854
 1696TIP3    H226504   0.340   6.668   5.859  0.8926  1.4577 -1.5005
 1697TIP3   OH226505   4.074   3.763   1.695 -0.6100  0.0773  0.0045
 1697TIP3    H126506   4.063   3.686   1.640 -2.1404 -0.7675  1.4192
 1697TIP3    H226507   4.118   3.731   1.774  1.3935  1.2423 -0.5510
 1698TIP3   OH226508   2.819   5.607   1.868 -0.0955 -0.2563  0.0877
 1698TIP3    H126509   2.872   5.660   1.808 -1.0767 -0.3024 -0.8472
 1698TIP3    H226510   2.741   5.586   1.818 -0.6269 -0.8917  1.1616
 1699TIP3   OH226511   0.806   1.994   2.066 -0.1591  0.5647 -0.3248
 1699TIP3    H126512   0.888   1.993   2.016  1.3306  0.2074  1.9199
 1699TIP3    H226513   0.748   1.936   2.018  1.3125 -0.0753 -1.4209
 1700TIP3   OH226514   0.169   4.293   0.824 -0.1641  0.1501 -0.5891
 1700TIP3    H126515   0.107   4.323   0.890 -0.1451  0.9196 -0.9076
 1700TIP3    H226516   0.188   4.371   0.772 -1.6397 -0.8138 -2.7235
 1701TIP3   OH226517   2.855   1.609   2.425 -0.5541  0.4626  0.7206
 1701TIP3    H126518   2.940   1.648   2.446 -0.0502 -0.4877  0.4841
 1701TIP3    H226519   2.801   1.627   2.502  0.1910  0.1512  1.3332
 1702TIP3   OH226520   0.423   0.236   2.665  0.4292  1.1941 -0.1060
 1702TIP3    H126521   0.428   0.263   2.757 -1.0547  2.3422 -0.3207
 1702TIP3    H226522   0.330   0.242   2.643  0.3039 -1.8277 -0.9171
 1703TIP3   OH226523   0.268   0.289   1.354  0.6372  0.3454 -0.1036
 1703TIP3    H126524   0.184   0.249   1.334 -0.9552  2.9763  0.7956
 1703TIP3    H226525   0.274   0.364   1.294  3.1151 -0.6485 -1.2265
 1704TIP3   OH226526   0.714   0.092   3.595  0.2577 -0.6283  0.5229
 1704TIP3    H126527   0.726   0.018   3.655 -1.2545 -1.8406 -0.5739
 1704TIP3    H226528   0.671   0.159   3.647  0.1776 -1.1489  1.1338
 1705TIP3   OH226529   4.234   0.573  14.115 -0.4684  0.8611 -0.1828
 1705TIP3    H126530   4.258   0.611  14.199  0.7793  1.4911 -0.7969
 1705TIP3    H226531   4.216   0.481  14.134  1.7229  0.5056  0.4784
 1706TIP3   OH226532   0.393   2.169  16.736  0.3385 -0.2051  0.8055
 1706TIP3    H126533   0.388   2.246  16.792 -4.3417  1.8176 -1.8150
 1706TIP3    H226534   0.426   2.202  16.652 -1.7528 -0.8571 -0.3697
 1707TIP3   OH226535   4.652   4.708  11.773 -0.3544 -0.2247 -1.0428
 1707TIP3    H126536   4.719   4.708  11.842 -0.6592 -1.4751 -0.7349
 1707TIP3    H226537   4.682   4.775  11.711  1.5347 -1.1724 -1.2404
 1708TIP3   OH226538   5.028   0.243  16.968 -0.2547  0.3463 -0.3152
 1708TIP3    H126539   5.102   0.244  16.908 -0.0398  1.1953 -0.0522
 1708TIP3    H226540   5.060   0.197  17.045  0.1941  1.2095  0.0247
 1709TIP3   OH226541   3.611   5.238   6.037 -0.6842 -0.3753 -0.6479
 1709TIP3    H126542   3.539   5.240   6.100  0.4772 -0.0630  0.7267
 1709TIP3    H226543   3.626   5.330   6.016 -0.3231 -0.3967 -0.4865
 1710TIP3   OH226544   2.311   4.640  15.883 -0.7868  0.4884 -0.6128
 1710TIP3    H126545   2.277   4.554  15.904  1.8745 -0.4442  0.3497
 1710TIP3    H226546   2.292   4.652  15.790 -0.9991 -1.2441 -0.8157
 1711TIP3   OH226547   2.984   3.662   3.397  0.5340  0.2389  1.1321
 1711TIP3    H126548   3.055   3.683   3.336  0.5857 -3.3447 -0.3034
 1711TIP3    H226549   2.905   3.666   3.344  0.4127 -1.5462  1.1299
 1712TIP3   OH226550   6.304   4.603  14.611  0.2964  0.4978 -0.3489
 1712TIP3    H126551   6.210   4.591  14.625 -0.3773  4.7620  0.0882
 1712TIP3    H226552   6.317   4.582  14.519 -1.7193  2.3318 -1.1358
 1713TIP3   OH226553   4.861   2.483  14.596  0.1240 -0.0928  0.3021
 1713TIP3    H126554   4.796   2.538  14.640 -0.1219 -0.2682  0.1583
 1713TIP3    H226555   4.885   2.418  14.662 -1.1211 -1.0841 -0.1974
 1714TIP3   OH226556   3.197   6.027   0.013 -0.4241 -0.0203  0.5178
 1714TIP3    H126557   3.117   5.991   0.050 -0.6659  1.2600  1.2822
 1714TIP3    H226558   3.191   6.121   0.028  1.8515 -0.0244  1.8788
 1715TIP3   OH226559   0.143   5.298   4.680  0.2366  0.0510  0.0134
 1715TIP3    H126560   0.228   5.340   4.692  0.6615  0.3200 -3.2507
 1715TIP3    H226561   0.083   5.353   4.731  2.0462 -0.9538  3.6144
 1716TIP3   OH226562   0.137   6.799  11.199  0.5058  0.0898  0.2752
 1716TIP3    H126563   0.203   6.859  11.233  0.1316 -0.3105  1.7545
 1716TIP3    H226564   0.069   6.796  11.266 -1.0265  0.4454 -1.1900
 1717TIP3   OH226565   2.497   0.423   4.225 -0.5591  0.4612 -0.0846
 1717TIP3    H126566   2.570   0.477   4.254 -0.8865  0.6623  0.3741
 1717TIP3    H226567   2.482   0.449   4.134  0.3616 -0.0488 -0.3944
 1718TIP3   OH226568   2.096   0.154  13.570  0.0047 -0.3977  0.3106
 1718TIP3    H126569   2.066   0.063  13.580 -0.6673 -0.2467 -0.1937
 1718TIP3    H226570   2.184   0.146  13.533 -0.8808 -0.8644 -1.8917
 1719TIP3   OH226571   4.713   3.339  14.800 -0.2185  0.0226 -0.3155
 1719TIP3    H126572   4.741   3.256  14.762  0.7754  0.8067 -1.3540
 1719TIP3    H226573   4.793   3.390  14.808 -0.7937  0.8482  0.4473
 1720TIP3   OH226574   1.064   1.835  13.051  0.0499  0.6759 -0.2065
 1720TIP3    H126575   1.122   1.792  12.988 -0.4959 -1.0953  0.4383
 1720TIP3    H226576   0.977   1.828  13.012 -0.4240 -1.2056  1.0524
 1721TIP3   OH226577   6.063   6.288  15.490  0.5214 -0.2143 -0.4917
 1721TIP3    H126578   6.081   6.242  15.572 -1.1908 -0.5914 -0.2858
 1721TIP3    H226579   6.069   6.221  15.422  1.3848 -0.0163 -0.6226
 1722TIP3   OH226580   4.567   4.108  13.575  0.1366  0.5911 -0.9483
 1722TIP3    H126581   4.591   4.201  13.581 -0.2929  0.6053  2.1133
 1722TIP3    H226582   4.645   4.061  13.606 -0.9480  0.2075  1.3597
 1723TIP3   OH226583   6.173   0.423  12.545 -0.4905  0.4746  0.0161
 1723TIP3    H126584   6.251   0.477  12.553 -0.4883  0.4033  0.4715
 1723TIP3    H226585   6.187   0.351  12.606 -0.1949 -0.4076 -1.0409
 1724TIP3   OH226586   1.130   3.206   3.243  0.5094 -0.2342  0.0503
 1724TIP3    H126587   1.082   3.287   3.229  1.1802  0.1141 -0.2695
 1724TIP3    H226588   1.217   3.223   3.207 -0.0601 -1.9254 -2.3834
 1725TIP3   OH226589   5.089   4.568   2.615 -0.1120 -0.2239 -0.0428
 1725TIP3    H126590   5.089   4.505   2.543 -1.3613  0.1410 -0.3795
 1725TIP3    H226591   5.182   4.578   2.637  0.2373 -0.8981 -1.1029
 1726TIP3   OH226592   1.282   0.178  12.582 -0.2080 -0.0426 -0.2589
 1726TIP3    H126593   1.224   0.168  12.657  0.2698 -0.6041  0.0433
 1726TIP3    H226594   1.286   0.090  12.543 -0.7711  0.3211 -1.1859
 1727TIP3   OH226595   2.156   5.325  13.405 -0.2300  0.0635  0.4018
 1727TIP3    H126596   2.100   5.399  13.430 -1.1933 -0.9221  1.2478
 1727TIP3    H226597   2.137   5.312  13.312 -0.4033  0.5909  0.3570
 1728TIP3   OH226598   0.839   4.648   3.663  0.3410  0.2806  0.2189
 1728TIP3    H126599   0.910   4.621   3.722 -0.4709 -0.3720  0.9151
 1728TIP3    H226600   0.775   4.577   3.669 -0.5639  1.0617 -0.0679
 1729TIP3   OH226601   0.330   4.683  11.378  0.2571 -0.7352  0.1376
 1729TIP3    H126602   0.360   4.745  11.312  0.0147 -1.7866 -0.9779
 1729TIP3    H226603   0.235   4.691  11.377  0.2831 -0.0206  1.1149
 1730TIP3   OH226604   1.063   6.389  16.589  0.3911  0.0579 -0.3967
 1730TIP3    H126605   1.092   6.300  16.607  1.9861  0.7007  0.4026
 1730TIP3    H226606   1.134   6.445  16.622 -1.0384  1.6654  0.0960
 1731TIP3   OH226607   3.453   4.368  11.831  0.3695  0.4886 -0.0977
 1731TIP3    H126608   3.406   4.397  11.752  0.8740  0.4263 -0.4234
 1731TIP3    H226609   3.493   4.448  11.865  1.4814  0.2509 -0.8078
 1732TIP3   OH226610   3.655   1.423  10.294 -0.0978  0.3452 -0.5279
 1732TIP3    H126611   3.654   1.494  10.359 -0.1838 -1.4315  1.5157
 1732TIP3    H226612   3.747   1.399  10.287  0.0632  1.2882 -2.0004
 1733TIP3   OH226613   6.746   3.876   4.706  0.5944 -0.0424 -0.0573
 1733TIP3    H126614   6.667   3.822   4.709  1.6592 -1.6900  0.2750
 1733TIP3    H226615   6.738   3.935   4.781  0.6333 -1.6902  1.3196
 1734TIP3   OH226616   4.413   6.587   2.176 -0.2489  0.2629  0.0741
 1734TIP3    H126617   4.374   6.652   2.117  0.4330  1.6774  1.1360
 1734TIP3    H226618   4.486   6.633   2.217  0.8617 -1.4923  0.1566
 1735TIP3   OH226619   1.911   6.590  15.672 -0.2115  0.0821 -0.1188
 1735TIP3    H126620   1.954   6.632  15.598 -0.4174  0.2787 -0.1243
 1735TIP3    H226621   1.969   6.607  15.746 -0.6494  0.9907  0.0253
 1736TIP3   OH226622   1.352   6.217   0.779 -0.3028  0.2001  0.1495
 1736TIP3    H126623   1.390   6.268   0.851 -0.2409 -0.1438  0.3595
 1736TIP3    H226624   1.389   6.257   0.700  0.5399 -0.1507  0.3476
 1737TIP3   OH226625   5.207   3.627  13.487 -0.0506  0.0469 -0.4113
 1737TIP3    H126626   5.118   3.611  13.518  0.4122  0.0059  0.9835
 1737TIP3    H226627   5.237   3.703  13.537  1.0822 -0.6302 -0.0158
 1738TIP3   OH226628   5.799   4.730  11.529 -0.2222 -0.1909  0.3161
 1738TIP3    H126629   5.856   4.692  11.462 -1.2383  2.3557 -2.2269
 1738TIP3    H226630   5.711   4.719  11.494 -0.6609  2.9110  0.1101
 1739TIP3   OH226631   2.753   5.344  17.054 -0.9608  0.2362 -0.0868
 1739TIP3    H126632   2.776   5.266  17.105 -0.1370 -0.3381 -1.2840
 1739TIP3    H226633   2.665   5.366  17.082 -0.8073 -0.5077  1.0347
 1740TIP3   OH226634   1.737   6.806   5.878  0.0693  0.2037 -0.8867
 1740TIP3    H126635   1.781   6.836   5.958 -0.3014 -2.1863  0.2866
 1740TIP3    H226636   1.803   6.818   5.809  0.6739  1.5634 -0.1209
 1741TIP3   OH226637   4.590   2.082   2.710 -0.6106 -0.3630  0.0626
 1741TIP3    H126638   4.575   1.995   2.674  0.2330  0.1191 -1.5546
 1741TIP3    H226639   4.535   2.141   2.658  1.3005  0.4616 -1.1334
 1742TIP3   OH226640   3.019   6.069   4.321  0.1544 -0.3098 -0.5041
 1742TIP3    H126641   3.089   6.060   4.386  0.6446 -1.8527 -1.1960
 1742TIP3    H226642   3.064   6.087   4.239 -0.3136 -0.4415 -0.7964
 1743TIP3   OH226643   5.757   3.372  11.548  0.4521 -0.1743 -0.5877
 1743TIP3    H126644   5.758   3.292  11.496  0.7025 -0.4457 -0.1720
 1743TIP3    H226645   5.824   3.358  11.615 -0.8920 -0.4782  0.7475
 1744TIP3   OH226646   5.610   3.994   1.070  0.0235 -0.0795  0.0893
 1744TIP3    H126647   5.630   3.943   0.991  0.8171 -0.5819  0.6101
 1744TIP3    H226648   5.603   3.929   1.140 -1.6426  0.2638  0.2784
 1745TIP3   OH226649   3.717   3.048   5.756  0.1433 -0.2181 -0.2274
 1745TIP3    H126650   3.759   3.127   5.788  0.9723 -0.8210  0.2290
 1745TIP3    H226651   3.784   2.980   5.765 -0.4980 -0.9377 -0.7459
 1746TIP3   OH226652   5.437   0.526   2.222  0.2688  0.3315 -0.2775
 1746TIP3    H126653   5.434   0.614   2.260 -0.3017  0.1315  0.1613
 1746TIP3    H226654   5.420   0.539   2.129  0.2163  0.6963 -0.2163
 1747TIP3   OH226655   3.946   2.334  13.562 -0.0469 -0.4671  0.0062
 1747TIP3    H126656   3.951   2.407  13.501  1.3342  1.1960  1.9620
 1747TIP3    H226657   3.853   2.330  13.586 -0.1892  0.4817 -0.3346
 1748TIP3   OH226658   0.638   3.899   1.979 -0.3650  0.6202 -0.3781
 1748TIP3    H126659   0.582   3.850   1.919 -0.6776 -0.9398  1.1274
 1748TIP3    H226660   0.594   3.894   2.063 -0.3312  3.4339 -0.0937
 1749TIP3   OH226661   0.857   1.676   2.138 -0.3590  0.0744  0.5088
 1749TIP3    H126662   0.801   1.597   2.137  0.0213 -0.2410 -1.4290
 1749TIP3    H226663   0.820   1.731   2.069  2.4779 -0.7784 -1.8995
 1750TIP3   OH226664   3.043   0.037  15.508  0.0946  0.9994 -0.1098
 1750TIP3    H126665   2.982   0.074  15.573 -0.9224  0.5760 -0.7885
 1750TIP3    H226666   3.009  -0.051  15.490  0.1698  1.2128 -1.4209
 1751TIP3   OH226667   1.934   5.717   0.644  0.1994  0.8066 -0.4760
 1751TIP3    H126668   1.869   5.672   0.697  0.6897  0.0561 -0.4928
 1751TIP3    H226669   1.889   5.794   0.610 -0.8006  0.0822 -0.8234
 1752TIP3   OH226670   5.417   5.132  15.609 -0.3553 -1.0930 -0.2848
 1752TIP3    H126671   5.416   5.037  15.598 -1.8616 -0.9474 -1.6312
 1752TIP3    H226672   5.332   5.153  15.646 -0.0979 -0.2362 -0.1552
 1753TIP3   OH226673   6.303   3.546   1.181 -0.2085  0.7556 -0.2901
 1753TIP3    H126674   6.349   3.571   1.101  2.3872 -0.3644  0.7614
 1753TIP3    H226675   6.292   3.628   1.228 -1.6771  1.4164 -1.6602
 1754TIP3   OH226676   3.765   2.133  15.886 -0.3190  0.0398 -0.1217
 1754TIP3    H126677   3.797   2.046  15.910 -0.1855 -0.2149 -1.1802
 1754TIP3    H226678   3.825   2.194  15.929 -1.0852 -0.3499  1.5790
 1755TIP3   OH226679   5.651   6.037  13.909  0.5817  0.6938 -0.3704
 1755TIP3    H126680   5.589   6.099  13.947  0.4651 -0.1087  0.7890
 1755TIP3    H226681   5.622   6.027  13.818  0.0684  1.6456 -0.3254
 1756TIP3   OH226682   5.890   3.872  10.331  0.5680  0.1401  0.1730
 1756TIP3    H126683   5.948   3.796  10.339 -1.9935 -1.8548  1.6214
 1756TIP3    H226684   5.821   3.843  10.271 -1.7027  0.3464  2.5021
 1757TIP3   OH226685   5.830   6.440   4.634  0.8881 -0.1376  0.0091
 1757TIP3    H126686   5.874   6.519   4.667  0.8381  0.1619 -0.6220
 1757TIP3    H226687   5.745   6.440   4.677  0.5744  0.5949 -0.5749
 1758TIP3   OH226688   4.292   3.170  14.899 -0.3999  0.2907  0.0329
 1758TIP3    H126689   4.349   3.094  14.904  1.1539  1.3104 -1.2577
 1758TIP3    H226690   4.289   3.192  14.806 -1.3812  1.3965  0.2962
 1759TIP3   OH226691   6.679   0.691   2.249  0.0166 -0.5137  0.3818
 1759TIP3    H126692   6.590   0.658   2.263  0.4026 -1.0652  1.6922
 1759TIP3    H226693   6.673   0.784   2.268 -0.4090 -0.4216 -0.1731
 1760TIP3   OH226694   5.299   5.045  13.004 -0.2833  0.4214 -0.3390
 1760TIP3    H126695   5.312   5.067  12.912 -0.5157 -0.8301 -0.6841
 1760TIP3    H226696   5.317   4.951  13.010  1.3613  0.7845  1.2265
 1761TIP3   OH226697   6.656   3.070  12.317 -0.4368 -0.0825  0.4870
 1761TIP3    H126698   6.701   3.075  12.400  0.3992 -0.6307  0.0825
 1761TIP3    H226699   6.573   3.117  12.331  1.0142  2.5982  0.7025
 1762TIP3   OH226700   5.370   6.777   4.853 -0.4688 -0.4918 -0.3683
 1762TIP3    H126701   5.283   6.812   4.836 -0.0578  2.6341  2.8726
 1762TIP3    H226702   5.356   6.711   4.922 -0.3145 -0.2936 -0.1474
 1763TIP3   OH226703   1.529   5.113  11.692  0.5633  0.3056 -0.4717
 1763TIP3    H126704   1.586   5.190  11.692  0.0399  0.7100 -1.1623
 1763TIP3    H226705   1.525   5.086  11.600 -0.4254  0.3438 -0.4556
 1764TIP3   OH226706   0.329   1.678   1.846 -1.0579 -0.4817  0.1516
 1764TIP3    H126707   0.282   1.598   1.871  1.6249 -1.5978  2.0822
 1764TIP3    H226708   0.386   1.651   1.775 -1.5032  0.2258 -0.4849
 1765TIP3   OH226709   3.230   3.654   1.746 -0.0263  0.0919 -0.1536
 1765TIP3    H126710   3.282   3.653   1.666 -0.4309 -2.6572 -0.4817
 1765TIP3    H226711   3.274   3.717   1.803  1.6288  0.3684 -1.6758
 1766TIP3   OH226712   5.827   2.096  13.006 -0.0402 -0.2864  0.3296
 1766TIP3    H126713   5.830   2.102  13.101 -0.9872 -0.2802  0.3643
 1766TIP3    H226714   5.901   2.038  12.983 -0.0228 -0.5740  1.0847
 1767TIP3   OH226715   4.328   0.723   2.506  0.3926  0.1445 -0.1013
 1767TIP3    H126716   4.404   0.779   2.520 -0.1170  0.3181  2.3417
 1767TIP3    H226717   4.258   0.784   2.481  0.1499  0.4681  1.3210
 1768TIP3   OH226718   6.148   6.413   4.425 -0.4391  0.4518  0.1876
 1768TIP3    H126719   6.233   6.382   4.458  0.1004  0.6031 -1.0103
 1768TIP3    H226720   6.139   6.501   4.464 -0.4002  0.1511  0.8972
 1769TIP3   OH226721   1.141   0.183  15.629 -0.2278 -0.3185 -0.4241
 1769TIP3    H126722   1.086   0.198  15.706  0.7363 -0.7581  0.3737
 1769TIP3    H226723   1.085   0.135  15.569 -0.4363 -1.6927  0.7970
 1770TIP3   OH226724   4.329   5.356  11.235  0.1714 -0.0376  0.0924
 1770TIP3    H126725   4.270   5.357  11.310 -1.6187 -1.1543 -1.2153
 1770TIP3    H226726   4.339   5.264  11.213  1.7624  0.1847 -0.2403
 1771TIP3   OH226727   0.746   6.362   1.240 -0.1101 -0.0209 -0.1988
 1771TIP3    H126728   0.705   6.426   1.299 -0.2100 -1.0397  0.8626
 1771TIP3    H226729   0.838   6.360   1.267  0.9376  2.6629 -2.9259
 1772TIP3   OH226730   0.195   4.555   2.191 -0.6817  0.4265  0.1089
 1772TIP3    H126731   0.117   4.606   2.173 -2.1887 -0.6779  2.9391
 1772TIP3    H226732   0.182   4.474   2.141 -0.8008  0.6807 -0.2795
 1773TIP3   OH226733   3.946   2.051   2.961 -0.4126  0.2760 -0.1827
 1773TIP3    H126734   3.956   2.050   2.866 -1.2705 -0.2554 -0.2748
 1773TIP3    H226735   3.872   2.109   2.977 -0.2476  0.3941  0.1680
 1774TIP3   OH226736   6.816   3.457  15.389  0.1553  0.7510 -0.0893
 1774TIP3    H126737   6.908   3.431  15.380 -0.3447 -1.2052  0.0224
 1774TIP3    H226738   6.807   3.481  15.481  0.6879  1.5810 -0.2443
 1775TIP3   OH226739   2.294   6.704   3.156 -1.0170 -0.4264  0.3977
 1775TIP3    H126740   2.289   6.702   3.060 -2.5372  0.6809  0.4161
 1775TIP3    H226741   2.215   6.658   3.185  0.1369 -2.0240  1.1742
 1776TIP3   OH226742   3.981   4.491   1.256 -0.3159  0.0483 -1.0440
 1776TIP3    H126743   4.072   4.498   1.227  0.1676 -0.8634  0.1731
 1776TIP3    H226744   3.969   4.566   1.315  0.1229 -0.6396 -0.0519
 1777TIP3   OH226745   3.661   0.347  13.520 -0.1055 -0.0966  0.3312
 1777TIP3    H126746   3.686   0.343  13.427  0.3261  0.4928  0.4238
 1777TIP3    H226747   3.568   0.320  13.520 -0.2022  0.2103 -0.3048
 1778TIP3   OH226748   0.907   3.838   5.244  0.2645  0.6237  0.1278
 1778TIP3    H126749   0.974   3.849   5.312  0.9722  0.2998 -0.5080
 1778TIP3    H226750   0.931   3.903   5.177  0.4073 -0.0211 -0.4571
 1779TIP3   OH226751   1.372   5.653   1.573  0.0293  0.3754 -0.3398
 1779TIP3    H126752   1.342   5.583   1.630  2.0917 -1.1674 -1.0348
 1779TIP3    H226753   1.292   5.689   1.534 -1.2487  0.1465  1.9547
 1780TIP3   OH226754   6.024   3.657   5.835  0.0831  0.0773 -0.1510
 1780TIP3    H126755   5.980   3.613   5.762 -0.1275  0.5482 -0.3186
 1780TIP3    H226756   5.984   3.622   5.913  0.4639 -0.5968 -0.2524
 1781TIP3   OH226757   4.926   4.785   0.775 -0.2920 -0.3684  0.3898
 1781TIP3    H126758   5.003   4.766   0.829  0.5827 -1.0707 -1.0426
 1781TIP3    H226759   4.959   4.843   0.706 -0.6541 -1.9650 -1.1853
 1782TIP3   OH226760   2.374   1.857  12.544 -0.0470  0.5694  0.0991
 1782TIP3    H126761   2.394   1.763  12.547 -0.4016  0.5242  2.7416
 1782TIP3    H226762   2.354   1.873  12.452 -0.3218 -2.0099 -0.3767
 1783TIP3   OH226763   6.158   3.765   4.962  0.4752  0.1513 -0.4367
 1783TIP3    H126764   6.141   3.773   5.056 -0.0042  0.9166 -0.5812
 1783TIP3    H226765   6.253   3.777   4.954  0.4399  0.7298 -0.1047
 1784TIP3   OH226766   1.075   1.923   5.456  0.5827 -0.5853 -0.1673
 1784TIP3    H126767   1.093   1.856   5.390  2.2441  1.3207 -1.7538
 1784TIP3    H226768   1.137   1.905   5.526  1.6201 -0.2214 -0.9751
 1785TIP3   OH226769   2.868   4.631   1.730 -0.1479 -0.1240  0.2917
 1785TIP3    H126770   2.866   4.651   1.824  1.0319  0.0634  0.2941
 1785TIP3    H226771   2.780   4.601   1.710 -0.6400  0.5858  1.2968
 1786TIP3   OH226772   5.842   0.570   1.501 -0.2546 -0.2323  0.2078
 1786TIP3    H126773   5.811   0.649   1.457 -0.2343  0.5075  1.4701
 1786TIP3    H226774   5.927   0.551   1.460  0.0164  0.7491  0.3073
 1787TIP3   OH226775   6.816   5.308   3.081 -0.0027 -0.3048 -0.7993
 1787TIP3    H126776   6.796   5.253   3.006 -1.4986 -0.6203 -0.2047
 1787TIP3    H226777   6.775   5.393   3.061  0.4131 -0.0898 -0.7562
 1788TIP3   OH226778   3.598   0.163   2.214 -0.0635  0.1450  1.0268
 1788TIP3    H126779   3.593   0.251   2.176 -1.0889  0.2147  1.2938
 1788TIP3    H226780   3.674   0.167   2.272 -0.5942  1.1429  1.7044
 1789TIP3   OH226781   5.649   4.919   4.559 -0.2310  0.3037  0.4428
 1789TIP3    H126782   5.573   4.978   4.555 -0.6708 -0.2315  0.7508
 1789TIP3    H226783   5.642   4.877   4.645  0.4578  0.3019  0.5028
 1790TIP3   OH226784   1.466   4.538   6.073 -0.1153  0.0156  0.0228
 1790TIP3    H126785   1.383   4.585   6.075  0.4923  1.0949  0.7880
 1790TIP3    H226786   1.525   4.596   6.023 -0.3978 -1.7797 -2.6162
 1791TIP3   OH226787   1.137   3.700   4.012  0.8506  0.8094  0.0089
 1791TIP3    H126788   1.217   3.684   3.962  1.2146  0.2436  0.7681
 1791TIP3    H226789   1.072   3.723   3.945  0.9197 -1.5034 -0.9248
 1792TIP3   OH226790   1.888   5.018   2.376  0.1362  0.3957  0.1324
 1792TIP3    H126791   1.802   5.009   2.334 -0.0474  2.6315 -0.0781
 1792TIP3    H226792   1.871   4.997   2.468 -0.3627 -0.3456 -0.1154
 1793TIP3   OH226793   4.982   6.559  15.768  0.4457  0.3951 -0.3182
 1793TIP3    H126794   5.011   6.559  15.859  0.8728  0.5635 -0.4534
 1793TIP3    H226795   4.927   6.638  15.761 -0.2583 -0.0609  0.0014
 1794TIP3   OH226796   5.440   2.559  11.181 -0.1746  0.2373 -0.1686
 1794TIP3    H126797   5.401   2.476  11.154 -0.5321  0.4029 -0.1643
 1794TIP3    H226798   5.442   2.612  11.101  1.7696 -0.4242 -0.6208
 1795TIP3   OH226799   0.741   3.555   0.302  0.2728 -0.1011 -0.1293
 1795TIP3    H126800   0.768   3.606   0.226  0.0450 -0.0868 -0.1986
 1795TIP3    H226801   0.788   3.472   0.293 -0.2485 -0.3440 -0.6192
 1796TIP3   OH226802   1.214   6.233   4.630 -0.0948  0.1852  0.1341
 1796TIP3    H126803   1.256   6.315   4.657 -0.2504  0.3444 -0.0954
 1796TIP3    H226804   1.240   6.169   4.696  1.4840 -0.0107 -0.6440
 1797TIP3   OH226805   2.385   4.759  13.640 -0.5407  0.0303 -0.4327
 1797TIP3    H126806   2.325   4.778  13.712 -0.3377 -0.5607 -0.0994
 1797TIP3    H226807   2.329   4.745  13.564 -0.6892  2.4593 -0.8446
 1798TIP3   OH226808   4.654   2.823  13.500  0.2258  0.5389  0.2321
 1798TIP3    H126809   4.724   2.784  13.552 -1.4661 -2.3520  0.5843
 1798TIP3    H226810   4.647   2.766  13.423 -1.9451  0.4827  0.4185
 1799TIP3   OH226811   1.724   0.498   4.112  0.1465  0.2311  0.0842
 1799TIP3    H126812   1.694   0.508   4.202  1.2644 -0.2725  0.5438
 1799TIP3    H226813   1.770   0.580   4.093 -1.9257  1.2335 -0.8152
 1800TIP3   OH226814   1.527   5.770   0.507 -0.1855  0.2118  0.8433
 1800TIP3    H126815   1.538   5.717   0.428  1.6111  0.1128  1.1022
 1800TIP3    H226816   1.510   5.706   0.576 -0.5401  0.1953  0.7431
 1801TIP3   OH226817   4.281   5.201   3.919 -0.0582  0.0203 -0.2311
 1801TIP3    H126818   4.342   5.146   3.969  1.8265  1.9854 -0.2080
 1801TIP3    H226819   4.293   5.289   3.955 -1.9301  0.7323 -1.2022
 1802TIP3   OH226820   5.239   6.575   5.013  0.1547  0.2938 -0.2085
 1802TIP3    H126821   5.272   6.582   5.103  1.5109 -0.7587 -0.5880
 1802TIP3    H226822   5.165   6.514   5.019  1.5286 -1.4659 -0.0492
 1803TIP3   OH226823   1.267   4.516   5.386 -0.1997  0.2903 -0.2727
 1803TIP3    H126824   1.302   4.525   5.298 -1.3122  1.0738 -0.6521
 1803TIP3    H226825   1.344   4.522   5.443  0.5432 -0.3322 -1.1775
 1804TIP3   OH226826   4.814   3.842  14.942  0.0189 -0.0305  0.0334
 1804TIP3    H126827   4.867   3.915  14.973 -2.1507  1.1138  1.3302
 1804TIP3    H226828   4.783   3.798  15.022 -0.6331 -0.8953 -0.6680
 1805TIP3   OH226829   2.640   1.547   2.189  0.1040 -0.0134  0.1015
 1805TIP3    H126830   2.700   1.529   2.261 -0.5747  0.9056  0.9199
 1805TIP3    H226831   2.554   1.522   2.223 -0.1331 -0.2546 -0.6600
 1806TIP3   OH226832   1.747   0.796  16.415  0.5405  0.2670  0.2721
 1806TIP3    H126833   1.772   0.725  16.475 -0.1978 -1.4261 -1.3497
 1806TIP3    H226834   1.817   0.799  16.351 -0.2557 -0.1625 -0.6370
 1807TIP3   OH226835   6.085   6.324  12.981  0.5022 -0.4062  0.5447
 1807TIP3    H126836   6.091   6.339  12.887  0.9683  0.9125  0.7659
 1807TIP3    H226837   6.017   6.256  12.990  1.8421 -2.0338 -0.8335
 1808TIP3   OH226838   5.693   3.666   0.884  0.2333  0.2363  0.4625
 1808TIP3    H126839   5.680   3.673   0.979 -0.7956 -0.5337  0.3856
 1808TIP3    H226840   5.784   3.638   0.875  0.4059  0.5208  1.2054
 1809TIP3   OH226841   3.036   1.948  16.217 -0.9675  0.0696  0.6430
 1809TIP3    H126842   2.975   1.955  16.144 -0.8035 -2.6782  0.1375
 1809TIP3    H226843   3.122   1.953  16.177 -0.8755 -1.6653  0.5675
 1810TIP3   OH226844   5.170   0.283   3.141  0.0018  0.4023 -0.6610
 1810TIP3    H126845   5.237   0.217   3.124  0.1209  0.9406 -2.4393
 1810TIP3    H226846   5.167   0.289   3.236  1.6340 -0.4895 -0.5111
 1811TIP3   OH226847   5.473   2.956  14.767 -0.0986 -0.8651  0.6875
 1811TIP3    H126848   5.562   2.978  14.797 -0.4100 -0.0905  1.0573
 1811TIP3    H226849   5.456   2.870  14.805 -0.3495 -0.0589  2.4686
 1812TIP3   OH226850   5.118   1.696   0.316 -0.1317 -0.5662 -0.5231
 1812TIP3    H126851   5.090   1.607   0.295 -0.1079 -1.0734  1.3763
 1812TIP3    H226852   5.093   1.708   0.408 -0.5097  1.5549 -0.8459
 1813TIP3   OH226853   1.503   1.387   4.200 -0.0709  0.0371 -0.4746
 1813TIP3    H126854   1.595   1.411   4.185  0.1407  0.7159  1.5841
 1813TIP3    H226855   1.503   1.292   4.206  0.7945  0.0933  0.9400
 1814TIP3   OH226856   1.111   3.618  16.477  0.0931  0.3001 -0.3916
 1814TIP3    H126857   1.111   3.577  16.390  0.9253  1.1738 -0.8158
 1814TIP3    H226858   1.041   3.683  16.473 -2.1722 -1.8673  0.7240
 1815TIP3   OH226859   6.428   0.614  16.108  0.0289 -0.2066  0.1733
 1815TIP3    H126860   6.446   0.703  16.080  4.0878 -0.6068  0.7857
 1815TIP3    H226861   6.411   0.566  16.027  2.0198  0.4175 -0.6806
 1816TIP3   OH226862   2.371   4.331   2.471  0.6166 -0.1224 -0.1746
 1816TIP3    H126863   2.426   4.353   2.546 -1.4032  0.0492  1.3717
 1816TIP3    H226864   2.404   4.385   2.399  3.2115 -0.9880  0.3003
 1817TIP3   OH226865   3.255   1.059  16.249  0.4632  0.2523  0.0748
 1817TIP3    H126866   3.252   1.044  16.343 -0.6528 -0.8769 -0.1167
 1817TIP3    H226867   3.344   1.035  16.224  0.2996 -0.9825  0.6157
 1818TIP3   OH226868   6.651   4.672   2.575 -0.7025  0.0674 -0.2971
 1818TIP3    H126869   6.644   4.595   2.519 -0.1139 -1.0353  1.0891
 1818TIP3    H226870   6.648   4.638   2.664 -1.3583  1.7466  0.3702
 1819TIP3   OH226871   2.407   3.427   0.295  0.1189  0.4203 -0.3313
 1819TIP3    H126872   2.484   3.406   0.347  0.1616 -1.1524 -0.9740
 1819TIP3    H226873   2.337   3.373   0.332  0.5301 -2.0984 -2.8354
 1820TIP3   OH226874   0.569   5.029   1.858 -0.1697 -0.1399  0.2492
 1820TIP3    H126875   0.633   4.960   1.839  1.3032  1.0279  0.7842
 1820TIP3    H226876   0.486   4.982   1.872  0.6879 -1.7440  0.1368
 1821TIP3   OH226877   2.335   1.469  11.107 -0.1523 -0.3724  0.0920
 1821TIP3    H126878   2.301   1.461  11.197  1.2272  2.3902  0.9632
 1821TIP3    H226879   2.418   1.422  11.109 -0.3869 -0.7958  0.0771
 1822TIP3   OH226880   4.435   4.934   3.235 -0.3594  0.1978 -0.8493
 1822TIP3    H126881   4.406   4.896   3.151 -0.5229  1.2146 -1.2664
 1822TIP3    H226882   4.363   4.918   3.295 -0.3294 -0.3534 -0.9577
 1823TIP3   OH226883   5.718   4.283   5.646  0.4206  0.0945  0.3055
 1823TIP3    H126884   5.750   4.243   5.726  2.3020 -0.6018 -0.7206
 1823TIP3    H226885   5.795   4.326   5.608 -0.0255 -0.7863 -1.7956
 1824TIP3   OH226886   2.911   0.951   3.748  0.4384 -0.1399  0.4063
 1824TIP3    H126887   2.895   0.946   3.653  0.6814  0.4891  0.3266
 1824TIP3    H226888   2.998   0.914   3.759  1.1838  1.4423  0.1377
 1825TIP3   OH226889   4.677   3.109  12.527 -0.4596 -0.3966  0.5861
 1825TIP3    H126890   4.769   3.135  12.520 -0.3400 -1.0379 -0.5921
 1825TIP3    H226891   4.635   3.180  12.576  0.6672 -0.1240  1.1879
 1826TIP3   OH226892   2.677   2.483  10.830  0.6282 -0.4198 -0.1844
 1826TIP3    H126893   2.616   2.425  10.785  1.0504  0.7580 -2.4396
 1826TIP3    H226894   2.755   2.430  10.845 -0.1589 -1.3358  0.8335
 1827TIP3   OH226895   2.469   3.319   2.913 -0.2260 -0.1867 -0.3506
 1827TIP3    H126896   2.391   3.266   2.931 -0.4398  0.1031 -0.4160
 1827TIP3    H226897   2.528   3.299   2.986 -0.5956  0.0323  0.0176
 1828TIP3   OH226898   4.442   6.603  13.590 -0.2591 -0.1591 -0.8674
 1828TIP3    H126899   4.459   6.697  13.582  0.1803 -0.2901 -1.4780
 1828TIP3    H226900   4.501   6.574  13.660  0.6102 -0.2309 -1.6132
 1829TIP3   OH226901   0.074   6.498   2.848 -0.4082  0.0568 -0.4302
 1829TIP3    H126902   0.112   6.411   2.862  0.4328  0.3255 -0.9256
 1829TIP3    H226903   0.015   6.510   2.922  1.5444  0.1838  1.2044
 1830TIP3   OH226904   2.905   5.807   6.086 -0.2461  0.3367  0.2993
 1830TIP3    H126905   2.932   5.782   5.998 -2.0797 -0.5488 -0.0460
 1830TIP3    H226906   2.915   5.903   6.087  0.9383  0.2383 -0.4501
 1831TIP3   OH226907   1.478   0.799  16.468 -0.2724  0.1461 -0.1059
 1831TIP3    H126908   1.435   0.877  16.434 -1.1311 -0.6546 -0.8825
 1831TIP3    H226909   1.563   0.797  16.425 -0.5051  0.3045 -0.5703
 1832TIP3   OH226910   4.223   5.770  16.435 -0.0632  0.3949  0.3596
 1832TIP3    H126911   4.239   5.762  16.341  1.7706 -0.0991  0.6603
 1832TIP3    H226912   4.174   5.851  16.445  0.5915  0.9803 -0.9592
 1833TIP3   OH226913   5.135   2.608   0.617 -0.1394 -0.0659 -0.2897
 1833TIP3    H126914   5.054   2.563   0.642 -0.2472  1.1458  1.7018
 1833TIP3    H226915   5.120   2.699   0.640  2.2703 -0.0300  1.5050
 1834TIP3   OH226916   0.649   3.795   0.891 -0.5525 -0.3374  0.4389
 1834TIP3    H126917   0.687   3.812   0.978  1.1528  1.2622 -0.5514
 1834TIP3    H226918   0.564   3.838   0.894  0.1569  1.0877  0.8194
 1835TIP3   OH226919   6.553   2.862  16.598 -0.4267 -0.0528 -0.3011
 1835TIP3    H126920   6.478   2.809  16.626 -1.5618  0.0362 -2.8713
 1835TIP3    H226921   6.628   2.824  16.644 -1.7015 -1.6254  0.5912
 1836TIP3   OH226922   3.647   3.477   3.491 -0.5312  0.1939 -0.3974
 1836TIP3    H126923   3.591   3.419   3.543  0.3935 -0.2280  0.1608
 1836TIP3    H226924   3.586   3.539   3.450 -1.4181 -0.3929  0.0015
 1837TIP3   OH226925   1.495   6.527  13.514 -0.2108  0.6549 -0.0818
 1837TIP3    H126926   1.551   6.577  13.573  1.6837 -1.8261  0.3741
 1837TIP3    H226927   1.425   6.494  13.570  1.1943 -1.1054  0.7368
 1838TIP3   OH226928   4.943   1.026  13.200 -0.1010 -0.6186  0.2609
 1838TIP3    H126929   5.025   1.075  13.194 -0.7853  0.5338 -0.1181
 1838TIP3    H226930   4.963   0.940  13.163  1.0127 -0.4569  0.4758
 1839TIP3   OH226931   2.247   3.233   3.114  0.1277  0.1464 -0.1288
 1839TIP3    H126932   2.323   3.248   3.171  0.5487 -0.7700 -0.4337
 1839TIP3    H226933   2.194   3.168   3.160 -0.7322  1.1117  0.2993
 1840TIP3   OH226934   2.368   1.861  15.145  0.5821 -0.1948  0.7138
 1840TIP3    H126935   2.273   1.849  15.136  0.5580  1.0487 -1.1623
 1840TIP3    H226936   2.378   1.913  15.225 -0.5036  1.4438 -0.1621
 1841TIP3   OH226937   2.464   3.259   0.562  0.0557  0.2099 -0.0552
 1841TIP3    H126938   2.530   3.311   0.516 -0.5929 -0.2390 -1.5760
 1841TIP3    H226939   2.489   3.168   0.547 -0.0573  0.0565  0.6678
 1842TIP3   OH226940   1.386   1.402  12.628 -0.3732  0.7323 -0.2830
 1842TIP3    H126941   1.294   1.425  12.616 -1.4576 -1.1713  3.1963
 1842TIP3    H226942   1.429   1.486  12.645 -1.3515  1.6617 -2.0464
 1843TIP3   OH226943   2.375   1.742  15.806 -0.1589 -0.0875 -0.1153
 1843TIP3    H126944   2.401   1.682  15.736  0.5714 -0.2504  0.2883
 1843TIP3    H226945   2.309   1.798  15.766  0.9304  0.4369 -1.2122
 1844TIP3   OH226946   3.803   0.516  16.358  0.1022  0.1283  0.4206
 1844TIP3    H126947   3.860   0.453  16.314  1.9408  1.0665  1.3517
 1844TIP3    H226948   3.801   0.592  16.299 -0.5942 -0.0929  0.1593
 1845TIP3   OH226949   4.451   1.979   0.423 -0.2331  0.4313  0.2014
 1845TIP3    H126950   4.493   1.920   0.485  1.0714  1.0132 -0.0925
 1845TIP3    H226951   4.461   2.066   0.462 -1.1073  0.6044  0.0765
 1846TIP3   OH226952   6.744   1.125   6.157  0.1815  0.1115 -0.1905
 1846TIP3    H126953   6.751   1.167   6.071 -1.1214  1.8950  0.5023
 1846TIP3    H226954   6.818   1.160   6.207 -0.3498  0.8931  0.0806
 1847TIP3   OH226955   2.867   6.268  13.065  0.0366  0.4579  0.4588
 1847TIP3    H126956   2.889   6.182  13.029 -0.4858  0.4063  0.2590
 1847TIP3    H226957   2.949   6.298  13.105  0.2115 -0.1456  0.5667
 1848TIP3   OH226958   6.743   6.353   1.350 -0.1268 -0.1261  0.2548
 1848TIP3    H126959   6.783   6.272   1.319 -0.3333 -0.4798  0.8940
 1848TIP3    H226960   6.669   6.325   1.405 -0.5382  0.5000  0.0405
 1849TIP3   OH226961   0.761   2.716  11.696  0.1893 -0.2300 -0.1912
 1849TIP3    H126962   0.703   2.786  11.668  1.4288 -0.0455 -2.5500
 1849TIP3    H226963   0.761   2.653  11.624  2.1699 -0.6700  0.1289
 1850TIP3   OH226964   4.728   3.529  10.179 -0.6468 -0.4746  0.1299
 1850TIP3    H126965   4.635   3.538  10.160 -0.6804 -0.6397  0.2093
 1850TIP3    H226966   4.744   3.434  10.177 -0.4835 -0.4482  0.1270
 1851TIP3   OH226967   6.520   1.447   1.316  0.8057  0.5401  0.3618
 1851TIP3    H126968   6.509   1.354   1.293  0.7505  0.8352 -0.9049
 1851TIP3    H226969   6.482   1.455   1.403 -3.1118  0.1771 -1.1067
 1852TIP3   OH226970   6.142   3.829   3.262 -0.2170 -0.3311  0.4452
 1852TIP3    H126971   6.128   3.833   3.357  1.9916 -0.8465  0.8490
 1852TIP3    H226972   6.084   3.758   3.233 -1.6283  0.4593  1.2297
 1853TIP3   OH226973   5.739   5.890  11.626  0.1698 -0.4317 -0.2099
 1853TIP3    H126974   5.797   5.917  11.555  1.1719 -0.1192  0.7100
 1853TIP3    H226975   5.793   5.832  11.681 -0.9371 -1.6427 -0.3302
 1854TIP3   OH226976   1.648   4.833   4.722 -0.0228  0.3357  0.5064
 1854TIP3    H126977   1.665   4.923   4.694  0.5257  0.2588  0.5757
 1854TIP3    H226978   1.558   4.834   4.755  0.7110  1.4164  2.7028
 1855TIP3   OH226979   4.603   0.045  12.268 -0.2361 -0.5004 -0.0306
 1855TIP3    H126980   4.548   0.014  12.339  1.4279 -0.2698  1.4430
 1855TIP3    H226981   4.663   0.107  12.310  1.4251 -1.0803 -1.4296
 1856TIP3   OH226982   1.958   0.332  11.282  0.0957  0.5986  0.1051
 1856TIP3    H126983   1.930   0.333  11.191  1.5269  0.2150 -0.3729
 1856TIP3    H226984   1.982   0.241  11.299  0.0107  0.7033  0.8039
 1857TIP3   OH226985   3.899   6.373  13.607 -0.4724 -0.1547 -0.5398
 1857TIP3    H126986   3.808   6.393  13.583 -1.0738  1.6861  2.7386
 1857TIP3    H226987   3.939   6.459  13.620  0.6343 -0.9485  1.6879
 1858TIP3   OH226988   2.648   3.462  12.802 -0.2349 -0.6481 -0.0978
 1858TIP3    H126989   2.677   3.501  12.719 -2.5264 -0.9767 -1.1387
 1858TIP3    H226990   2.630   3.537  12.859  0.5962 -0.3957 -0.1506
 1859TIP3   OH226991   3.331   0.610   2.251  0.0177  0.1782 -0.0044
 1859TIP3    H126992   3.323   0.586   2.343  0.2963  0.8693  0.2067
 1859TIP3    H226993   3.256   0.667   2.235 -0.1553 -0.1199 -0.2692
 1860TIP3   OH226994   2.662   2.677   4.627  0.2167 -0.0527  0.3667
 1860TIP3    H126995   2.675   2.762   4.669  2.5537  0.3981 -1.0968
 1860TIP3    H226996   2.627   2.698   4.540 -0.9313 -0.7385  0.6385
 1861TIP3   OH226997   1.439   0.485  12.898 -0.0255  0.4491  0.3887
 1861TIP3    H126998   1.491   0.564  12.914  0.5055 -0.0620  1.2241
 1861TIP3    H226999   1.458   0.462  12.807  1.8815 -0.1895  0.8983
 1862TIP3   OH227000   2.612   2.349  14.019 -0.5977  0.5826 -0.8233
 1862TIP3    H127001   2.534   2.299  14.041 -0.6266  1.3222  0.9130
 1862TIP3    H227002   2.663   2.352  14.100  1.7224 -0.6662 -2.1348
 1863TIP3   OH227003   5.002   6.531  17.052 -0.3364  0.7631  0.0319
 1863TIP3    H127004   5.086   6.565  17.080 -0.2055  0.2226  0.3035
 1863TIP3    H227005   4.953   6.608  17.024  1.0138  0.8864 -2.2085
 1864TIP3   OH227006   1.482   0.567  11.323 -0.0433 -0.5598  0.1365
 1864TIP3    H127007   1.475   0.474  11.344 -2.0092 -0.4163  0.3316
 1864TIP3    H227008   1.455   0.611  11.403 -4.0462  0.0487 -1.3428
 1865TIP3   OH227009   3.673   4.079   3.810  0.5375 -0.3107  0.1379
 1865TIP3    H127010   3.670   4.062   3.905 -1.0341 -0.1909  0.1335
 1865TIP3    H227011   3.745   4.025   3.779 -0.7632 -2.6903  0.9721
 1866TIP3   OH227012   3.231   2.315   1.006 -0.4328  0.2242 -0.0405
 1866TIP3    H127013   3.314   2.333   1.049  0.6184  0.4653 -2.0390
 1866TIP3    H227014   3.165   2.355   1.062  0.8226  0.3499  1.4023
 1867TIP3   OH227015   0.906   3.027  14.034 -0.0588  0.0232 -0.6361
 1867TIP3    H127016   0.953   2.994  14.111 -0.8814  0.5994  0.1321
 1867TIP3    H227017   0.910   3.122  14.043 -1.6311  0.0950 -0.3659
 1868TIP3   OH227018   6.228   5.647  14.871 -0.0649 -0.1470 -0.2292
 1868TIP3    H127019   6.276   5.615  14.795  1.2020  0.5027  0.2625
 1868TIP3    H227020   6.227   5.742  14.860  1.7803  0.1381  1.4446
 1869TIP3   OH227021   4.648   2.859  12.417 -0.4086 -0.0489  0.3277
 1869TIP3    H127022   4.642   2.862  12.322  1.4312  0.1635  0.1808
 1869TIP3    H227023   4.648   2.951  12.444 -2.5879 -0.1187  0.7024
 1870TIP3   OH227024   4.994   4.009   4.823 -0.1967 -0.3770  0.5753
 1870TIP3    H127025   4.913   3.962   4.802 -1.3095  2.6325 -2.8183
 1870TIP3    H227026   5.054   3.986   4.752 -0.6439  2.7664 -0.9665
 1871TIP3   OH227027   2.967   0.393  11.546  0.3694 -0.0002  0.2707
 1871TIP3    H127028   3.027   0.344  11.603 -0.1041 -1.4916 -0.4814
 1871TIP3    H227029   2.959   0.478  11.589  2.4797  0.0235  0.7617
 1872TIP3   OH227030   1.426   2.830  11.596 -0.7745  0.1512 -0.1463
 1872TIP3    H127031   1.504   2.844  11.543 -0.5993 -0.6923 -0.1295
 1872TIP3    H227032   1.376   2.911  11.588  0.4996  1.0437  0.5165
 1873TIP3   OH227033   2.593   4.541   1.686 -0.3090  0.1683  0.0387
 1873TIP3    H127034   2.597   4.628   1.725  0.5900  0.6438 -1.0698
 1873TIP3    H227035   2.595   4.556   1.592 -0.3738 -1.0450 -0.1770
 1874TIP3   OH227036   5.581   0.719   4.680 -0.0585  0.0027  0.0668
 1874TIP3    H127037   5.570   0.661   4.755  0.4341  1.3641  1.2520
 1874TIP3    H227038   5.638   0.671   4.620  1.4154 -0.2428  1.5952
 1875TIP3   OH227039   6.463   5.688   3.882  0.5310 -0.1747  0.1426
 1875TIP3    H127040   6.398   5.717   3.946  2.6192 -0.8073  2.7007
 1875TIP3    H227041   6.534   5.752   3.888  0.9973 -0.5118 -1.2419
 1876TIP3   OH227042   3.120   5.603  14.178  0.5579 -0.7901  0.9560
 1876TIP3    H127043   3.195   5.559  14.138  0.9162  0.5381  0.1230
 1876TIP3    H227044   3.158   5.671  14.233 -0.0308 -0.5020  1.0090
 1877TIP3   OH227045   1.971   6.620  12.174 -0.1620  0.4657 -0.1146
 1877TIP3    H127046   1.996   6.527  12.173  0.6739  0.6574 -2.6706
 1877TIP3    H227047   1.879   6.620  12.147 -1.4434  0.2081  3.6284
 1878TIP3   OH227048   2.458   4.077  15.041 -0.1790  0.1659 -0.4913
 1878TIP3    H127049   2.382   4.037  14.998 -1.2484  0.7607  0.7561
 1878TIP3    H227050   2.477   4.019  15.115  0.0649  0.4385 -0.3387
 1879TIP3   OH227051   4.722   3.822   2.636 -0.5319  0.0579  0.0901
 1879TIP3    H127052   4.652   3.758   2.623 -0.7519  0.2416  0.3663
 1879TIP3    H227053   4.799   3.770   2.654 -0.0568 -0.2677 -2.4681
 1880TIP3   OH227054   0.272   6.134   3.721  0.4779  0.1540 -0.4158
 1880TIP3    H127055   0.292   6.050   3.763  0.3883  0.3373 -0.0046
 1880TIP3    H227056   0.356   6.162   3.683  0.1954 -0.8345 -1.8580
 1881TIP3   OH227057   2.601   5.174  15.174 -0.6014 -0.1525  0.1154
 1881TIP3    H127058   2.552   5.256  15.185 -0.8625 -0.4692  1.4085
 1881TIP3    H227059   2.675   5.198  15.118 -0.3054  1.1270  1.0211
 1882TIP3   OH227060   3.571   6.417  12.695 -0.0536  0.1805 -0.0125
 1882TIP3    H127061   3.581   6.388  12.785 -0.3995 -2.8982 -0.8416
 1882TIP3    H227062   3.520   6.498  12.700  0.9280  0.7256  2.5548
 1883TIP3   OH227063   2.524   0.132   1.064  0.1681 -0.3943  0.1693
 1883TIP3    H127064   2.535   0.132   1.159 -0.6076  1.7245  0.3103
 1883TIP3    H227065   2.579   0.060   1.033  0.2396 -1.2857  2.2301
 1884TIP3   OH227066   2.923   5.740   5.006  0.4199  0.1444 -0.4826
 1884TIP3    H127067   2.957   5.692   5.081 -3.5249  0.0671  1.5166
 1884TIP3    H227068   2.924   5.832   5.034  0.5283  0.3216 -1.0571
 1885TIP3   OH227069   3.601   5.137   3.220 -0.1269  0.1150 -0.1716
 1885TIP3    H127070   3.568   5.094   3.141  1.5754 -0.8597 -0.3989
 1885TIP3    H227071   3.527   5.136   3.281 -0.6692 -1.5896 -0.7934
 1886TIP3   OH227072   6.574   2.739   6.023 -0.2053  0.0989  0.3057
 1886TIP3    H127073   6.547   2.676   5.956 -1.5245 -0.0505  0.9546
 1886TIP3    H227074   6.567   2.691   6.106  0.6974  0.5099  0.6413
 1887TIP3   OH227075   1.112   4.801   6.839 -0.5354 -0.1389 -0.1378
 1887TIP3    H127076   1.048   4.855   6.791 -0.2644 -1.7327 -2.4705
 1887TIP3    H227077   1.191   4.805   6.784  0.4693 -0.4718  1.2458
 1888TIP3   OH227078   2.415   6.377  16.821  0.2323  0.0061  0.2428
 1888TIP3    H127079   2.350   6.433  16.777 -3.0776 -3.2987  0.4021
 1888TIP3    H227080   2.389   6.377  16.913  1.1189 -0.5911  0.5090
 1889TIP3   OH227081   3.699   3.790  15.218 -0.1646  0.4758 -0.5792
 1889TIP3    H127082   3.603   3.799  15.220 -0.2816 -0.5164  1.1455
 1889TIP3    H227083   3.714   3.701  15.249  1.3166  0.4356 -1.3720
 1890TIP3   OH227084   1.035   3.735  16.770 -0.1106  0.4213  0.2988
 1890TIP3    H127085   1.100   3.750  16.701 -1.0554  1.2371 -0.4422
 1890TIP3    H227086   0.966   3.685  16.727 -0.3135  0.1878  0.8892
 1891TIP3   OH227087   3.640   5.540  11.642 -0.1649  0.5428  0.1793
 1891TIP3    H127088   3.590   5.469  11.681  2.1317  0.0004  2.3641
 1891TIP3    H227089   3.693   5.497  11.574  1.4963  0.0026  1.7466
 1892TIP3   OH227090   3.555   1.757   3.799  1.0105 -0.7220 -0.2588
 1892TIP3    H127091   3.556   1.767   3.894  1.5604 -0.2238 -0.3128
 1892TIP3    H227092   3.553   1.847   3.765  0.1873 -0.8985 -0.7200
 1893TIP3   OH227093   0.973   4.024  10.364 -0.3335  0.8883 -0.5085
 1893TIP3    H127094   0.931   4.107  10.387  0.4702  1.3996 -0.8256
 1893TIP3    H227095   0.938   3.960  10.426 -0.1257  1.7044  0.4715
 1894TIP3   OH227096   6.103   1.055   4.591 -0.4802  0.1018  0.2243
 1894TIP3    H127097   6.039   1.121   4.565 -0.2072  0.8595  1.4139
 1894TIP3    H227098   6.134   1.018   4.508 -2.7408 -0.6012 -0.3808
 1895TIP3   OH227099   2.271   4.390  12.613 -0.5286  0.4901 -0.4529
 1895TIP3    H127100   2.301   4.479  12.593 -0.3770  0.7870  0.9638
 1895TIP3    H227101   2.200   4.374  12.551  1.9712  0.0361 -3.4361
 1896TIP3   OH227102   0.415   5.545  14.211 -0.4276  0.0099 -0.0653
 1896TIP3    H127103   0.411   5.627  14.161  1.1668  0.3790  0.3732
 1896TIP3    H227104   0.392   5.477  14.147 -1.1678  0.7192 -0.5823
 1897TIP3   OH227105   4.124   0.964  16.765 -0.6579 -0.3495  0.4073
 1897TIP3    H127106   4.101   0.959  16.857 -3.3100  0.9466 -0.0720
 1897TIP3    H227107   4.130   1.058  16.747  3.1805 -0.5459 -0.1036
 1898TIP3   OH227108   2.476   1.835  12.144 -1.0808 -0.4139  0.3587
 1898TIP3    H127109   2.539   1.763  12.140 -1.5035 -0.8855  1.7037
 1898TIP3    H227110   2.412   1.814  12.075  0.5415  0.4395 -1.5130
 1899TIP3   OH227111   6.099   4.665  14.412  0.4105 -0.0104 -0.2358
 1899TIP3    H127112   6.024   4.663  14.352 -0.4154 -1.3882  0.7658
 1899TIP3    H227113   6.074   4.605  14.482  2.0561  0.2733  0.6330
 1900TIP3   OH227114   2.997   0.847  10.285 -0.4489  0.4237 -0.3021
 1900TIP3    H127115   3.065   0.871  10.222  0.0059 -1.4531 -0.6005
 1900TIP3    H227116   2.979   0.755  10.266 -0.4683 -0.1519  2.1788
 1901TIP3   OH227117   0.975   4.299   2.061 -0.1683  0.1694  0.2599
 1901TIP3    H127118   0.985   4.393   2.080 -1.5662 -0.1306  3.1230
 1901TIP3    H227119   0.882   4.289   2.044  0.1395 -0.5954 -1.0781
 1902TIP3   OH227120   5.877   1.029   0.144 -0.4835  0.1714  0.3838
 1902TIP3    H127121   5.882   0.939   0.112  0.7634  0.2845  0.1939
 1902TIP3    H227122   5.956   1.040   0.197 -1.0880  0.8768  1.1705
 1903TIP3   OH227123   3.347   4.487  10.976 -0.3874 -0.4145  0.1619
 1903TIP3    H127124   3.389   4.508  11.059  0.3328  0.5672 -0.4390
 1903TIP3    H227125   3.265   4.537  10.977 -1.2174 -1.7248  0.9927
 1904TIP3   OH227126   6.589   0.723  17.034 -0.3731  0.2254  0.8374
 1904TIP3    H127127   6.537   0.674  16.971 -1.2888  1.7937  0.3268
 1904TIP3    H227128   6.540   0.803  17.050  0.9377  0.8801  1.8469
 1905TIP3   OH227129   6.474   5.798  11.114  0.2468  0.4812 -0.4119
 1905TIP3    H127130   6.562   5.830  11.092  0.6728 -0.6006 -0.3524
 1905TIP3    H227131   6.481   5.770  11.205  0.0936 -0.4224 -0.6681
 1906TIP3   OH227132   5.420   5.812  13.814 -0.9377 -0.2299  0.3662
 1906TIP3    H127133   5.492   5.776  13.865 -1.5346  0.0137  1.4200
 1906TIP3    H227134   5.460   5.883  13.763 -0.4508 -0.0353  1.0060
 1907TIP3   OH227135   1.128   4.040   6.396 -0.2430  0.0886  0.1214
 1907TIP3    H127136   1.152   4.073   6.482 -1.6505 -0.4202  0.7382
 1907TIP3    H227137   1.033   4.048   6.392 -0.1756  0.5426 -1.5841
 1908TIP3   OH227138   2.103   1.798  10.879 -0.2848 -0.3326 -0.3510
 1908TIP3    H127139   2.067   1.870  10.826 -1.0135 -0.4838 -0.0703
 1908TIP3    H227140   2.149   1.842  10.950  1.4967 -0.1028 -1.5876
 1909TIP3   OH227141   6.328   3.128  11.913  0.1464 -0.3305  0.3128
 1909TIP3    H127142   6.418   3.139  11.883 -0.1255  0.4523 -0.2627
 1909TIP3    H227143   6.292   3.217  11.912 -0.7793 -0.6958  0.0390
 1910TIP3   OH227144   5.067   2.802  14.172  0.5382 -1.0190  0.1148
 1910TIP3    H127145   4.974   2.798  14.195  0.0826 -0.2853 -1.4802
 1910TIP3    H227146   5.105   2.726  14.216 -1.0317 -2.0089 -0.1607
 1911TIP3   OH227147   1.415   1.880   2.388 -0.7812  0.1763  0.6530
 1911TIP3    H127148   1.381   1.969   2.392 -0.3193  0.4172 -0.5843
 1911TIP3    H227149   1.510   1.890   2.387 -0.7316 -0.2509 -0.7837
 1912TIP3   OH227150   4.978   4.408   6.131 -0.3648 -0.1620  0.2578
 1912TIP3    H127151   4.975   4.488   6.183 -0.2403  0.7961 -1.1600
 1912TIP3    H227152   5.004   4.340   6.194  1.9637  1.3278  1.0216
 1913TIP3   OH227153   5.064   4.000  11.206  0.6557 -0.1042 -0.6109
 1913TIP3    H127154   4.996   3.987  11.141 -0.0731 -2.0380  0.4518
 1913TIP3    H227155   5.146   3.993  11.158  0.1424  0.7052 -1.6425
 1914TIP3   OH227156   2.947   3.889  16.849  0.3166  0.0031  0.6060
 1914TIP3    H127157   2.857   3.920  16.848 -0.3174 -1.7227  0.2377
 1914TIP3    H227158   2.949   3.817  16.786  1.8833 -0.1716  0.8032
 1915TIP3   OH227159   3.933   2.511  12.410 -0.7735 -0.1874 -0.1494
 1915TIP3    H127160   3.968   2.593  12.374 -0.4575 -0.9440 -1.6753
 1915TIP3    H227161   3.838   2.519  12.399 -0.8730  0.5878  1.1253
 1916TIP3   OH227162   0.663   6.478  12.000  0.4620  0.2948  0.4218
 1916TIP3    H127163   0.578   6.504  12.034  1.5625  1.9754  2.0430
 1916TIP3    H227164   0.673   6.528  11.919 -0.1768 -0.1096  0.0860
 1917TIP3   OH227165   2.614   1.749   5.743 -0.0755 -0.8310 -0.4539
 1917TIP3    H127166   2.709   1.757   5.733  0.0364 -1.0514  0.3381
 1917TIP3    H227167   2.582   1.729   5.656  0.6758 -1.4155 -0.6042
 1918TIP3   OH227168   2.684   0.732  14.743 -0.1780 -0.2120 -0.4319
 1918TIP3    H127169   2.753   0.672  14.713  1.7201  2.6015 -2.1115
 1918TIP3    H227170   2.650   0.771  14.663 -1.5873  0.7664  0.6011
 1919TIP3   OH227171   3.503   5.988   5.257  0.0975 -0.3573  0.7476
 1919TIP3    H127172   3.576   6.017   5.312 -0.7183  0.5966  1.3627
 1919TIP3    H227173   3.543   5.930   5.192  1.4873  0.5828  0.7222
 1920TIP3   OH227174   5.342   0.539  10.560  0.0276 -0.1179  0.2685
 1920TIP3    H127175   5.436   0.545  10.543 -0.2787  1.1432 -1.1688
 1920TIP3    H227176   5.314   0.630  10.574 -0.6901 -0.6291  2.5402
 1921TIP3   OH227177   3.264   3.449   5.639 -0.0661 -0.0596  0.2143
 1921TIP3    H127178   3.286   3.392   5.565 -0.4598 -1.4038  1.0841
 1921TIP3    H227179   3.311   3.530   5.622  2.6338 -1.5144  0.1588
 1922TIP3   OH227180   2.443   2.172   5.286  0.6022  0.2357 -0.1672
 1922TIP3    H127181   2.348   2.178   5.297  0.7161 -0.8357  2.1559
 1922TIP3    H227182   2.456   2.163   5.192 -1.7018 -0.8773 -0.4518
 1923TIP3   OH227183   0.696   2.218  16.764  0.1784 -0.1947  0.4736
 1923TIP3    H127184   0.776   2.187  16.805 -0.1250 -0.0267  1.2198
 1923TIP3    H227185   0.694   2.312  16.783  0.9839  0.2901 -1.5746
 1924TIP3   OH227186   4.334   6.766   1.981  0.6448 -0.1273  0.2931
 1924TIP3    H127187   4.304   6.840   2.033 -0.4387  0.5339 -1.2075
 1924TIP3    H227188   4.418   6.794   1.946  0.0320  0.6031 -0.6315
 1925TIP3   OH227189   1.775   4.409   4.460  0.1172  0.2367 -0.1887
 1925TIP3    H127190   1.870   4.392   4.457  0.4675  2.0292 -0.1812
 1925TIP3    H227191   1.762   4.457   4.541 -0.4193  1.9872 -1.2645
 1926TIP3   OH227192   4.863   3.580  10.412 -0.1148  0.9505 -0.1653
 1926TIP3    H127193   4.805   3.604  10.339 -0.4751 -0.8986 -0.5363
 1926TIP3    H227194   4.908   3.501  10.382  0.7428  0.9219  1.1080
 1927TIP3   OH227195   2.092   0.354   2.954 -0.1635 -0.2479 -0.5669
 1927TIP3    H127196   2.183   0.356   2.981  0.1761 -1.0877 -1.5880
 1927TIP3    H227197   2.095   0.336   2.860 -1.3574  0.5782 -0.7836
 1928TIP3   OH227198   3.174   2.984   4.967  0.5638  0.1967  0.0479
 1928TIP3    H127199   3.197   3.072   4.997  1.5465  0.2208 -0.7088
 1928TIP3    H227200   3.180   2.929   5.045 -1.0010  0.9363  0.7432
 1929TIP3   OH227201   4.764   0.254  10.726  0.0377 -0.3166  0.0164
 1929TIP3    H127202   4.832   0.309  10.763  2.1107 -2.0105 -1.0271
 1929TIP3    H227203   4.730   0.304  10.651 -0.0749  0.6474  0.6963
 1930TIP3   OH227204   5.145   2.524  11.775 -0.6054 -0.8721 -0.4389
 1930TIP3    H127205   5.063   2.571  11.764 -1.0125 -1.1988  1.0209
 1930TIP3    H227206   5.213   2.591  11.762 -1.1674  0.0385  1.0862
 1931TIP3   OH227207   3.237   2.094  12.572  0.0874  0.2099  0.0931
 1931TIP3    H127208   3.158   2.046  12.546  0.6095 -0.9016  0.4898
 1931TIP3    H227209   3.296   2.026  12.606  0.2062  1.3252  2.3013
 1932TIP3   OH227210   0.917   2.765  10.839  0.3057  0.7016 -0.4137
 1932TIP3    H127211   0.843   2.710  10.863 -0.5675  2.1100  0.2602
 1932TIP3    H227212   0.884   2.854  10.847  1.2431  1.3531 -2.7830
 1933TIP3   OH227213   2.919   3.451   3.874  0.4648  0.1520 -0.0466
 1933TIP3    H127214   3.011   3.467   3.896 -0.5784  3.1693  2.8851
 1933TIP3    H227215   2.901   3.511   3.801  0.9650 -1.2172 -1.3671
 1934TIP3   OH227216   0.061   5.314  13.277 -0.8132 -0.3586 -0.3161
 1934TIP3    H127217  -0.028   5.293  13.247 -0.4055 -1.8606 -0.5396
 1934TIP3    H227218   0.082   5.396  13.234 -3.2250  1.7221  2.0640
 1935TIP3   OH227219   2.953   2.728  14.334  0.0251 -0.1339  0.2427
 1935TIP3    H127220   2.964   2.783  14.412 -1.0952 -0.8932  0.9577
 1935TIP3    H227221   2.994   2.645  14.357 -2.7615 -1.3693  1.1765
 1936TIP3   OH227222   2.185   0.780   3.999 -0.5295  0.5057 -0.1381
 1936TIP3    H127223   2.230   0.696   3.995  1.4698  1.5507 -1.0549
 1936TIP3    H227224   2.211   0.817   4.083  0.0787  0.9636 -0.5202
 1937TIP3   OH227225   6.782   6.167  14.858  0.5010  0.0712 -0.3641
 1937TIP3    H127226   6.813   6.091  14.810  2.2515  0.3972  0.1400
 1937TIP3    H227227   6.777   6.137  14.949  1.0317  0.4843 -0.1910
 1938TIP3   OH227228   4.330   3.910   5.611 -0.5642 -0.1177  0.3813
 1938TIP3    H127229   4.305   3.853   5.683  0.5080 -2.2728 -0.8453
 1938TIP3    H227230   4.257   3.904   5.550  0.1187 -1.3869 -0.3701
 1939TIP3   OH227231   2.260   1.931  13.105 -0.0540 -0.5347 -0.0892
 1939TIP3    H127232   2.227   1.847  13.137 -1.8921  0.2855  0.2850
 1939TIP3    H227233   2.217   1.943  13.020 -1.9059  1.1709  1.0012
 1940TIP3   OH227234   1.892   4.176  14.914 -0.4441 -0.0659 -0.1453
 1940TIP3    H127235   1.925   4.145  14.999 -1.2679 -2.3722 -0.5774
 1940TIP3    H227236   1.858   4.263  14.932 -0.7949 -0.5614  1.9651
 1941TIP3   OH227237   4.810   3.938  16.492 -0.0362  0.0428 -0.1029
 1941TIP3    H127238   4.766   3.866  16.537  0.1832 -0.6987 -1.0583
 1941TIP3    H227239   4.852   3.988  16.563  0.8690 -1.4789  0.4802
 1942TIP3   OH227240   5.113   0.369   4.134 -0.0821  0.4016  0.6051
 1942TIP3    H127241   5.052   0.440   4.155  0.4044  0.7328  0.9266
 1942TIP3    H227242   5.095   0.302   4.200 -2.7281 -1.1673 -1.5608
 1943TIP3   OH227243   5.443   3.544   5.396  0.2938 -0.1640  0.0961
 1943TIP3    H127244   5.402   3.458   5.405  1.3578 -0.4819  2.5401
 1943TIP3    H227245   5.388   3.603   5.447  0.8888  0.1077  0.4383
 1944TIP3   OH227246   4.653   2.506   5.525  0.9270 -0.4956  0.0992
 1944TIP3    H127247   4.688   2.569   5.461  1.9479 -0.5139  0.6075
 1944TIP3    H227248   4.676   2.545   5.610  3.3285 -2.4259  0.4439
 1945TIP3   OH227249   4.225   0.197  12.700  0.2978 -0.2681  0.2073
 1945TIP3    H127250   4.282   0.180  12.625  0.8896  0.6822  0.4242
 1945TIP3    H227251   4.282   0.184  12.776  0.4427  1.3503  0.4096
 1946TIP3   OH227252   4.571   2.421  16.001  1.2655 -0.0300 -0.0711
 1946TIP3    H127253   4.573   2.502  16.052  0.4102 -0.0560  0.0143
 1946TIP3    H227254   4.629   2.438  15.927  2.1711  0.1678  0.6630
 1947TIP3   OH227255   3.550   5.716   4.675  0.2519 -0.2042  0.1696
 1947TIP3    H127256   3.480   5.680   4.729 -0.7458  1.9837  0.4483
 1947TIP3    H227257   3.626   5.661   4.693 -1.5241 -3.1713 -0.7605
 1948TIP3   OH227258   4.281   1.276   5.603  0.0088  0.2563  0.4981
 1948TIP3    H127259   4.211   1.243   5.547 -0.2937  1.1881  0.3059
 1948TIP3    H227260   4.305   1.202   5.658 -0.8427 -0.1968  0.2779
 1949TIP3   OH227261   1.425   3.256  15.629 -0.0145  0.7175  0.3704
 1949TIP3    H127262   1.333   3.230  15.640  0.8534 -2.1594  1.7549
 1949TIP3    H227263   1.469   3.176  15.604  2.4826  1.5303  1.8548
 1950TIP3   OH227264   5.675   3.834   2.421 -0.8315 -0.1308 -0.1984
 1950TIP3    H127265   5.624   3.754   2.420 -0.5232 -0.3390 -1.7909
 1950TIP3    H227266   5.639   3.885   2.494 -0.1903 -2.2164  1.6797
 1951TIP3   OH227267   6.442   1.203   2.759  1.0394  0.4632 -0.0075
 1951TIP3    H127268   6.369   1.240   2.810 -0.6514 -0.7495 -1.4077
 1951TIP3    H227269   6.487   1.145   2.820  0.7008  1.0548  0.8294
 1952TIP3   OH227270   3.290   2.752  15.256 -0.1718 -0.1223  0.0912
 1952TIP3    H127271   3.291   2.843  15.226 -0.9382  0.6422  2.1728
 1952TIP3    H227272   3.229   2.708  15.197 -0.5158  0.9376 -0.3739
 1953TIP3   OH227273   1.246   3.322   1.131 -0.2981  0.0822  0.3254
 1953TIP3    H127274   1.253   3.326   1.036 -1.5980  0.1860  0.2191
 1953TIP3    H227275   1.168   3.373   1.152  0.1714  0.3546  1.4804
 1954TIP3   OH227276   3.538   4.231   4.311 -0.0094 -0.2081  0.0483
 1954TIP3    H127277   3.591   4.296   4.265 -0.9205 -0.7058 -1.8445
 1954TIP3    H227278   3.596   4.156   4.321  0.3908  0.1257  0.2530
 1955TIP3   OH227279   3.754   2.489   5.560  0.5678  0.2769 -0.1898
 1955TIP3    H127280   3.686   2.536   5.512  0.6789 -0.5330 -1.1675
 1955TIP3    H227281   3.809   2.450   5.492  0.5730 -1.1088  0.5774
 1956TIP3   OH227282   1.815   0.219  12.007 -0.6034 -0.1846  0.6238
 1956TIP3    H127283   1.836   0.206  11.915 -0.6818  2.1650  0.2197
 1956TIP3    H227284   1.893   0.187  12.053 -1.0316 -2.4958 -0.1145
 1957TIP3   OH227285   0.160   2.904   1.701 -0.5829 -0.1901  0.3340
 1957TIP3    H127286   0.145   2.817   1.665 -1.4537  0.7273 -1.6638
 1957TIP3    H227287   0.251   2.902   1.729 -1.0525 -2.2433  1.9069
 1958TIP3   OH227288   0.342   6.785   3.101  0.7183  0.0616  0.2496
 1958TIP3    H127289   0.383   6.830   3.174  0.0653  2.4010 -0.7239
 1958TIP3    H227290   0.268   6.739   3.139  1.3724 -0.1497  1.2884
 1959TIP3   OH227291   6.747   3.716  15.497 -0.6726 -0.4579  0.0878
 1959TIP3    H127292   6.711   3.639  15.541 -0.7644 -0.8231 -0.6168
 1959TIP3    H227293   6.776   3.684  15.412 -1.7863  0.5061 -0.6946
 1960TIP3   OH227294   4.319   3.033  14.077 -0.1695 -0.2996 -0.0160
 1960TIP3    H127295   4.356   2.947  14.096 -0.3652 -0.2449  0.6103
 1960TIP3    H227296   4.281   3.023  13.989  0.0448 -0.7709 -0.0609
 1961TIP3   OH227297   4.432   3.320   2.362 -0.0381 -0.2456 -0.4817
 1961TIP3    H127298   4.385   3.263   2.422 -4.4004  1.4472 -1.8521
 1961TIP3    H227299   4.517   3.335   2.403 -1.6559 -1.4265  3.7627
 1962TIP3   OH227300   5.839   2.913   0.323  0.0142  0.3529  0.4240
 1962TIP3    H127301   5.885   2.830   0.336 -2.6440 -1.0861  1.6853
 1962TIP3    H227302   5.853   2.962   0.404  1.0613  0.8976 -0.0686
 1963TIP3   OH227303   6.524   4.840   0.225 -0.0125 -0.0962 -0.2347
 1963TIP3    H127304   6.481   4.771   0.275 -1.0882  0.1157 -0.8466
 1963TIP3    H227305   6.617   4.816   0.227  0.2876  0.7527  3.2309
 1964TIP3   OH227306   0.813   2.510  13.816  0.1444 -0.1266 -0.3226
 1964TIP3    H127307   0.786   2.435  13.869 -0.9281  0.1198 -0.5041
 1964TIP3    H227308   0.839   2.577  13.879  0.6717 -0.4914 -0.1514
 1965TIP3   OH227309   3.964   6.630  15.271  0.2496 -0.2298 -0.1866
 1965TIP3    H127310   4.025   6.622  15.344  0.2797  0.4785 -0.1198
 1965TIP3    H227311   3.879   6.610  15.308  0.5672 -2.4290 -0.5539
 1966TIP3   OH227312   1.849   3.935   1.196 -0.0095  0.4365 -0.5040
 1966TIP3    H127313   1.797   3.996   1.144  2.6535  1.6239 -1.9751
 1966TIP3    H227314   1.847   3.971   1.285 -0.2450  1.4823 -0.9203
 1967TIP3   OH227315   5.649   4.580   0.031 -0.2089 -0.2028  0.4326
 1967TIP3    H127316   5.690   4.666   0.030 -0.4603 -0.0678 -1.2021
 1967TIP3    H227317   5.570   4.592   0.084 -0.9920  0.9803 -0.9212
 1968TIP3   OH227318   5.010   5.920  11.234  0.3193 -0.1223 -0.0684
 1968TIP3    H127319   4.929   5.883  11.197 -0.3794 -0.8823  2.0553
 1968TIP3    H227320   5.057   5.844  11.268  0.6286  0.5763  1.1098
 1969TIP3   OH227321   4.942   5.094  14.668  0.0162  0.2933 -0.0870
 1969TIP3    H127322   4.895   5.087  14.585 -0.2658  1.7601 -0.0711
 1969TIP3    H227323   5.027   5.053  14.651 -0.8696 -1.5141 -0.3972
 1970TIP3   OH227324   1.631   6.528  11.136 -0.1769  0.0106  0.0487
 1970TIP3    H127325   1.581   6.451  11.110  1.0381 -0.3183 -1.4117
 1970TIP3    H227326   1.618   6.533  11.231 -1.0185 -1.4486  0.0440
 1971TIP3   OH227327   3.014   2.363  16.419 -0.4295 -0.1820 -0.2582
 1971TIP3    H127328   2.975   2.282  16.453 -0.5009 -0.0481 -0.0183
 1971TIP3    H227329   2.952   2.394  16.353 -0.2120 -0.5282 -0.6256
 1972TIP3   OH227330   5.108   3.763  14.945  0.1082 -0.3002  0.7230
 1972TIP3    H127331   5.200   3.763  14.919 -0.6414  1.8507 -2.4590
 1972TIP3    H227332   5.109   3.791  15.037  2.6119 -1.3920  1.1227
 1973TIP3   OH227333   4.293   5.944  14.911  0.0651  0.4460  0.1133
 1973TIP3    H127334   4.234   6.018  14.923 -1.4042 -0.2694 -2.0215
 1973TIP3    H227335   4.250   5.870  14.953  1.2862  0.6423  1.8006
 1974TIP3   OH227336   4.654   3.130   1.984 -0.5817 -0.7029  0.6891
 1974TIP3    H127337   4.729   3.148   2.041 -0.2296 -2.0493  0.6975
 1974TIP3    H227338   4.629   3.040   2.006 -2.8177  0.0169  1.3523
 1975TIP3   OH227339   6.319   0.395  13.726 -0.8255 -0.1601  0.2379
 1975TIP3    H127340   6.321   0.300  13.734  0.8056  0.0029  2.7876
 1975TIP3    H227341   6.407   0.420  13.698 -0.8399  0.6514  0.8576
 1976TIP3   OH227342   2.642   4.629   3.060 -0.1922  0.8812 -0.3098
 1976TIP3    H127343   2.710   4.679   3.015  0.6585  0.0543  0.0296
 1976TIP3    H227344   2.684   4.597   3.140 -0.1815 -1.7233 -1.2657
 1977TIP3   OH227345   1.679   5.531   2.529 -0.7175 -0.4189 -0.4615
 1977TIP3    H127346   1.739   5.606   2.527 -0.3796 -0.6257 -3.7596
 1977TIP3    H227347   1.733   5.458   2.558 -0.2578  0.0335 -0.1601
 1978TIP3   OH227348   0.703   2.497  14.308  0.6819  0.0360  0.0050
 1978TIP3    H127349   0.694   2.449  14.390  1.7767  0.1421  0.2000
 1978TIP3    H227350   0.614   2.527  14.288  0.2986 -0.5177  0.8172
 1979TIP3   OH227351   1.947   3.091   6.117 -0.1510  0.1536 -0.2500
 1979TIP3    H127352   1.921   3.156   6.183  1.5151 -1.0433  1.6815
 1979TIP3    H227353   1.887   3.018   6.131  1.8081 -1.1829  1.8555
 1980TIP3   OH227354   5.142   0.141   0.079 -0.1539  0.1600  0.2295
 1980TIP3    H127355   5.210   0.090   0.123  1.0598  0.1911 -1.5104
 1980TIP3    H227356   5.147   0.228   0.118  0.8036  0.1505  0.1440
 1981TIP3   OH227357   0.160   0.950   3.230  0.4983  0.5661 -0.0488
 1981TIP3    H127358   0.148   1.001   3.310  1.5611  0.4610  0.1950
 1981TIP3    H227359   0.141   0.860   3.256 -2.9095  0.9210 -0.8356
 1982TIP3   OH227360   4.618   5.311   2.791 -0.5208 -0.3073  0.6023
 1982TIP3    H127361   4.606   5.376   2.722  0.6359 -0.4109  0.2790
 1982TIP3    H227362   4.659   5.236   2.747 -0.4108 -0.6423  1.2589
 1983TIP3   OH227363   2.964   1.119  13.428 -0.4293  0.2859 -0.0568
 1983TIP3    H127364   3.046   1.167  13.412 -0.6320  0.4607 -0.5960
 1983TIP3    H227365   2.988   1.051  13.491  0.1844  0.1850 -0.3909
 1984TIP3   OH227366   6.073   5.710  11.325  0.3914  0.6323  0.2188
 1984TIP3    H127367   6.058   5.616  11.326 -0.5920  0.7820  0.7490
 1984TIP3    H227368   6.043   5.738  11.238 -3.2052  0.9989  1.4203
 1985TIP3   OH227369   2.164   4.524   5.243 -0.0097 -0.2397 -1.1017
 1985TIP3    H127370   2.255   4.510   5.217 -0.1594 -1.0928 -1.1975
 1985TIP3    H227371   2.165   4.518   5.339 -0.0023 -0.4630 -1.1161
 1986TIP3   OH227372   4.661   1.308  17.022  0.3930 -0.1526 -0.1411
 1986TIP3    H127373   4.681   1.386  16.970  1.7923  0.5835  1.4459
 1986TIP3    H227374   4.719   1.241  16.987 -0.5042 -0.4033 -1.2165
 1987TIP3   OH227375   4.616   2.012  11.978  0.0932  0.1704 -0.0207
 1987TIP3    H127376   4.631   1.982  11.888  1.1373  0.4336  0.0574
 1987TIP3    H227377   4.570   2.096  11.968  1.2634  0.7959 -0.3587
 1988TIP3   OH227378   1.995   1.262  14.474  0.4234 -0.8537 -0.3447
 1988TIP3    H127379   1.901   1.279  14.465  0.3088 -1.9749 -1.5935
 1988TIP3    H227380   2.019   1.303  14.557 -0.4602  2.3431 -1.5113
 1989TIP3   OH227381   0.757   1.791   2.578 -0.1843  0.1731  0.2885
 1989TIP3    H127382   0.668   1.825   2.587  0.0161  1.0163 -0.7345
 1989TIP3    H227383   0.807   1.864   2.542  0.9273 -0.2958  0.8235
 1990TIP3   OH227384   4.961   4.366   4.661 -0.1843  0.4754  0.3992
 1990TIP3    H127385   4.925   4.316   4.588 -0.9562 -0.7789  1.6070
 1990TIP3    H227386   4.975   4.454   4.624 -0.3759 -0.1593 -1.2907
 1991TIP3   OH227387   5.392   3.208   3.679 -0.0350  0.8736 -0.2630
 1991TIP3    H127388   5.440   3.126   3.669 -1.2347  0.2734 -1.3766
 1991TIP3    H227389   5.350   3.201   3.765 -1.2875 -0.3554 -0.9324
 1992TIP3   OH227390   3.963   4.308   2.571  0.4696  0.3984  0.1357
 1992TIP3    H127391   3.884   4.355   2.544 -0.5609 -0.1121  2.0949
 1992TIP3    H227392   4.031   4.342   2.514 -1.0404  1.2511 -1.2686
 1993TIP3   OH227393   6.265   1.767  12.462  0.0587 -0.1222 -0.2270
 1993TIP3    H127394   6.297   1.840  12.516  0.5116 -0.1539 -0.4444
 1993TIP3    H227395   6.171   1.765  12.478  0.1418  0.0702  0.3189
 1994TIP3   OH227396   5.198   2.913  14.699  0.4212 -0.2247  0.1304
 1994TIP3    H127397   5.194   2.942  14.608  0.5710 -1.1167 -0.1793
 1994TIP3    H227398   5.270   2.962  14.737  0.3140  0.2053 -0.2123
 1995TIP3   OH227399   5.906   0.446  13.039 -0.3757 -0.3501 -0.2216
 1995TIP3    H127400   5.862   0.531  13.036 -2.2835 -1.2779  0.1089
 1995TIP3    H227401   5.985   0.459  12.987 -1.6018  1.0892 -1.8671
 1996TIP3   OH227402   6.184   2.166  16.474 -0.5868  0.5320 -0.2895
 1996TIP3    H127403   6.092   2.185  16.490 -1.2328 -1.3058 -1.5366
 1996TIP3    H227404   6.203   2.208  16.390 -0.8879 -0.7660 -1.0341
 1997TIP3   OH227405   3.292   5.944  11.069 -0.1104 -0.3257  0.1971
 1997TIP3    H127406   3.212   5.903  11.103 -0.7012  0.6841  0.0699
 1997TIP3    H227407   3.362   5.883  11.092 -0.6666 -0.3465  1.9835
 1998TIP3   OH227408   2.442   4.455  11.102  0.4564  0.0461  0.0468
 1998TIP3    H127409   2.415   4.494  11.185  1.1413 -0.6735  0.6301
 1998TIP3    H227410   2.531   4.423  11.118  1.0430  0.9067 -1.3199
 1999TIP3   OH227411   5.095   3.435  14.418  0.8046  0.9405  0.1617
 1999TIP3    H127412   5.042   3.490  14.360  0.1556 -0.3401 -0.5077
 1999TIP3    H227413   5.184   3.441  14.383  0.3403 -0.1656 -1.2699
 2000TIP3   OH227414   3.235   1.262  13.646 -0.0886 -0.6340 -0.3851
 2000TIP3    H127415   3.282   1.180  13.630  0.7225 -0.1044 -0.7509
 2000TIP3    H227416   3.144   1.235  13.657  0.4548 -1.8630  1.7795
 2001TIP3   OH227417   1.738   6.231   1.055  0.0784  0.6663  0.1080
 2001TIP3    H127418   1.760   6.139   1.072 -1.4085  0.2681 -0.0182
 2001TIP3    H227419   1.715   6.233   0.962 -3.0163  0.4462  0.7490
 2002TIP3   OH227420   0.171   5.920  11.990  0.3391  0.0520 -0.3631
 2002TIP3    H127421   0.157   5.825  11.994 -1.2649  0.3185  3.2629
 2002TIP3    H227422   0.177   5.948  12.081 -0.9394  3.6939 -1.2352
 2003TIP3   OH227423   0.932   2.645   4.898  0.3220  0.6935  0.5385
 2003TIP3    H127424   1.006   2.596   4.936 -1.6406 -2.5446  0.5298
 2003TIP3    H227425   0.919   2.718   4.959  2.4417  0.4110  1.4469
 2004TIP3   OH227426   6.571   6.231  12.306 -0.0064 -0.0722 -0.1220
 2004TIP3    H127427   6.566   6.258  12.215 -2.3328 -0.1676 -0.0852
 2004TIP3    H227428   6.583   6.137  12.303  1.4334  0.1022 -0.2948
 2005TIP3   OH227429   6.075   3.042   5.985 -0.0305  0.3477  0.1590
 2005TIP3    H127430   5.999   2.989   6.004 -0.3991  0.3369 -1.2166
 2005TIP3    H227431   6.123   3.047   6.067 -0.2943 -1.6033  0.4605
 2006TIP3   OH227432   5.061   2.055  11.559  0.9232 -0.6272  0.2934
 2006TIP3    H127433   5.002   2.087  11.491 -0.4166 -2.3014  0.5946
 2006TIP3    H227434   5.141   2.030  11.512  0.0121 -1.7730 -0.7174
 2007TIP3   OH227435   2.357   1.482   5.174 -0.0609 -0.4307 -0.0154
 2007TIP3    H127436   2.366   1.424   5.250 -0.7601 -1.2904 -0.5706
 2007TIP3    H227437   2.445   1.519   5.162 -0.4099  1.5592  2.5998
 2008TIP3   OH227438   0.664   5.065  10.850 -0.3055 -0.3500 -0.5259
 2008TIP3    H127439   0.596   4.999  10.856 -1.0342  0.4009 -0.3642
 2008TIP3    H227440   0.642   5.115  10.771 -0.4234  0.4252 -0.0055
 2009TIP3   OH227441   4.988   6.479  12.201  0.6900  0.3449  0.0275
 2009TIP3    H127442   5.059   6.542  12.185  0.9271 -0.4919 -2.9609
 2009TIP3    H227443   4.923   6.500  12.134  0.5983 -2.2735 -0.8140
 2010TIP3   OH227444   6.051   3.570  14.580  0.1142 -0.2274  0.1087
 2010TIP3    H127445   6.052   3.653  14.531  2.0070 -0.7599 -0.8713
 2010TIP3    H227446   6.104   3.588  14.658 -0.0758 -0.3208  0.2600
 2011TIP3   OH227447   1.552   4.734  12.464 -0.1088 -0.5769 -0.0101
 2011TIP3    H127448   1.484   4.747  12.398 -0.1919 -1.4134 -0.0979
 2011TIP3    H227449   1.534   4.647  12.500  0.7847 -0.7103  0.1303
 2012TIP3   OH227450   1.165   4.916   6.057 -0.8016 -0.3179 -0.2115
 2012TIP3    H127451   1.164   4.969   5.978  0.5779 -0.6331 -0.4578
 2012TIP3    H227452   1.075   4.921   6.090 -0.9349  1.4044 -0.7237
 2013TIP3   OH227453   0.275   1.668  12.692  0.0468 -0.8534  0.0916
 2013TIP3    H127454   0.342   1.711  12.639 -1.0799  0.6142 -0.2113
 2013TIP3    H227455   0.323   1.602  12.743  1.8318  0.6767  0.4990
 2014TIP3   OH227456   2.838   4.872   2.957 -0.4603 -0.1560  0.2067
 2014TIP3    H127457   2.785   4.942   2.994 -1.6912 -0.0636 -1.6037
 2014TIP3    H227458   2.928   4.893   2.984 -1.1178  0.5027  2.0920
 2015TIP3   OH227459   0.616   5.781  13.225 -0.0041  0.0627 -0.0281
 2015TIP3    H127460   0.626   5.781  13.321  0.4093  0.5583 -0.0625
 2015TIP3    H227461   0.633   5.872  13.200  1.4296 -0.3656 -0.7230
 2016TIP3   OH227462   3.564   6.439   5.554  0.0800  0.0969  0.0661
 2016TIP3    H127463   3.552   6.425   5.647  2.2217  0.4620  0.4374
 2016TIP3    H227464   3.542   6.355   5.514  2.6281 -1.2433  1.2746
 2017TIP3   OH227465   2.468   0.777  11.853 -0.2317  0.3839 -0.1564
 2017TIP3    H127466   2.461   0.748  11.944 -2.2010 -0.1223 -0.4191
 2017TIP3    H227467   2.471   0.696  11.802  0.7489  0.6649 -0.5656
 2018TIP3   OH227468   1.521   4.992  13.430  0.4323  0.0604 -1.0412
 2018TIP3    H127469   1.503   5.015  13.339 -0.3534 -0.6604 -1.0715
 2018TIP3    H227470   1.438   4.959  13.464  1.0937 -1.0997 -0.5045
 2019TIP3   OH227471   4.147   4.624  13.537 -0.2835  0.2371 -0.3134
 2019TIP3    H127472   4.217   4.665  13.486  0.3512 -0.9941 -0.4696
 2019TIP3    H227473   4.169   4.643  13.628  1.1077 -1.3409 -0.2577
 2020TIP3   OH227474   1.697   1.751  12.173  0.1269  0.0530 -0.4193
 2020TIP3    H127475   1.783   1.713  12.194 -0.2805  0.0921  1.5240
 2020TIP3    H227476   1.635   1.693  12.217 -1.0588 -1.0981 -3.3667
 2021TIP3   OH227477   0.449   1.325   6.277 -0.6848  0.4463  0.1563
 2021TIP3    H127478   0.523   1.352   6.222 -0.7220 -2.3219 -1.4128
 2021TIP3    H227479   0.486   1.261   6.338 -1.4931  0.1540  0.3537
 2022TIP3   OH227480   2.348   6.409  11.750 -0.3653 -0.2524  0.1035
 2022TIP3    H127481   2.384   6.322  11.735 -1.9483 -0.6717 -1.5839
 2022TIP3    H227482   2.355   6.423  11.844  0.5243 -1.9093  0.3077
 2023TIP3   OH227483   5.333   4.955   1.061 -0.0633  0.6528 -0.0566
 2023TIP3    H127484   5.326   4.885   1.126  1.4394 -1.2620 -1.8580
 2023TIP3    H227485   5.419   4.994   1.077 -0.7123  1.8895  0.6512
 2024TIP3   OH227486   2.987   0.996  12.819  0.0325  0.7366 -0.1959
 2024TIP3    H127487   2.939   0.984  12.901 -0.5174 -0.2183 -0.6347
 2024TIP3    H227488   3.011   1.088  12.819 -0.0039  0.7685  1.0076
 2025TIP3   OH227489   2.803   4.216   3.422  0.5414 -0.2016  0.1906
 2025TIP3    H127490   2.811   4.176   3.508 -1.2473  0.4009  0.6890
 2025TIP3    H227491   2.815   4.309   3.437 -1.3181  0.0978  0.1073
 2026TIP3   OH227492   2.413   6.648   0.288 -0.4578 -0.2626  0.0437
 2026TIP3    H127493   2.492   6.595   0.294 -1.6969 -2.0762  1.2800
 2026TIP3    H227494   2.383   6.636   0.198  0.1005 -0.4188 -0.1236
 2027TIP3   OH227495   4.066   6.143   3.167 -0.0913 -0.1861  0.7672
 2027TIP3    H127496   4.114   6.086   3.228  0.3187 -2.1133 -1.2419
 2027TIP3    H227497   3.991   6.174   3.218  1.1009 -0.3710  2.7515
 2028TIP3   OH227498   5.031   3.837  16.239  0.0010 -0.4011  0.2652
 2028TIP3    H127499   4.973   3.795  16.301 -0.3550 -1.4717 -0.7513
 2028TIP3    H227500   5.106   3.866  16.291 -1.6992  1.6453  1.7185
 2029TIP3   OH227501   0.814   6.279  13.290 -0.0288 -0.2513 -0.0883
 2029TIP3    H127502   0.895   6.331  13.296  0.0804 -0.2497 -1.3546
 2029TIP3    H227503   0.745   6.344  13.279  0.0600 -0.3211 -1.2239
 2030TIP3   OH227504   4.824   5.415  12.719 -0.0575  0.2135  0.6116
 2030TIP3    H127505   4.901   5.370  12.686 -0.4254 -0.9870  1.3342
 2030TIP3    H227506   4.857   5.474  12.786  0.1644 -0.8936  1.5025
 2031TIP3   OH227507   6.262   3.403   2.310  0.1067  0.5631  0.3276
 2031TIP3    H127508   6.175   3.406   2.351  0.5944 -0.1588  1.4768
 2031TIP3    H227509   6.322   3.423   2.381  0.9723 -0.3691 -0.1204
 2032TIP3   OH227510   2.603   0.160   1.330 -0.6040  0.4109 -0.2808
 2032TIP3    H127511   2.681   0.212   1.314  0.0498 -0.9517 -1.8628
 2032TIP3    H227512   2.629   0.095   1.394 -0.9531  0.9755  0.4547
 2033TIP3   OH227513   1.553   5.148  14.473  0.2754 -0.2470 -0.0130
 2033TIP3    H127514   1.607   5.076  14.441 -1.2529 -1.1701 -0.5881
 2033TIP3    H227515   1.479   5.106  14.517 -0.1309  0.9858  0.5353
 2034TIP3   OH227516   4.466   3.015  11.489 -0.2331 -0.0962 -0.4991
 2034TIP3    H127517   4.504   3.102  11.483  2.8726 -1.3659 -1.5717
 2034TIP3    H227518   4.515   2.973  11.560  0.4497 -1.8268 -1.9100
 2035TIP3   OH227519   3.148   5.577  15.211  0.1578 -0.2814 -0.0870
 2035TIP3    H127520   3.140   5.672  15.205 -0.1828 -0.3159 -0.1838
 2035TIP3    H227521   3.169   5.549  15.122  0.9522 -0.2331  0.0769
 2036TIP3   OH227522   4.202   0.299   0.270  0.0927  0.3243  1.2237
 2036TIP3    H127523   4.178   0.322   0.180 -1.0024 -0.0787  1.3958
 2036TIP3    H227524   4.194   0.381   0.319 -2.7638 -0.0842  1.6243
 2037TIP3   OH227525   0.810   3.095   3.797 -0.4562 -0.1006 -0.2106
 2037TIP3    H127526   0.844   3.154   3.864 -1.5309  0.1717  0.1116
 2037TIP3    H227527   0.868   3.019   3.801 -0.1596  0.1531  0.6321
 2038TIP3   OH227528   0.024   4.798   6.148 -0.4540 -0.6250 -0.2689
 2038TIP3    H127529  -0.050   4.750   6.183  0.0358 -1.4032 -0.2770
 2038TIP3    H227530   0.083   4.810   6.223 -0.1217 -0.9131 -0.4825
 2039TIP3   OH227531   0.344   5.712   4.890  0.4914 -0.2540  0.0464
 2039TIP3    H127532   0.397   5.769   4.835 -0.6582  1.8014  0.9641
 2039TIP3    H227533   0.259   5.708   4.845  0.3898 -0.7956  0.2774
 2040TIP3   OH227534   2.615   4.244   0.081 -0.2794  0.2256  0.1219
 2040TIP3    H127535   2.598   4.338   0.079 -0.4015  0.1976 -0.2657
 2040TIP3    H227536   2.709   4.235   0.063 -0.5220  0.2112 -1.2326
 2041TIP3   OH227537   3.548   4.341  14.272  0.7914  0.3000 -0.1606
 2041TIP3    H127538   3.454   4.356  14.286  0.3317 -1.4326 -1.1958
 2041TIP3    H227539   3.575   4.414  14.216  0.0610  0.7581  0.0560
 2042TIP3   OH227540   3.415   0.695  11.523 -0.2554 -0.5725  0.1908
 2042TIP3    H127541   3.346   0.633  11.499  1.2394 -1.8500 -1.0530
 2042TIP3    H227542   3.492   0.640  11.537  0.9641  0.9468 -0.2976
 2043TIP3   OH227543   6.405   5.128   6.170 -0.0042  0.1813 -0.1719
 2043TIP3    H127544   6.482   5.079   6.142  0.7970  0.8451  0.8302
 2043TIP3    H227545   6.383   5.183   6.095  0.5246  0.0296 -0.4435
 2044TIP3   OH227546   0.475   5.288  13.193 -0.0237 -0.1582 -0.6080
 2044TIP3    H127547   0.495   5.352  13.261  0.0210 -1.4279  0.6255
 2044TIP3    H227548   0.448   5.340  13.117  0.2070  1.3037  0.2875
 2045TIP3   OH227549   6.639   6.484  11.544 -0.3103 -0.1728  1.3353
 2045TIP3    H127550   6.636   6.549  11.473  1.9903 -0.2583  1.0735
 2045TIP3    H227551   6.586   6.411  11.512  0.3237 -0.0284 -0.1374
 2046TIP3   OH227552   2.675   0.703  12.503  0.3794  0.0995 -0.3659
 2046TIP3    H127553   2.739   0.714  12.574 -0.5829  1.0629  0.3833
 2046TIP3    H227554   2.591   0.702  12.548 -0.1723 -0.5627 -1.3994
 2047TIP3   OH227555   4.638   0.512  13.088  0.3138 -0.3812  0.0829
 2047TIP3    H127556   4.558   0.556  13.058  0.2167 -0.3061  0.4406
 2047TIP3    H227557   4.622   0.496  13.181  0.6247 -0.5708  0.1033
 2048TIP3   OH227558   2.585   2.220   0.178 -0.5116  0.1155  0.5374
 2048TIP3    H127559   2.592   2.197   0.271  1.9174  0.7297  0.5599
 2048TIP3    H227560   2.640   2.156   0.133 -0.7251  0.5368 -0.3454
 2049TIP3   OH227561   6.032   1.705   3.486 -0.1998 -0.3591  0.0685
 2049TIP3    H127562   6.030   1.775   3.421 -0.9503  0.3755  0.8621
 2049TIP3    H227563   6.071   1.744   3.564  1.4834 -1.4630 -0.1592
 2050TIP3   OH227564   0.676   2.277   6.113 -0.4007 -0.0843  0.0690
 2050TIP3    H127565   0.756   2.328   6.123  0.3295 -0.7983 -1.8021
 2050TIP3    H227566   0.704   2.186   6.121 -1.4496 -0.3085  1.8407
 2051TIP3   OH227567   2.515   3.503   2.489 -0.1371  0.5569 -0.6887
 2051TIP3    H127568   2.577   3.531   2.422  1.8201  0.1926  0.8457
 2051TIP3    H227569   2.543   3.414   2.512 -0.9175  0.5649  0.3860
 2052TIP3   OH227570   1.277   6.286  15.847  0.5863  0.0156 -0.5061
 2052TIP3    H127571   1.311   6.366  15.808  1.9599 -0.3839 -0.1752
 2052TIP3    H227572   1.351   6.226  15.849 -0.2151 -1.0025 -0.0323
 2053TIP3   OH227573   1.938   4.255  13.571 -0.0217  0.2181 -0.6409
 2053TIP3    H127574   1.982   4.215  13.646  0.2779  0.1707 -0.8390
 2053TIP3    H227575   1.978   4.213  13.494  0.5989  1.2017 -0.8632
 2054TIP3   OH227576   3.414   0.032  13.331  0.1917  0.4063  0.1575
 2054TIP3    H127577   3.457   0.021  13.246 -0.1856 -0.4987  0.0689
 2054TIP3    H227578   3.323   0.052  13.309  0.2767  1.0001  0.3477
 2055TIP3   OH227579   2.792   5.815   3.502  0.4069  0.2179  0.0698
 2055TIP3    H127580   2.761   5.739   3.552 -1.8068  1.3337  0.5135
 2055TIP3    H227581   2.785   5.888   3.564 -1.6328  1.4940 -1.5496
 2056TIP3   OH227582   4.841   5.138  15.481 -0.2504  0.0672 -0.5405
 2056TIP3    H127583   4.901   5.085  15.535 -1.3363 -1.1546 -0.4892
 2056TIP3    H227584   4.839   5.223  15.524  3.2439  0.9784 -1.8132
 2057TIP3   OH227585   3.599   5.001  13.354  0.0300 -0.4059 -0.0485
 2057TIP3    H127586   3.538   5.073  13.338 -0.7955 -1.4795 -1.9375
 2057TIP3    H227587   3.559   4.925  13.313  1.9878 -1.4556 -0.1222
 2058TIP3   OH227588   3.452   3.762  15.456 -0.3489 -0.4392  0.3618
 2058TIP3    H127589   3.449   3.666  15.449  1.7017 -0.5027 -0.3473
 2058TIP3    H227590   3.452   3.792  15.366  0.7929  0.1299  0.5418
 2059TIP3   OH227591   6.420   5.345   5.193 -0.2464 -0.2769 -0.3301
 2059TIP3    H127592   6.414   5.435   5.228 -0.7841 -0.0148 -1.0817
 2059TIP3    H227593   6.385   5.290   5.263 -3.2549  0.4250 -1.1595
 2060TIP3   OH227594   6.254   3.398  12.007  0.4699  0.1304  0.3729
 2060TIP3    H127595   6.257   3.493  12.003 -0.0691  0.1995  1.2541
 2060TIP3    H227596   6.166   3.378  12.040  0.6152 -0.6655  0.3015
 2061TIP3   OH227597   1.550   5.508   3.214  0.6007 -0.0770 -0.0233
 2061TIP3    H127598   1.593   5.594   3.217  1.5889 -0.5788  0.9691
 2061TIP3    H227599   1.494   5.507   3.292 -1.0154  0.4310 -1.1175
 2062TIP3   OH227600   5.325   0.699  11.394  0.3424  0.2315 -0.4790
 2062TIP3    H127601   5.372   0.617  11.408  0.1698  0.0371 -1.0226
 2062TIP3    H227602   5.393   0.765  11.385  0.4773  0.1799  0.1408
 2063TIP3   OH227603   4.353   0.789  11.692  0.5745  0.0115 -0.1740
 2063TIP3    H127604   4.368   0.883  11.685  0.8507  0.2551  2.6542
 2063TIP3    H227605   4.440   0.751  11.701  0.3509 -0.1703  1.5150
 2064TIP3   OH227606   5.755   1.125   6.092 -0.4292  0.0516  0.1988
 2064TIP3    H127607   5.683   1.114   6.029 -0.1899 -1.8230  0.1873
 2064TIP3    H227608   5.778   1.035   6.116  1.7026  0.6282  0.4485
 2065TIP3   OH227609   1.187   5.362   4.162 -0.2235 -0.7662  0.1458
 2065TIP3    H127610   1.132   5.328   4.091  0.1388 -0.6381 -0.2008
 2065TIP3    H227611   1.276   5.358   4.127  0.0586 -1.5040  0.9054
 2066TIP3   OH227612   4.031   0.590   2.240 -0.3890  0.2231 -0.6052
 2066TIP3    H127613   3.946   0.546   2.241  0.4266 -1.5262  1.8056
 2066TIP3    H227614   4.016   0.673   2.283 -0.5264 -1.0989  2.1117
 2067TIP3   OH227615   6.236   1.947  15.821 -0.8617 -0.3694  0.3837
 2067TIP3    H127616   6.222   2.041  15.829  0.6143  0.0606 -1.3269
 2067TIP3    H227617   6.302   1.926  15.887 -0.4172  0.0002  0.0549
 2068TIP3   OH227618   1.850   5.426  13.998 -0.3840 -0.1120  0.8832
 2068TIP3    H127619   1.853   5.484  14.074  1.0620  0.1583  0.6438
 2068TIP3    H227620   1.904   5.351  14.022  2.4168  1.1693 -0.7524
 2069TIP3   OH227621   4.519   4.549  16.842  0.1157  1.1021 -0.1649
 2069TIP3    H127622   4.538   4.566  16.749 -0.9002  1.6383 -0.2843
 2069TIP3    H227623   4.430   4.516  16.842  0.7758 -0.7994  0.4480
 2070TIP3   OH227624   4.647   5.900   5.767  0.3398 -0.0176 -0.1781
 2070TIP3    H127625   4.729   5.899   5.817  0.0410 -0.8529  0.3242
 2070TIP3    H227626   4.643   5.987   5.729  2.1777 -0.4288 -1.4252
 2071TIP3   OH227627   3.207   1.132   0.304  0.0777  0.0505 -0.4576
 2071TIP3    H127628   3.229   1.043   0.275  0.9246  0.1004  0.0084
 2071TIP3    H227629   3.291   1.179   0.305 -0.2228  0.5988  0.1721
 2072TIP3   OH227630   4.742   1.720  16.600  0.2255 -0.5944  0.3135
 2072TIP3    H127631   4.717   1.628  16.590  1.9579 -1.1803  0.8727
 2072TIP3    H227632   4.799   1.721  16.677  0.2657  0.9562  0.3001
 2073TIP3   OH227633   0.094   1.910  12.437 -0.5238  0.0428  0.3943
 2073TIP3    H127634   0.048   1.894  12.355 -0.0920  1.5216 -0.1593
 2073TIP3    H227635   0.163   1.972  12.415  1.1839 -1.3821  1.3847
 2074TIP3   OH227636   1.586   6.054   5.323  0.2590 -0.0424 -0.3267
 2074TIP3    H127637   1.596   5.968   5.281 -0.4727 -0.2304 -0.1435
 2074TIP3    H227638   1.670   6.070   5.365 -0.3364 -1.8104  1.7203
 2075TIP3   OH227639   2.493   3.895  16.348 -0.5828 -0.0762  0.0615
 2075TIP3    H127640   2.405   3.870  16.322  0.1027 -1.6974 -0.8009
 2075TIP3    H227641   2.524   3.822  16.402  0.3703  0.3024  0.0437
 2076TIP3   OH227642   2.717   0.307  14.678 -0.0551  0.3535  0.1342
 2076TIP3    H127643   2.641   0.306  14.620 -0.5792 -0.0061  0.8034
 2076TIP3    H227644   2.785   0.350  14.628  0.1605 -1.8019 -1.5584
 2077TIP3   OH227645   5.892   6.712  16.482 -0.5489 -0.6055 -0.4337
 2077TIP3    H127646   5.847   6.629  16.465 -0.8931 -0.4156 -0.4652
 2077TIP3    H227647   5.856   6.772  16.417 -0.8132 -0.2514  0.0325
 2078TIP3   OH227648   4.737   4.445   2.144  0.2711  0.4322  0.3597
 2078TIP3    H127649   4.665   4.454   2.206 -0.1071  1.3170 -0.1980
 2078TIP3    H227650   4.699   4.401   2.068  0.5054  0.2132  0.3652
 2079TIP3   OH227651   6.393   2.771  14.005  0.3120 -0.1643  0.1234
 2079TIP3    H127652   6.343   2.826  13.944  1.8979  2.9141  1.3657
 2079TIP3    H227653   6.350   2.685  14.001 -1.3749  0.6665 -3.1394
 2080TIP3   OH227654   1.755   0.966  14.793 -0.1146 -0.0555 -0.2850
 2080TIP3    H127655   1.836   1.000  14.831 -0.6031  0.4600  0.3206
 2080TIP3    H227656   1.740   0.883  14.839  0.0071 -0.0967 -0.3188
 2081TIP3   OH227657   4.912   6.679  12.409  0.3065 -0.3920  0.2195
 2081TIP3    H127658   4.905   6.648  12.318 -0.9893 -0.5985  0.3698
 2081TIP3    H227659   4.845   6.630  12.456 -2.2912  2.9564  0.3720
 2082TIP3   OH227660   0.627   4.311  14.135  0.1796  0.2056  0.4654
 2082TIP3    H127661   0.678   4.360  14.199  1.5113 -1.1548  0.4949
 2082TIP3    H227662   0.624   4.368  14.058  2.4316  0.0434  0.1948
 2083TIP3   OH227663   3.504   1.837   4.984  0.3388  0.0502  0.1597
 2083TIP3    H127664   3.596   1.858   4.996  0.5919 -0.5573 -0.6090
 2083TIP3    H227665   3.475   1.894   4.912 -0.0644  0.7075  0.8328
 2084TIP3   OH227666   1.209   2.087  14.743 -0.0272 -0.2428  0.0914
 2084TIP3    H127667   1.237   2.164  14.693  0.8201 -0.5945  0.0229
 2084TIP3    H227668   1.129   2.116  14.788 -0.9644  0.0157 -1.6348
 2085TIP3   OH227669   5.325   1.958   5.432  0.1954  0.5837 -1.3110
 2085TIP3    H127670   5.394   1.994   5.377  0.9405 -0.2148 -0.9200
 2085TIP3    H227671   5.244   1.979   5.386  0.4986  3.3771 -0.7892
 2086TIP3   OH227672   1.373   6.236  15.262 -0.0180 -0.8983  0.1260
 2086TIP3    H127673   1.350   6.295  15.190  0.5472 -0.9650 -0.1146
 2086TIP3    H227674   1.356   6.288  15.341 -1.5339 -1.1390  0.0009
 2087TIP3   OH227675   0.962   0.317   1.435 -0.1544 -0.5776  0.6508
 2087TIP3    H127676   0.914   0.279   1.509 -1.7667  0.8637  0.3973
 2087TIP3    H227677   0.896   0.330   1.367  0.7884  0.5292 -0.0922
 2088TIP3   OH227678   5.249   0.762   2.731  0.1863  0.3415  0.1682
 2088TIP3    H127679   5.175   0.789   2.785 -0.8588 -0.4403 -0.8349
 2088TIP3    H227680   5.322   0.815   2.763 -0.4331  0.0761  2.1811
 2089TIP3   OH227681   1.999   5.638   0.325  0.4936 -0.0264 -0.2931
 2089TIP3    H127682   1.967   5.690   0.399  2.1142  0.1539  0.3088
 2089TIP3    H227683   1.956   5.554   0.334  0.5677  0.0400  0.7895
 2090TIP3   OH227684   4.404   0.609  15.569 -0.5398  0.0993 -0.3341
 2090TIP3    H127685   4.329   0.669  15.577 -1.7061 -1.3530  0.1434
 2090TIP3    H227686   4.446   0.636  15.488 -1.0903  1.4730 -0.2103
 2091TIP3   OH227687   1.646   4.447  12.857  0.0303  0.4644  0.2720
 2091TIP3    H127688   1.596   4.373  12.891 -1.2769  0.4517 -1.5259
 2091TIP3    H227689   1.734   4.413  12.844  0.2296  0.1156  2.3020
 2092TIP3   OH227690   1.961   5.729  13.881 -0.4215  0.2891 -0.1598
 2092TIP3    H127691   1.908   5.777  13.944  0.0610  2.2321 -1.1795
 2092TIP3    H227692   2.050   5.733  13.917 -0.4099 -0.0774 -0.1375
 2093TIP3   OH227693   3.629   4.323   4.600  0.2587  0.1730 -0.0589
 2093TIP3    H127694   3.578   4.371   4.536 -0.1855  0.9385  0.8390
 2093TIP3    H227695   3.598   4.233   4.594  0.9441  0.0115 -1.6124
 2094TIP3   OH227696   2.286   0.106  14.288  0.1176  0.1644 -0.4690
 2094TIP3    H127697   2.369   0.149  14.310  0.1988 -0.3744  0.3105
 2094TIP3    H227698   2.259   0.062  14.369 -1.9255  1.9000 -0.1254
 2095TIP3   OH227699   4.769   6.059   4.570 -0.1945  0.4410  0.0789
 2095TIP3    H127700   4.702   5.992   4.555 -1.8766  1.9746  0.3529
 2095TIP3    H227701   4.768   6.112   4.490  1.6900 -0.2483 -0.4732
 2096TIP3   OH227702   6.260   6.404  11.193 -0.0395 -0.3566 -0.4528
 2096TIP3    H127703   6.241   6.421  11.100  0.0903 -0.3964 -0.4875
 2096TIP3    H227704   6.323   6.331  11.191  0.7118  0.2745 -0.3778
 2097TIP3   OH227705   4.116   2.887  14.941  0.9496  0.1854  0.4613
 2097TIP3    H127706   4.195   2.848  14.905  1.3839  0.8579  0.6714
 2097TIP3    H227707   4.106   2.969  14.893 -0.2090 -0.3747 -0.2993
 2098TIP3   OH227708   3.951   1.015   2.736 -0.4420 -0.1488 -0.0162
 2098TIP3    H127709   3.882   0.980   2.793  1.3793 -2.2440  1.0612
 2098TIP3    H227710   3.958   1.107   2.760 -1.3763 -0.4208  1.4176
 2099TIP3   OH227711   2.011   5.491  12.884 -0.3262 -0.0329 -0.2324
 2099TIP3    H127712   2.004   5.486  12.789  0.8630 -1.4323 -0.2641
 2099TIP3    H227713   2.057   5.573  12.900  1.9673 -1.1044 -1.0325
 2100TIP3   OH227714   5.839   2.900  14.410 -0.3605  0.3680  0.1776
 2100TIP3    H127715   5.804   2.831  14.467  2.1922 -0.7883  0.4874
 2100TIP3    H227716   5.871   2.853  14.333  1.8416  1.0850  0.5841
 2101TIP3   OH227717   1.655   6.030  14.863  0.2367 -0.1285 -0.2579
 2101TIP3    H127718   1.662   5.970  14.789  1.7116 -0.5557  0.1932
 2101TIP3    H227719   1.567   6.015  14.897  0.8393 -2.8022  0.4193
 2102TIP3   OH227720   4.198   3.076   0.200 -0.0527  0.2005  0.3071
 2102TIP3    H127721   4.116   3.105   0.240 -0.5282  0.2495 -0.6726
 2102TIP3    H227722   4.232   3.009   0.259 -0.3669  0.7805  1.1564
 2103TIP3   OH227723   1.775   5.004  10.553 -0.0922 -0.1982  0.0257
 2103TIP3    H127724   1.797   4.929  10.608 -0.6161 -1.2963 -1.2185
 2103TIP3    H227725   1.860   5.038  10.525  0.1509 -0.2355  0.6942
 2104TIP3   OH227726   1.029   4.342   6.521  0.7110  0.3533  0.0331
 2104TIP3    H127727   1.089   4.303   6.585  0.1039 -0.4756  0.1262
 2104TIP3    H227728   1.015   4.273   6.456 -0.4247  0.3902  0.2179
 2105TIP3   OH227729   6.359   6.145  11.136 -0.6065  0.3237  0.4326
 2105TIP3    H127730   6.446   6.160  11.172 -0.4229  0.2977  0.0061
 2105TIP3    H227731   6.323   6.073  11.190  0.7369 -1.6471 -1.1529
 2106TIP3   OH227732   6.085   1.531   4.394 -0.1901  0.3774 -0.5365
 2106TIP3    H127733   6.004   1.583   4.388  0.3950  1.2580 -1.0395
 2106TIP3    H227734   6.054   1.440   4.398 -1.1959  0.6104 -2.0401
 2107TIP3   OH227735   2.711   5.594  13.544 -0.2170  0.3832 -0.6973
 2107TIP3    H127736   2.742   5.513  13.584  1.4400 -0.0882 -2.7203
 2107TIP3    H227737   2.693   5.652  13.618  1.2851 -0.8817  0.7495
 2108TIP3   OH227738   4.148   0.906   3.637 -0.4241 -0.2934 -0.2839
 2108TIP3    H127739   4.169   0.871   3.724 -1.5321  2.7830  1.3443
 2108TIP3    H227740   4.231   0.903   3.590  0.7491  0.0171  1.6538
 2109TIP3   OH227741   0.229   2.270  15.233  0.0446 -0.3992  0.4667
 2109TIP3    H127742   0.281   2.211  15.288 -1.1468 -1.1123  0.8448
 2109TIP3    H227743   0.252   2.246  15.144  0.3269 -0.7353  0.6253
 2110TIP3   OH227744   0.370   0.735  14.269  0.2713  0.3527 -0.1006
 2110TIP3    H127745   0.422   0.718  14.190  0.4244  0.5230 -0.0380
 2110TIP3    H227746   0.294   0.678  14.260  0.2721  0.3922 -0.3870
 2111TIP3   OH227747   3.296   0.985   1.799  0.2209  0.5640 -0.3293
 2111TIP3    H127748   3.278   1.039   1.722 -1.6016  1.7133  0.8428
 2111TIP3    H227749   3.286   1.044   1.874  1.1827 -0.7010  0.8569
 2112TIP3   OH227750   5.358   2.684   0.018  0.0614  0.0581 -0.2750
 2112TIP3    H127751   5.275   2.647  -0.012 -0.7217  0.3311  1.4297
 2112TIP3    H227752   5.419   2.611   0.014 -1.0691 -1.0770  1.5008
 2113TIP3   OH227753   3.800   5.431  11.406  0.6130  0.0172 -0.2657
 2113TIP3    H127754   3.864   5.441  11.335  0.9640 -3.5347 -0.6580
 2113TIP3    H227755   3.849   5.392  11.478 -0.3427  0.8657  0.8787
 2114TIP3   OH227756   1.328   2.924  17.121  0.2488  0.3279  0.6257
 2114TIP3    H127757   1.375   2.913  17.204  0.7697  2.6135  0.7037
 2114TIP3    H227758   1.358   3.008  17.087 -0.6722 -0.0975 -1.4418
 2115TIP3   OH227759   6.020   0.760   2.234 -0.3322 -0.0658 -0.0548
 2115TIP3    H127760   6.052   0.688   2.180 -0.5119 -0.2103  0.0329
 2115TIP3    H227761   5.925   0.750   2.234 -0.5607  1.4418 -1.8590
 2116TIP3   OH227762   3.690   4.944   4.117  0.5711 -0.0258 -0.2319
 2116TIP3    H127763   3.653   4.943   4.029 -4.0333  1.8909  1.3699
 2116TIP3    H227764   3.761   5.009   4.112 -0.5444  1.1514 -2.2378
 2117TIP3   OH227765   1.215   2.392   2.803 -0.2481 -0.7344 -0.3363
 2117TIP3    H127766   1.197   2.307   2.844  0.3992 -0.7403 -0.0502
 2117TIP3    H227767   1.163   2.391   2.723 -1.4705 -0.7586  0.4301
 2118TIP3   OH227768   1.225   5.844   1.793 -0.4695  0.8289  0.4304
 2118TIP3    H127769   1.164   5.918   1.797 -1.0313  0.3318  1.7996
 2118TIP3    H227770   1.197   5.786   1.864  1.7736  0.7077  1.2881
 2119TIP3   OH227771   5.385   0.664   0.028  0.1610 -0.1949 -0.0762
 2119TIP3    H127772   5.390   0.627  -0.060 -0.6536 -1.7926  0.4903
 2119TIP3    H227773   5.475   0.688   0.050  0.3450  0.4250 -1.3988
 2120TIP3   OH227774   2.438   2.450  11.399  0.0700 -0.1071 -0.3656
 2120TIP3    H127775   2.351   2.455  11.439  0.3119  0.5886  0.0893
 2120TIP3    H227776   2.439   2.365  11.355 -0.6901 -0.3028 -0.0209
 2121TIP3   OH227777   4.663   3.270  13.396  0.3231 -0.2999  0.4863
 2121TIP3    H127778   4.705   3.355  13.380 -1.4810  0.4023 -0.7694
 2121TIP3    H227779   4.593   3.289  13.458  0.8790 -1.1823  1.4036
 2122TIP3   OH227780   5.291   1.144   2.962  0.0895  0.7750 -0.8315
 2122TIP3    H127781   5.210   1.155   2.913 -1.0443 -0.2617  0.7302
 2122TIP3    H227782   5.291   1.218   3.023  0.9993  1.4943 -1.6605
 2123TIP3   OH227783   0.382   6.459  12.116  0.4933 -0.1078 -0.3591
 2123TIP3    H127784   0.317   6.514  12.072  1.2882 -0.1708 -1.6845
 2123TIP3    H227785   0.345   6.371  12.113 -1.0317  0.3514  2.2503
 2124TIP3   OH227786   1.797   1.385  15.991 -0.3722 -0.3022  0.5343
 2124TIP3    H127787   1.839   1.455  15.942 -2.4235  0.8580  0.3789
 2124TIP3    H227788   1.848   1.307  15.968  0.6009  0.7297 -1.0058
 2125TIP3   OH227789   3.282   3.938  13.264 -0.1244 -0.0749 -0.0257
 2125TIP3    H127790   3.305   4.029  13.282 -2.3220  0.5446 -0.0751
 2125TIP3    H227791   3.258   3.937  13.172 -1.9774 -0.2277  0.4175
 2126TIP3   OH227792   5.961   2.602  13.706 -0.1496 -0.2782  0.0347
 2126TIP3    H127793   5.968   2.692  13.673 -2.5459  0.8232  2.2278
 2126TIP3    H227794   6.030   2.595  13.773  0.0762 -0.1223 -0.1779
 2127TIP3   OH227795   3.388   2.543  13.832  0.1419  0.1961 -0.1701
 2127TIP3    H127796   3.365   2.632  13.807  1.0791  0.5889  0.3479
 2127TIP3    H227797   3.359   2.535  13.923 -0.6319 -0.2819 -0.4535
 2128TIP3   OH227798   1.350   3.011  14.545  0.2446 -0.0367  0.0215
 2128TIP3    H127799   1.295   2.965  14.608  0.4426  0.8929  0.8900
 2128TIP3    H227800   1.293   3.076  14.505 -0.3373 -1.7092 -2.0199
 2129TIP3   OH227801   2.481   5.757   4.179 -0.4653 -0.0467  0.3070
 2129TIP3    H127802   2.472   5.830   4.240  0.1987 -0.3449  0.7731
 2129TIP3    H227803   2.571   5.763   4.147 -0.5945 -0.3060 -0.1128
 2130TIP3   OH227804   2.361   4.191  15.872 -0.5372 -0.0897 -0.4847
 2130TIP3    H127805   2.455   4.204  15.879 -0.3122 -1.8607  0.2098
 2130TIP3    H227806   2.323   4.259  15.927  0.4091 -0.3573  0.5251
 2131TIP3   OH227807   3.895   0.096   2.950  0.2259  0.4241 -0.5163
 2131TIP3    H127808   3.858   0.176   2.912  2.5867  0.9257 -1.9823
 2131TIP3    H227809   3.941   0.126   3.029  1.8807  0.7651 -1.5466
 2132TIP3   OH227810   4.397   5.250   0.078 -0.4117 -0.3050 -0.1045
 2132TIP3    H127811   4.388   5.229  -0.015 -0.6603  1.6371 -0.5630
 2132TIP3    H227812   4.390   5.166   0.123 -0.2085 -1.2909 -1.8429
 2133TIP3   OH227813   2.758   2.929   2.071 -0.1284  0.2511 -0.1611
 2133TIP3    H127814   2.801   2.963   1.992 -2.9415 -0.2928 -2.0564
 2133TIP3    H227815   2.755   2.834   2.057 -2.8261  0.3453 -0.6911
 2134TIP3   OH227816   0.213   5.625  15.678  0.0045 -0.1433 -0.0870
 2134TIP3    H127817   0.171   5.710  15.664 -1.0657 -0.3055  1.7937
 2134TIP3    H227818   0.143   5.561  15.664 -0.1587 -0.4816  1.9039
 2135TIP3   OH227819   1.022   2.933  15.964  0.3731 -0.0027 -0.6774
 2135TIP3    H127820   1.069   2.943  16.047  0.5866  0.2230 -0.8238
 2135TIP3    H227821   0.997   2.840  15.962  0.3372 -0.0009 -0.3458
 2136TIP3   OH227822   1.933   1.055   4.395  0.0786 -0.2979  0.2096
 2136TIP3    H127823   2.026   1.034   4.405  0.4696  0.5354 -1.3084
 2136TIP3    H227824   1.932   1.146   4.367 -1.1005 -0.7368 -1.3042
 2137TIP3   OH227825   4.823   0.680  14.414 -0.2666 -0.0739  0.4707
 2137TIP3    H127826   4.816   0.686  14.319  0.4836 -0.0570  0.4050
 2137TIP3    H227827   4.737   0.650  14.443 -0.1270 -1.3422 -0.3376
 2138TIP3   OH227828   0.331   2.883   2.365 -0.1939  0.0191  0.2922
 2138TIP3    H127829   0.399   2.945   2.340 -1.7180  1.6926  0.0661
 2138TIP3    H227830   0.370   2.829   2.433  1.5107  0.5516 -0.2237
 2139TIP3   OH227831   3.101   0.799   2.264 -0.1474 -0.2619 -0.7109
 2139TIP3    H127832   3.053   0.789   2.346  1.3609  1.3062  0.4350
 2139TIP3    H227833   3.111   0.894   2.253  0.2836 -0.4585 -2.3488
 2140TIP3   OH227834   3.386   2.741   0.390  0.5088 -0.0425 -0.1462
 2140TIP3    H127835   3.449   2.805   0.356  1.4326 -1.2772 -0.8518
 2140TIP3    H227836   3.321   2.793   0.437  1.5363  1.3508 -0.2249
 2141TIP3   OH227837   1.238   0.745   3.836 -0.3115 -0.1592 -0.1195
 2141TIP3    H127838   1.318   0.782   3.873 -0.4459 -0.7205  0.7681
 2141TIP3    H227839   1.174   0.815   3.841  0.1074  0.2844 -0.8071
 2142TIP3   OH227840   6.224   5.778   3.094  0.5581 -0.4928  0.0436
 2142TIP3    H127841   6.229   5.845   3.025 -0.5562 -2.2987 -1.8852
 2142TIP3    H227842   6.235   5.695   3.048 -0.6832 -1.8047  1.9738
 2143TIP3   OH227843   3.110   5.670   1.481 -0.7509 -0.0128  0.0062
 2143TIP3    H127844   3.020   5.675   1.448 -0.1860  0.4593 -1.5155
 2143TIP3    H227845   3.150   5.600   1.430  0.4253  1.3896 -1.0813
 2144TIP3   OH227846   0.043   3.313  13.392  0.1424 -0.3875  0.1298
 2144TIP3    H127847  -0.037   3.267  13.368  0.1926  0.0553 -0.9274
 2144TIP3    H227848   0.022   3.406  13.384  0.4769 -0.2379  0.8257
 2145TIP3   OH227849   4.410   0.785   2.852  0.2177  0.1899  0.0676
 2145TIP3    H127850   4.493   0.740   2.837 -1.1978 -2.5712 -0.1989
 2145TIP3    H227851   4.356   0.762   2.777 -1.0423  1.2957  0.5940
 2146TIP3   OH227852   1.065   4.659   3.793  0.1302 -0.1030  0.2043
 2146TIP3    H127853   1.070   4.752   3.771  0.3005 -0.2552 -0.4063
 2146TIP3    H227854   1.112   4.653   3.877 -0.1845  0.4112  0.4282
 2147TIP3   OH227855   6.412   0.319   5.888  0.1856 -0.5117  0.1751
 2147TIP3    H127856   6.377   0.336   5.976  0.4684 -1.0832  0.3980
 2147TIP3    H227857   6.429   0.225   5.886 -1.8345 -0.9011 -1.2375
 2148TIP3   OH227858   6.391   0.235   1.342  0.4050  0.0940 -0.2989
 2148TIP3    H127859   6.327   0.256   1.411 -0.3589  0.8382 -1.2096
 2148TIP3    H227860   6.367   0.292   1.269  1.2630 -0.6159 -1.1548
 2149TIP3   OH227861   5.024   2.221   3.165  0.5723 -0.3631  0.4643
 2149TIP3    H127862   4.998   2.145   3.217  0.8660  0.3709  1.7446
 2149TIP3    H227863   5.110   2.246   3.201 -0.0295  1.2378  0.8785
 2150TIP3   OH227864   0.731   1.990   0.769 -0.0099  0.0918  0.2812
 2150TIP3    H127865   0.772   1.961   0.688  0.6015  0.1640  0.5663
 2150TIP3    H227866   0.637   1.981   0.752  0.0583  1.1984 -0.8602
 2151TIP3   OH227867   3.022   4.093   3.898 -0.1873 -0.3380 -0.3395
 2151TIP3    H127868   3.106   4.099   3.853 -0.5850 -0.6369 -1.1336
 2151TIP3    H227869   3.020   4.002   3.930  0.0916 -0.1289  0.2917
 2152TIP3   OH227870   3.947   5.407   4.017 -0.4167  0.1091  0.4463
 2152TIP3    H127871   3.980   5.496   4.007 -1.8136  0.7355  1.2466
 2152TIP3    H227872   4.020   5.351   3.990  0.9682  1.4570  1.2944
 2153TIP3   OH227873   2.999   5.888  11.695  0.3978 -0.1337  0.7520
 2153TIP3    H127874   3.077   5.943  11.699 -0.4996  1.1361  1.5434
 2153TIP3    H227875   3.020   5.813  11.751  1.0030  0.2475  1.0424
 2154TIP3   OH227876   4.124   3.525   1.839 -0.0317  0.4965 -0.3577
 2154TIP3    H127877   4.066   3.544   1.913 -0.9665 -0.7070 -0.7385
 2154TIP3    H227878   4.206   3.498   1.880  0.0144  1.4588  0.2035
 2155TIP3   OH227879   0.972   2.086   0.882 -0.3708 -0.3108 -0.0248
 2155TIP3    H127880   0.952   2.084   0.976 -0.0210 -1.5542  0.0398
 2155TIP3    H227881   0.893   2.053   0.840 -0.2999 -0.3606 -0.1199
 2156TIP3   OH227882   2.872   5.577  14.345  0.2980 -0.3984  0.2419
 2156TIP3    H127883   2.819   5.645  14.303  2.1991  0.4135 -1.0054
 2156TIP3    H227884   2.960   5.590  14.308  1.1014 -2.4274  1.3138
 2157TIP3   OH227885   3.181   2.183   1.576  0.5926 -0.0975 -0.4922
 2157TIP3    H127886   3.160   2.136   1.495 -0.3930 -1.9030  0.7369
 2157TIP3    H227887   3.118   2.255   1.578  0.8105  0.1316 -1.4646
 2158TIP3   OH227888   5.141   5.441  12.903  0.0220  0.2874 -0.6438
 2158TIP3    H127889   5.070   5.498  12.933  0.4679  0.2989  0.4301
 2158TIP3    H227890   5.215   5.501  12.888 -0.0719  0.2276 -1.4023
 2159TIP3   OH227891   0.052   0.767   4.005  0.1297  0.0642  0.3483
 2159TIP3    H127892  -0.032   0.810   3.986 -0.6063 -1.2896  0.4281
 2159TIP3    H227893   0.034   0.674   3.992  1.7296 -0.2172  0.0037
 2160TIP3   OH227894   3.861   3.828  16.375  0.0259  0.1296  0.2198
 2160TIP3    H127895   3.892   3.765  16.310  0.5496 -0.0050  0.5907
 2160TIP3    H227896   3.767   3.814  16.379  0.3956 -2.6587  2.3525
 2161TIP3   OH227897   3.328   2.055   3.671  0.0285  0.6701 -0.2429
 2161TIP3    H127898   3.330   2.035   3.764 -1.2462 -1.6645 -0.6136
 2161TIP3    H227899   3.392   1.995   3.632  0.6679  1.7302 -0.8696
 2162TIP3   OH227900   4.418   5.228   0.579 -0.2471  0.2994 -0.7823
 2162TIP3    H127901   4.471   5.169   0.526  0.5637  1.2798 -1.0791
 2162TIP3    H227902   4.331   5.187   0.580  0.7239 -1.9413  0.6577
 2163TIP3   OH227903   4.103   1.212  11.030 -0.0364 -0.2947 -0.0755
 2163TIP3    H127904   4.115   1.218  10.935 -0.3903 -1.5518 -0.2196
 2163TIP3    H227905   4.044   1.284  11.052  0.1717  0.0998 -0.7850
 2164TIP3   OH227906   0.016   3.484   6.391  0.0285 -0.2524  0.2890
 2164TIP3    H127907  -0.049   3.446   6.450  0.5316 -0.3739  0.7678
 2164TIP3    H227908   0.094   3.431   6.403  0.0268 -0.5206 -0.7703
 2165TIP3   OH227909   0.673   4.005   3.831  0.2873  0.7351 -0.7666
 2165TIP3    H127910   0.589   3.959   3.833 -0.2903  1.7092  2.7456
 2165TIP3    H227911   0.651   4.095   3.805  0.2288  0.9801  0.1139
 2166TIP3   OH227912   3.837   4.286   0.459  0.3577 -0.1830  0.0946
 2166TIP3    H127913   3.763   4.297   0.518  0.4794  1.0029  0.0564
 2166TIP3    H227914   3.798   4.284   0.372  0.2741 -0.7740  0.1441
 2167TIP3   OH227915   6.417   0.641  12.017  0.7252  0.1203 -0.4972
 2167TIP3    H127916   6.405   0.593  12.099  0.8468 -0.3005 -0.7218
 2167TIP3    H227917   6.331   0.677  11.998  0.6198 -0.0516 -0.3524
 2168TIP3   OH227918   4.183   0.196  14.526 -0.4839 -0.2995 -0.1789
 2168TIP3    H127919   4.177   0.291  14.532  3.8440  0.0856  1.9684
 2168TIP3    H227920   4.163   0.165  14.614 -0.7128 -1.2635 -0.5586
 2169TIP3   OH227921   3.468   1.379  15.143 -0.3658 -0.7822  0.0822
 2169TIP3    H127922   3.417   1.368  15.223 -0.5433  2.6538  0.5592
 2169TIP3    H227923   3.485   1.473  15.137  0.2926 -0.9847 -3.5414
 2170TIP3   OH227924   6.391   3.231   1.454 -0.4955 -0.2212 -0.2057
 2170TIP3    H127925   6.345   3.240   1.538 -1.4962  0.0836 -0.7642
 2170TIP3    H227926   6.484   3.231   1.477 -0.7688 -1.3725  1.0102
 2171TIP3   OH227927   2.482   5.306   0.041  0.0427 -0.0116 -0.1698
 2171TIP3    H127928   2.429   5.231   0.065 -0.1631  0.1962  0.0355
 2171TIP3    H227929   2.542   5.318   0.116  1.7379 -1.4386 -1.2145
 2172TIP3   OH227930   4.906   1.845  11.050  0.7848 -0.2691  0.3040
 2172TIP3    H127931   4.810   1.849  11.044  0.7239  2.3110  1.4997
 2172TIP3    H227932   4.934   1.812  10.965 -1.1160  0.4447 -0.6555
 2173TIP3   OH227933   4.996   4.062  15.020  0.2358 -0.1386  0.1406
 2173TIP3    H127934   4.961   4.135  15.072 -0.3631  0.2678 -0.8004
 2173TIP3    H227935   5.059   4.019  15.079 -0.2138  0.4630  1.0976
 2174TIP3   OH227936   3.102   2.992  13.051 -0.2865  0.0077 -0.3130
 2174TIP3    H127937   3.109   3.076  13.006  0.8735  1.4813  2.3942
 2174TIP3    H227938   3.180   2.943  13.023 -1.4301 -0.6204 -2.6018
 2175TIP3   OH227939   3.601   5.339   3.624  0.0950  0.3888  0.0137
 2175TIP3    H127940   3.541   5.270   3.653  0.2122  0.9028  1.5537
 2175TIP3    H227941   3.578   5.415   3.677  1.0232  1.0826 -0.5380
 2176TIP3   OH227942   4.334   0.566   3.288  0.4514 -0.1967 -0.5841
 2176TIP3    H127943   4.398   0.560   3.217  0.6799 -0.7330 -0.3371
 2176TIP3    H227944   4.302   0.656   3.284  2.1212  0.4566  0.0643
 2177TIP3   OH227945   1.431   0.385   0.606 -0.8227 -0.6080 -0.0536
 2177TIP3    H127946   1.382   0.304   0.620 -1.6661  0.0241  0.7730
 2177TIP3    H227947   1.523   0.360   0.617 -1.1913 -0.9617  2.9333
 2178TIP3   OH227948   3.500   6.276  15.909 -0.2028  0.6952  0.0938
 2178TIP3    H127949   3.482   6.205  15.848  0.5655  1.1340 -0.6642
 2178TIP3    H227950   3.419   6.326  15.912 -0.6924 -0.1059  0.5038
 2179TIP3   OH227951   6.161   2.057   1.469  0.1574 -0.0451  0.1274
 2179TIP3    H127952   6.123   2.139   1.440 -1.0606  0.3020  2.4177
 2179TIP3    H227953   6.254   2.076   1.483  0.1877  0.4985 -0.7932
 2180TIP3   OH227954   6.523   2.231   6.138 -0.1131  0.4603  0.1257
 2180TIP3    H127955   6.446   2.194   6.181 -0.4058  2.7447  1.7249
 2180TIP3    H227956   6.597   2.185   6.178 -0.5600 -1.1035 -0.7642
 2181TIP3   OH227957   3.795   3.662   1.322  0.4434 -0.2630  0.0020
 2181TIP3    H127958   3.834   3.738   1.365  1.8253 -0.5921 -0.6251
 2181TIP3    H227959   3.711   3.651   1.366  0.6326  1.0434  0.7548
 2182TIP3   OH227960   4.184   4.862  14.875 -0.4388  0.4604 -0.1918
 2182TIP3    H127961   4.113   4.814  14.833  0.3280 -0.9566  0.0605
 2182TIP3    H227962   4.142   4.912  14.944 -1.2398 -0.0038 -0.3322
 2183TIP3   OH227963   4.049   1.798  13.994  0.1919  0.4912 -0.0916
 2183TIP3    H127964   4.083   1.826  14.080 -1.4598  1.4444  0.2904
 2183TIP3    H227965   4.025   1.879  13.950 -0.5511 -0.0949 -0.7870
 2184TIP3   OH227966   0.088   4.647  12.747 -0.0943  0.4818 -0.0130
 2184TIP3    H127967   0.056   4.615  12.831 -0.9638 -1.5051 -1.0391
 2184TIP3    H227968   0.136   4.727  12.768 -1.0991  0.5506  2.2442
 2185TIP3   OH227969   4.860   3.029   0.523  0.1212 -0.1150 -0.1783
 2185TIP3    H127970   4.779   2.993   0.560  0.0079  0.5446  0.2431
 2185TIP3    H227971   4.851   3.124   0.535  1.0171 -0.0423  0.0004
 2186TIP3   OH227972   6.343   2.684   2.618  0.3480  0.3543  0.1829
 2186TIP3    H127973   6.344   2.712   2.710 -2.7383  0.0691  0.4184
 2186TIP3    H227974   6.363   2.763   2.569 -0.7304  1.1887  1.0408
 2187TIP3   OH227975   2.897   0.853   1.865 -0.2120 -0.1784 -0.1443
 2187TIP3    H127976   2.900   0.786   1.934 -0.0229 -0.2108 -0.1824
 2187TIP3    H227977   2.847   0.812   1.794 -0.3655 -0.1626 -0.0451
 2188TIP3   OH227978   0.807   2.486  11.538  0.2075 -0.7971 -0.1823
 2188TIP3    H127979   0.755   2.406  11.534 -0.4550 -0.3327 -2.2858
 2188TIP3    H227980   0.852   2.490  11.454  1.3239  0.3421  0.4371
 2189TIP3   OH227981   4.386   6.604  15.191  0.3520 -0.5512  0.2589
 2189TIP3    H127982   4.441   6.641  15.123 -0.0655  0.5424  0.5033
 2189TIP3    H227983   4.330   6.541  15.145 -0.5294  0.7994 -0.5938
 2190TIP3   OH227984   5.437   2.345   3.636 -0.2563 -0.2969  0.0926
 2190TIP3    H127985   5.384   2.283   3.586 -0.0769 -0.7211  0.4225
 2190TIP3    H227986   5.435   2.312   3.726  1.7787 -1.1995 -0.1275
 2191TIP3   OH227987   3.997   2.652   3.444  0.3237  0.0596  0.0653
 2191TIP3    H127988   3.994   2.701   3.526  0.6924 -2.1540  1.4811
 2191TIP3    H227989   4.086   2.617   3.439  0.2702  0.0248 -1.2252
 2192TIP3   OH227990   2.017   0.164   2.319  0.4350 -0.0013  0.4452
 2192TIP3    H127991   2.093   0.217   2.343 -0.0845 -0.2802  2.9589
 2192TIP3    H227992   1.954   0.179   2.390 -0.5608 -2.2973  0.1332
 2193TIP3   OH227993   1.756   1.225  15.090 -0.0937  0.3031 -0.3479
 2193TIP3    H127994   1.849   1.243  15.075 -0.1579  0.6119 -0.3800
 2193TIP3    H227995   1.711   1.290  15.037 -0.3282  0.7331  0.3819
 2194TIP3   OH227996   4.275   5.010   5.072  0.2560  0.2680  0.3757
 2194TIP3    H127997   4.307   5.051   4.992  0.6809 -1.3137 -0.2844
 2194TIP3    H227998   4.213   4.944   5.043 -0.1867  0.2143  1.3975
 2195TIP3   OH227999   3.579   3.732   3.996  0.3342 -0.8595 -0.4821
 2195TIP3    H128000   3.634   3.735   3.918  0.4193 -1.6014 -0.4573
 2195TIP3    H228001   3.492   3.712   3.962 -0.2998  1.8756 -0.6908
 2196TIP3   OH228002   3.919   0.439  12.434  0.4540  0.4614 -0.6153
 2196TIP3    H128003   3.937   0.532  12.447  0.2877  0.4075  0.0221
 2196TIP3    H228004   4.005   0.398  12.438  0.4061  0.4498  0.3108
 2197TIP3   OH228005   3.504   3.264   5.335 -0.0411  0.2234  0.5933
 2197TIP3    H128006   3.549   3.237   5.415  0.3576 -1.6397 -0.1966
 2197TIP3    H228007   3.475   3.182   5.295  1.6398  0.8418 -2.2324
 2198TIP3   OH228008   1.434   0.707   0.226  0.0757 -0.2043  0.1124
 2198TIP3    H128009   1.528   0.722   0.237  0.3158  0.2769 -2.1971
 2198TIP3    H228010   1.416   0.628   0.278  1.5136  0.3133  1.4595
 2199TIP3   OH228011   1.569   4.905  10.819  1.1280 -0.2451 -0.0692
 2199TIP3    H128012   1.581   4.853  10.899  1.5181 -0.4509 -0.2555
 2199TIP3    H228013   1.623   4.860  10.754 -1.9137 -2.1956 -1.4398
 2200TIP3   OH228014   0.339   5.671   3.559  0.4206  0.5058 -0.2664
 2200TIP3    H128015   0.275   5.741   3.546  0.0006  0.9699  3.1512
 2200TIP3    H228016   0.294   5.592   3.529 -0.3244  1.2823 -1.2829
 2201TIP3   OH228017   3.475   2.747   0.717 -0.6101 -0.5485 -0.0076
 2201TIP3    H128018   3.496   2.832   0.677  1.0728 -1.2181 -0.6148
 2201TIP3    H228019   3.394   2.720   0.672  0.2273 -0.4150 -1.6889
 2202TIP3   OH228020   6.040   1.094   2.594  0.5242  0.4335 -0.0408
 2202TIP3    H128021   6.018   1.051   2.512 -0.0210  1.4887 -0.4577
 2202TIP3    H228022   6.058   1.185   2.570  1.1198  0.5843  0.9024
 2203TIP3   OH228023   6.433   3.482   4.688  0.2375 -0.2484 -0.9820
 2203TIP3    H128024   6.419   3.412   4.752 -1.0974 -0.4491 -1.4555
 2203TIP3    H228025   6.429   3.563   4.739  0.2660 -0.4556 -0.6535
 2204TIP3   OH228026   6.636   3.090  16.843 -0.5039 -0.3087  0.0469
 2204TIP3    H128027   6.708   3.029  16.861 -0.9822 -0.6554  0.8397
 2204TIP3    H228028   6.633   3.095  16.748  0.3118 -0.5990 -0.0052
 2205TIP3   OH228029   5.226   1.758   3.537 -0.0017 -0.0358 -0.1478
 2205TIP3    H128030   5.172   1.791   3.609 -2.1678 -0.9925 -1.2248
 2205TIP3    H228031   5.278   1.689   3.576 -2.9312 -2.2734  0.1711
 2206TIP3   OH228032   6.037   4.115  12.693 -0.0974 -0.2917  0.4364
 2206TIP3    H128033   5.963   4.131  12.635  0.5746  1.4935 -0.0098
 2206TIP3    H228034   6.053   4.021  12.688 -2.8144 -0.8699  1.1769
 2207TIP3   OH228035   3.463   2.199   1.350 -0.8538  0.0932 -0.1347
 2207TIP3    H128036   3.368   2.187   1.345 -0.7804 -0.6446  0.1095
 2207TIP3    H228037   3.496   2.116   1.384  0.1503 -0.7235 -2.8573
 2208TIP3   OH228038   4.280   1.868   0.802  0.2010 -0.9419  0.0268
 2208TIP3    H128039   4.200   1.898   0.845 -0.9688 -1.5478 -1.6502
 2208TIP3    H228040   4.281   1.915   0.719  0.8843 -1.9678 -0.5510
 2209TIP3   OH228041   0.206   2.135   4.129 -0.1627 -0.0012  0.2364
 2209TIP3    H128042   0.282   2.082   4.108  0.1907  0.6933 -0.2890
 2209TIP3    H228043   0.209   2.145   4.224  0.9742  0.8361  0.1388
 2210TIP3   OH228044   2.225   3.142  14.174  0.2895 -0.6042 -0.2635
 2210TIP3    H128045   2.275   3.067  14.208 -0.5905 -0.2665  1.9725
 2210TIP3    H228046   2.134   3.123  14.197  0.0713  1.2003  0.5172
 2211TIP3   OH228047   1.822   4.270  17.059  0.4257 -0.5048  0.1482
 2211TIP3    H128048   1.767   4.346  17.079  0.1728 -0.6804  0.1339
 2211TIP3    H228049   1.875   4.258  17.137  0.8082 -0.0256 -0.0353
 2212TIP3   OH228050   0.937   6.114   6.494 -0.1933  0.2277  0.0261
 2212TIP3    H128051   0.945   6.181   6.561  3.6216 -0.1478  0.1433
 2212TIP3    H228052   1.015   6.124   6.440  0.3433 -3.7583 -0.2329
 2213TIP3   OH228053   4.830   6.482  15.513  0.7501  0.4302 -0.4073
 2213TIP3    H128054   4.863   6.504  15.600  2.1860  2.3565 -1.3427
 2213TIP3    H228055   4.751   6.535  15.503 -1.4344 -2.3506  0.9127
 2214TIP3   OH228056   3.024   4.611  15.505  0.1678  0.5150  0.2077
 2214TIP3    H128057   3.103   4.657  15.477  0.2615  0.4438  0.3548
 2214TIP3    H228058   2.960   4.680  15.522  0.2282  0.5781  0.1787
 2215TIP3   OH228059   1.632   1.455   1.791 -0.6370  0.7032 -0.6640
 2215TIP3    H128060   1.582   1.479   1.713 -0.1624  4.1580 -0.0543
 2215TIP3    H228061   1.642   1.537   1.839  2.2874 -0.5965  1.1934
 2216TIP3   OH228062   2.436   6.225  13.116  0.6831  0.8426 -0.7150
 2216TIP3    H128063   2.455   6.140  13.077  2.8774  1.9966 -2.3746
 2216TIP3    H228064   2.402   6.278  13.044  2.4508  2.2820 -0.5792
 2217TIP3   OH228065   4.458   1.409   3.336 -0.6310  0.3477 -0.5879
 2217TIP3    H128066   4.496   1.453   3.412 -0.9775 -0.4122  0.0422
 2217TIP3    H228067   4.483   1.318   3.347  2.2131  0.6788 -3.1823
 2218TIP3   OH228068   1.217   1.043   5.979  0.3541 -0.4633  0.2420
 2218TIP3    H128069   1.291   0.985   5.997 -0.4924 -2.0492 -1.1654
 2218TIP3    H228070   1.145   1.008   6.031 -0.2871 -0.9869 -0.9648
 2219TIP3   OH228071   1.322   5.959  11.421 -0.1828  0.3562 -0.2790
 2219TIP3    H128072   1.362   5.924  11.500 -0.0765  0.9201 -0.0758
 2219TIP3    H228073   1.284   5.883  11.377 -1.1210  0.1672  0.8083
 2220TIP3   OH228074   5.253   1.243   1.134  0.7038  0.1239  0.2168
 2220TIP3    H128075   5.238   1.191   1.213  2.5525 -0.1122  0.4695
 2220TIP3    H228076   5.175   1.228   1.080  0.3657 -1.4428  1.0762
 2221TIP3   OH228077   2.241   2.591  12.182  0.2478 -0.8379  0.0358
 2221TIP3    H128078   2.169   2.539  12.217 -0.0701 -0.8065 -0.5591
 2221TIP3    H228079   2.314   2.529  12.177  0.4699 -0.7006  1.2862
 2222TIP3   OH228080   3.171   0.164   3.495 -0.3133  0.0755 -0.1588
 2222TIP3    H128081   3.092   0.218   3.497 -0.1534  0.3005  0.4640
 2222TIP3    H228082   3.198   0.158   3.587  0.1400 -0.3728 -0.3167
 2223TIP3   OH228083   4.498   2.067   3.036 -0.1158 -0.1628  0.1727
 2223TIP3    H128084   4.558   2.012   3.085 -0.9868 -2.2808 -1.0152
 2223TIP3    H228085   4.444   2.006   2.987 -0.6397  1.7925 -1.8423
 2224TIP3   OH228086   1.208   3.910   4.190  0.8129 -0.1479 -0.0057
 2224TIP3    H128087   1.205   3.962   4.110  0.4783 -0.0803  0.0520
 2224TIP3    H228088   1.219   3.819   4.160 -1.6404 -0.4326 -0.2358
 2225TIP3   OH228089   5.055   5.314   4.459  0.0329  0.0038  0.3728
 2225TIP3    H128090   4.973   5.355   4.485 -0.4090 -2.0286  2.5573
 2225TIP3    H228091   5.122   5.361   4.509  0.1054  0.9980 -0.6330
 2226TIP3   OH228092   2.273   5.673   4.025 -0.1387  0.4103 -0.3010
 2226TIP3    H128093   2.341   5.730   4.060  0.1196  0.3373 -0.6794
 2226TIP3    H228094   2.290   5.587   4.064  0.5280  0.1781 -1.0836
 2227TIP3   OH228095   0.387   2.722   5.175 -0.3589 -0.1342  0.2622
 2227TIP3    H128096   0.431   2.649   5.131 -0.1264  1.2033 -1.8962
 2227TIP3    H228097   0.419   2.720   5.265  1.1149 -1.5261 -0.2547
 2228TIP3   OH228098   2.937   0.474  12.850 -0.4885  0.2591 -0.2663
 2228TIP3    H128099   2.849   0.504  12.870 -0.5576  0.3276 -0.6549
 2228TIP3    H228100   2.954   0.509  12.762  0.7069  2.0236  0.6039
 2229TIP3   OH228101   6.437   5.776   5.212  0.6938 -0.0919  0.3391
 2229TIP3    H128102   6.512   5.731   5.251  0.6027 -0.0956  0.5147
 2229TIP3    H228103   6.367   5.711   5.213  1.1053 -0.6071 -1.2713
 2230TIP3   OH228104   4.537   4.855  15.167 -0.2660  0.1788  0.0853
 2230TIP3    H128105   4.545   4.874  15.073  1.0073  1.6778  0.4547
 2230TIP3    H228106   4.597   4.917  15.209 -0.1019 -1.0930  1.8304
 2231TIP3   OH228107   3.240   4.503   0.964 -0.1145  0.2153 -0.7098
 2231TIP3    H128108   3.175   4.438   0.989 -1.3769  1.5091 -0.5321
 2231TIP3    H228109   3.324   4.464   0.991 -0.9193 -0.8882  0.2951
 2232TIP3   OH228110   5.060   0.931   1.328 -0.5631 -0.1844  0.0085
 2232TIP3    H128111   5.009   0.962   1.253  1.2455  0.7968 -0.8845
 2232TIP3    H228112   5.071   1.008   1.383  0.9866 -0.0385 -0.4544
 2233TIP3   OH228113   3.163   4.367   4.769  0.3415 -0.2728 -0.9115
 2233TIP3    H128114   3.151   4.450   4.723 -2.1569 -0.1751 -0.2063
 2233TIP3    H228115   3.101   4.307   4.728  0.6771 -1.2218 -0.0758
 2234TIP3   OH228116   6.639   5.541   3.079  0.4780  0.4914  0.1174
 2234TIP3    H128117   6.702   5.553   3.008 -0.7886 -3.9103 -2.1573
 2234TIP3    H228118   6.557   5.519   3.035 -1.6748  1.9587  3.0148
 2235TIP3   OH228119   3.340   4.952   4.169  0.0996 -0.3553 -0.6557
 2235TIP3    H128120   3.351   4.859   4.186  0.6632 -0.3650 -1.0314
 2235TIP3    H228121   3.393   4.995   4.237 -1.4469 -0.2462  0.5317
 2236TIP3   OH228122   1.284   6.439  11.296  0.2990 -0.6809 -0.1752
 2236TIP3    H128123   1.281   6.489  11.378  1.5337 -0.5628 -0.1854
 2236TIP3    H228124   1.334   6.360  11.318 -1.0873 -1.6533 -0.3239
 2237TIP3   OH228125   4.759   5.830  11.134 -0.5277  0.3347  0.4510
 2237TIP3    H128126   4.714   5.785  11.206 -0.3201 -0.7286 -0.0705
 2237TIP3    H228127   4.765   5.765  11.065  0.8998  0.7782  0.1265
 2238TIP3   OH228128   6.202   0.179  11.546 -0.0065 -0.1019  0.8096
 2238TIP3    H128129   6.111   0.182  11.517  0.0036 -0.4502  0.7438
 2238TIP3    H228130   6.216   0.264  11.589 -0.9333 -0.7736  2.5385
 2239TIP3   OH228131   5.588   6.325  11.444  0.6513 -0.3327  0.6614
 2239TIP3    H128132   5.665   6.281  11.480 -0.9657 -1.6992  2.6882
 2239TIP3    H228133   5.514   6.273  11.475 -1.1965  1.9428  0.3372
 2240TIP3   OH228134   6.592   0.805  14.668 -0.0266  0.3654  0.0183
 2240TIP3    H128135   6.571   0.852  14.748 -1.0180  0.0378 -0.0249
 2240TIP3    H228136   6.635   0.869  14.612 -2.4435  1.6156 -0.5168
 2241TIP3   OH228137   2.492   4.391  15.677 -0.2229 -0.1147  0.3414
 2241TIP3    H128138   2.587   4.392  15.683 -0.2422  2.6032  1.5202
 2241TIP3    H228139   2.471   4.463  15.617 -1.5461 -0.5865  0.2051
 2242TIP3   OH228140   1.804   5.053   1.886 -0.2588  0.3434 -0.9149
 2242TIP3    H128141   1.880   5.059   1.944 -0.5165  0.7292 -0.6080
 2242TIP3    H228142   1.736   5.012   1.939 -0.7830  1.5438 -0.6285
 2243TIP3   OH228143   0.630   2.130   5.462  0.4608  0.0207 -0.1772
 2243TIP3    H128144   0.578   2.050   5.464 -1.3916  1.1377  1.9224
 2243TIP3    H228145   0.714   2.106   5.501 -0.3270 -0.7805  1.0998
 2244TIP3   OH228146   2.573   6.779   3.193 -0.2716  0.3211  0.2038
 2244TIP3    H128147   2.509   6.738   3.134  1.2364  0.3054 -1.5068
 2244TIP3    H228148   2.540   6.868   3.206  0.6972  1.2832 -3.0072
 2245TIP3   OH228149   2.125   6.781  16.241  0.2386 -0.0788  0.4821
 2245TIP3    H128150   2.036   6.779  16.277  0.0110 -0.3982 -0.0948
 2245TIP3    H228151   2.181   6.784  16.319 -0.2792  0.3776  0.8480
 2246TIP3   OH228152   5.861   4.677   2.762  0.0129  0.1775 -0.1383
 2246TIP3    H128153   5.917   4.725   2.823 -1.1362 -0.8881  1.8597
 2246TIP3    H228154   5.819   4.746   2.710  0.7257  1.1479  0.5253
 2247TIP3   OH228155   4.506   5.940  13.118 -0.1303  0.1746 -0.1212
 2247TIP3    H128156   4.584   5.994  13.128  0.2897 -0.4471  0.0338
 2247TIP3    H228157   4.433   6.001  13.124  0.3622  0.8389 -0.8494
 2248TIP3   OH228158   3.554   0.298  11.575  0.0981  0.7300 -0.8675
 2248TIP3    H128159   3.570   0.324  11.666  0.8669  4.3516 -1.8751
 2248TIP3    H228160   3.623   0.235  11.555 -0.3207 -0.4366  1.1019
 2249TIP3   OH228161   3.884   0.115   0.184 -0.2496  0.3264  0.9134
 2249TIP3    H128162   3.953   0.095   0.120 -0.3574  0.7051  0.6755
 2249TIP3    H228163   3.808   0.065   0.153 -0.2434  0.3505  0.8585
 2250TIP3   OH228164   2.228   1.357   1.690 -0.1192  0.2320  0.2254
 2250TIP3    H128165   2.196   1.408   1.616  0.0533 -0.5826 -0.4258
 2250TIP3    H228166   2.155   1.354   1.752  0.0435  1.7028  0.5182
 2251TIP3   OH228167   5.123   6.193  15.939  0.1446 -0.4439 -0.1782
 2251TIP3    H128168   5.063   6.172  15.867 -1.9622 -1.0790  1.6433
 2251TIP3    H228169   5.136   6.288  15.931 -2.0904 -0.0501 -0.0023
 2252TIP3   OH228170   5.177   4.239  11.632 -0.0182  0.2442  0.4711
 2252TIP3    H128171   5.146   4.320  11.673  0.2221  0.4912  0.1715
 2252TIP3    H228172   5.211   4.267  11.547  1.1421 -0.0064  0.8434
 2253TIP3   OH228173   4.041   6.749   4.329 -0.0305 -0.3905 -0.1590
 2253TIP3    H128174   4.103   6.741   4.401 -0.6730  2.8565  0.9365
 2253TIP3    H228175   3.970   6.689   4.352  1.4117 -2.1835 -0.1020
 2254TIP3   OH228176   6.757   1.537  16.347  0.5333  0.2279 -0.1517
 2254TIP3    H128177   6.833   1.595  16.353  0.4526  0.3009  0.1894
 2254TIP3    H228178   6.684   1.594  16.326  0.1688  0.4890  1.6986
 2255TIP3   OH228179   5.050   0.141   1.601 -0.2706  0.4322 -0.6720
 2255TIP3    H128180   5.075   0.141   1.693  0.3180  0.6715 -0.8280
 2255TIP3    H228181   5.027   0.232   1.582 -3.0058 -0.0312 -0.0948
 2256TIP3   OH228182   2.867   3.136  14.887 -0.3736 -0.2079  0.7550
 2256TIP3    H128183   2.931   3.201  14.915 -0.1925 -0.0240 -0.0540
 2256TIP3    H228184   2.784   3.164  14.926 -0.1536  0.1031  0.9984
 2257TIP3   OH228185   2.772   4.280  15.372  0.3882 -0.7137  0.6000
 2257TIP3    H128186   2.860   4.312  15.391 -0.1321  2.4377 -1.5658
 2257TIP3    H228187   2.714   4.349  15.405 -1.1783 -1.8117  0.2538
 2258TIP3   OH228188   5.301   3.360  12.313  0.2781 -0.8564  0.6806
 2258TIP3    H128189   5.262   3.395  12.393 -0.5666  1.1404 -0.5394
 2258TIP3    H228190   5.228   3.346  12.254  1.0845  0.1024 -0.6039
 2259TIP3   OH228191   4.688   1.687   2.455 -0.1228  0.0369 -0.0507
 2259TIP3    H128192   4.691   1.635   2.375 -0.4414  0.2117 -0.1775
 2259TIP3    H228193   4.693   1.778   2.425  0.6095  0.0804  0.1808
 2260TIP3   OH228194   6.329   4.792   5.675 -0.1665  0.7409  0.4163
 2260TIP3    H128195   6.346   4.702   5.703  0.8740  0.5189 -0.8426
 2260TIP3    H228196   6.378   4.846   5.737 -1.2448  0.4990  1.5191
 2261TIP3   OH228197   6.465   1.852  13.923 -0.6602 -0.1450 -0.2431
 2261TIP3    H128198   6.458   1.808  13.838  1.2912  1.5843 -1.4006
 2261TIP3    H228199   6.491   1.942  13.901  3.4199 -0.4717  2.2039
 2262TIP3   OH228200   2.017   1.101   1.052 -0.3851  0.2668 -0.0046
 2262TIP3    H128201   2.035   1.082   1.144  1.2154  0.3703 -0.2740
 2262TIP3    H228202   2.090   1.155   1.023 -0.7872  0.1168 -1.3807
 2263TIP3   OH228203   1.519   5.522  12.117 -0.3973 -0.1196  0.6078
 2263TIP3    H128204   1.455   5.579  12.160  1.0564  0.9781  1.4331
 2263TIP3    H228205   1.545   5.571  12.038  0.6410  0.2672  1.1652
 2264TIP3   OH228206   0.533   4.995  14.132 -0.3611 -0.0077 -0.3668
 2264TIP3    H128207   0.524   5.090  14.134 -0.7862 -0.0649  0.6002
 2264TIP3    H228208   0.445   4.962  14.116 -0.6786 -0.3074  1.7922
 2265TIP3   OH228209   6.023   5.632   4.756 -0.3255  0.0226  0.4217
 2265TIP3    H128210   5.960   5.702   4.744 -2.1943 -1.5093  0.9095
 2265TIP3    H228211   6.067   5.653   4.838 -3.4882 -1.1861  2.5916
 2266TIP3   OH228212   5.355   2.617  15.708  0.3669 -0.2307 -0.0669
 2266TIP3    H128213   5.384   2.533  15.744  0.1913 -1.4342 -2.5374
 2266TIP3    H228214   5.433   2.653  15.667 -0.1080 -0.4031 -1.1565
 2267TIP3   OH228215   0.812   5.625  11.516 -0.1971 -0.2609 -0.0821
 2267TIP3    H128216   0.776   5.704  11.476  1.3015 -0.0935 -1.2050
 2267TIP3    H228217   0.765   5.553  11.475 -0.4153  0.0010 -0.2941
 2268TIP3   OH228218   2.774   3.033  12.883 -0.2570  0.8647  0.1444
 2268TIP3    H128219   2.852   3.059  12.833 -0.3843 -1.2413 -1.2671
 2268TIP3    H228220   2.701   3.044  12.823 -0.3299 -2.4456 -0.5654
 2269TIP3   OH228221   2.463   4.294  12.403 -0.4405 -0.2852  0.0123
 2269TIP3    H128222   2.495   4.372  12.449 -2.0167  0.5653 -0.2480
 2269TIP3    H228223   2.414   4.246  12.470 -2.3887  0.7451 -0.5995
 2270TIP3   OH228224   0.845   2.768   1.183 -0.3166  0.1053  0.1449
 2270TIP3    H128225   0.793   2.773   1.102  0.7710 -1.6103 -0.7105
 2270TIP3    H228226   0.880   2.857   1.194 -0.2559  0.3152 -1.4367
 2271TIP3   OH228227   3.193   3.181  16.779 -0.1212  0.1641  0.8659
 2271TIP3    H128228   3.250   3.112  16.746  1.8709  1.7676  0.7663
 2271TIP3    H228229   3.126   3.134  16.830 -2.5391 -2.3616 -3.9039
 2272TIP3   OH228230   1.408   6.162   1.149  0.2847  0.3924  0.6373
 2272TIP3    H128231   1.404   6.249   1.109 -0.9465  0.1928  0.2690
 2272TIP3    H228232   1.457   6.109   1.086  1.5133  0.9224  1.1142
 2273TIP3   OH228233   6.506   1.902  16.561 -0.0458 -0.1993 -0.1109
 2273TIP3    H128234   6.446   1.920  16.634  0.8522  1.3755  0.2665
 2273TIP3    H228235   6.448   1.893  16.485 -1.0085 -1.9164  0.7518
 2274TIP3   OH228236   3.319   1.948   3.935  0.4476 -0.3329 -0.0021
 2274TIP3    H128237   3.279   1.882   3.992  0.6545 -0.9158 -0.5217
 2274TIP3    H228238   3.299   2.032   3.977  1.0642 -0.7823  1.2275
 2275TIP3   OH228239   5.126   1.308  15.149  0.2428  0.4836  0.1343
 2275TIP3    H128240   5.108   1.214  15.150  1.5443  0.2257  0.5654
 2275TIP3    H228241   5.051   1.346  15.103 -0.2834 -0.7620 -0.0718
 2276TIP3   OH228242   0.985   6.221  15.008 -0.0754 -0.1544 -0.0473
 2276TIP3    H128243   0.927   6.243  14.936 -0.2234  1.0079  0.4092
 2276TIP3    H228244   1.069   6.202  14.967 -0.1847  0.4109 -0.5386
 2277TIP3   OH228245   4.638   1.364   2.559 -0.7235 -0.1002 -0.0569
 2277TIP3    H128246   4.562   1.306   2.551 -2.3157  1.9030  0.0125
 2277TIP3    H228247   4.602   1.452   2.565  1.6428  1.0642 -1.2295
 2278TIP3   OH228248   0.813   1.636  12.681  0.4274  0.7281 -0.3249
 2278TIP3    H128249   0.772   1.550  12.683  0.4010  0.7485  0.6110
 2278TIP3    H228250   0.839   1.649  12.590  3.4677 -1.7130  0.0268
 2279TIP3   OH228251   2.066   4.596   3.689 -0.2632 -0.1290 -0.0663
 2279TIP3    H128252   2.032   4.545   3.762 -0.6444 -0.0698 -0.1972
 2279TIP3    H228253   2.061   4.687   3.719  0.4019 -0.1640  0.1620
 2280TIP3   OH228254   0.087   1.212   2.006 -0.2666 -0.1194 -0.4208
 2280TIP3    H128255   0.159   1.166   2.049  0.7820  0.4437 -1.5191
 2280TIP3    H228256   0.010   1.192   2.060  0.7469 -0.5226  0.9270
 2281TIP3   OH228257   6.367   6.661   5.226 -0.0122  0.3145 -0.0185
 2281TIP3    H128258   6.381   6.671   5.321 -0.5187 -4.1898  0.7425
 2281TIP3    H228259   6.456   6.656   5.190  0.2154 -0.2522  0.5934
 2282TIP3   OH228260   3.710   4.797  14.980  0.1864 -0.3114  0.1099
 2282TIP3    H128261   3.759   4.811  15.061  0.8170 -1.5643 -0.0174
 2282TIP3    H228262   3.757   4.725  14.936  0.1388  0.6544 -1.5982
 2283TIP3   OH228263   0.911   2.325   5.139 -0.4628 -0.0797 -0.2130
 2283TIP3    H128264   0.879   2.291   5.223  0.8843 -2.1262 -0.4593
 2283TIP3    H228265   0.910   2.420   5.150 -0.4700 -0.2802  2.0625
 2284TIP3   OH228266   5.112   0.017  12.494 -0.2523 -0.7246 -0.8123
 2284TIP3    H128267   5.126   0.028  12.400 -1.8990  0.8807 -0.9231
 2284TIP3    H228268   5.036  -0.041  12.500 -0.8735  0.0961 -0.5273
 2285TIP3   OH228269   0.184   1.419   3.107 -0.8340  0.5494  0.0333
 2285TIP3    H128270   0.265   1.398   3.152 -1.1409  1.7064  1.1746
 2285TIP3    H228271   0.153   1.334   3.073 -0.6261 -0.4115  2.0861
 2286TIP3   OH228272   2.460   3.888  12.265  0.2346 -0.1135  0.1294
 2286TIP3    H128273   2.416   3.814  12.224 -1.0479 -0.2073  1.5693
 2286TIP3    H228274   2.476   3.859  12.355  0.3754  1.0937  0.5065
 2287TIP3   OH228275   4.738   4.746   2.803 -0.5395 -0.0443  0.3518
 2287TIP3    H128276   4.770   4.805   2.871  1.0290  0.2508 -0.5868
 2287TIP3    H228277   4.731   4.661   2.847 -1.2397  0.4783  1.2979
 2288TIP3   OH228278   4.074   0.947  15.773 -0.0553  0.0536  0.0081
 2288TIP3    H128279   4.048   0.965  15.682 -1.6022 -0.9773  0.2021
 2288TIP3    H228280   4.155   0.996  15.785 -0.0280  0.5285 -1.8095
 2289TIP3   OH228281   2.423   3.782  17.082 -0.1567 -0.3979 -0.7709
 2289TIP3    H128282   2.429   3.870  17.118 -2.7685 -0.5744  0.3298
 2289TIP3    H228283   2.369   3.734  17.144 -1.2583 -1.9549 -2.7883
 2290TIP3   OH228284   1.018   6.029   6.075  0.5419 -0.0008  0.2131
 2290TIP3    H128285   1.009   5.970   6.000  1.6886 -0.3223  0.3063
 2290TIP3    H228286   1.052   5.973   6.146 -1.3073  0.1125  1.2497
 2291TIP3   OH228287   6.805   1.313   5.397  0.3693 -0.2259  0.6889
 2291TIP3    H128288   6.889   1.360   5.396 -0.1095  0.7439 -1.8028
 2291TIP3    H228289   6.826   1.228   5.435  2.9338 -0.6854 -1.4306
 2292TIP3   OH228290   0.351   5.945  13.315 -0.1651 -0.2367 -0.7754
 2292TIP3    H128291   0.305   6.018  13.275  1.1794  1.3518  0.4182
 2292TIP3    H228292   0.425   5.986  13.361  0.6408 -2.3539 -0.0738
 2293TIP3   OH228293   0.827   6.494  11.175 -0.2107 -0.1246 -0.0550
 2293TIP3    H128294   0.795   6.583  11.161 -1.4284 -0.7250 -1.3109
 2293TIP3    H228295   0.761   6.454  11.232  0.8305  0.0294  1.3105
 2294TIP3   OH228296   6.041   4.544  14.658 -0.1423 -0.6010 -0.6116
 2294TIP3    H128297   6.010   4.603  14.727  1.7876  0.7441 -0.8195
 2294TIP3    H228298   6.045   4.458  14.700 -0.7022 -0.1427  0.4169
 2295TIP3   OH228299   1.968   6.613   4.957 -0.1433  0.0836  0.0111
 2295TIP3    H128300   2.014   6.535   4.927 -2.6300 -1.3567 -0.3347
 2295TIP3    H228301   1.919   6.584   5.034 -0.1610  1.6755  0.6599
 2296TIP3   OH228302   0.439   4.669   4.774 -0.5788 -0.6794 -0.6605
 2296TIP3    H128303   0.378   4.730   4.815  0.4138 -0.1495  0.0495
 2296TIP3    H228304   0.431   4.588   4.825 -0.6620 -0.6072 -0.5608
 2297TIP3   OH228305   1.706   3.830   2.016 -0.3022 -0.0106  0.0021
 2297TIP3    H128306   1.781   3.773   2.035 -0.3709 -0.5923 -1.3750
 2297TIP3    H228307   1.632   3.770   2.010 -0.7814  0.4942  0.7414
 2298TIP3   OH228308   2.838   1.407  10.349 -0.1611 -0.3228 -0.0712
 2298TIP3    H128309   2.918   1.380  10.394  0.2760 -0.7080 -1.0619
 2298TIP3    H228310   2.788   1.452  10.416  1.8466  1.9178  0.0669
 2299TIP3   OH228311   3.230   0.246   4.213 -0.6884  0.3936  0.1409
 2299TIP3    H128312   3.311   0.256   4.263 -1.6161 -1.2992  2.1430
 2299TIP3    H228313   3.259   0.226   4.124  1.0422  1.9604  0.2903
 2300TIP3   OH228314   0.735   4.060  15.921 -0.2077 -0.1125  0.2082
 2300TIP3    H128315   0.652   4.108  15.922 -0.3780 -0.3961 -0.0361
 2300TIP3    H228316   0.718   3.985  15.864 -0.3872 -1.2429  1.6876
 2301TIP3   OH228317   4.141   0.996   4.849  0.2005 -0.2502  0.0808
 2301TIP3    H128318   4.198   1.025   4.778 -0.8747 -0.8061 -1.0630
 2301TIP3    H228319   4.097   1.076   4.879  1.2171  0.1061  0.6624
 2302TIP3   OH228320   2.259   6.164   1.734  0.3201 -0.0409  0.5352
 2302TIP3    H128321   2.178   6.214   1.743  1.6093  2.0579  1.0637
 2302TIP3    H228322   2.233   6.086   1.684 -1.6289  1.4980 -1.0281
 2303TIP3   OH228323   3.969   4.709   1.424 -0.8204 -0.2053 -0.0253
 2303TIP3    H128324   4.027   4.777   1.457  0.0400 -1.0693  0.2789
 2303TIP3    H228325   3.882   4.733   1.457 -0.4209  0.3948  0.6130
 2304TIP3   OH228326   3.110   5.484  13.469  0.3464 -0.0562  0.0406
 2304TIP3    H128327   3.083   5.399  13.504 -0.4849 -0.4020 -1.3825
 2304TIP3    H228328   3.157   5.463  13.388 -0.2044  0.8496 -0.5246
 2305TIP3   OH228329   0.369   1.271  14.745 -0.4804  0.3667 -0.0670
 2305TIP3    H128330   0.421   1.191  14.744 -1.5348 -0.3332 -1.3445
 2305TIP3    H228331   0.311   1.260  14.821 -1.9906 -1.0475 -1.3426
 2306TIP3   OH228332   1.939   5.075  15.535 -0.0956 -0.1471  0.8168
 2306TIP3    H128333   1.867   5.055  15.476  0.2801  0.4378  0.1425
 2306TIP3    H228334   1.904   5.141  15.594 -0.1772 -0.0125  0.6204
 2307TIP3   OH228335   3.420   0.390  13.105 -0.2124  0.0533  0.1664
 2307TIP3    H128336   3.381   0.425  13.186  0.0751 -0.7842  0.6710
 2307TIP3    H228337   3.354   0.330  13.071  0.4557 -1.0784  0.8208
 2308TIP3   OH228338   0.576   5.793  16.941 -0.4464 -0.0263  0.0787
 2308TIP3    H128339   0.514   5.811  16.871 -3.6605 -0.1651  2.6428
 2308TIP3    H228340   0.521   5.769  17.016  2.8282 -2.8423  1.8799
 2309TIP3   OH228341   2.239   4.281   2.105 -0.3662  0.9857  0.0109
 2309TIP3    H128342   2.174   4.217   2.075 -0.8082  1.3476  0.1791
 2309TIP3    H228343   2.278   4.315   2.025 -1.1770  1.5768 -0.1472
 2310TIP3   OH228344   0.143   6.115   5.276 -0.1976 -0.2717  0.6721
 2310TIP3    H128345   0.183   6.035   5.311 -0.3707 -0.9647 -0.6786
 2310TIP3    H228346   0.212   6.181   5.285  1.4925 -1.5072 -1.8806
 2311TIP3   OH228347   0.252   0.148  14.198 -0.2134 -0.1532  0.1516
 2311TIP3    H128348   0.261   0.064  14.153  0.8829 -0.3710  0.7382
 2311TIP3    H228349   0.300   0.137  14.280  1.1431  1.4767 -0.3618
 2312TIP3   OH228350   1.423   0.030   0.815  0.2441 -0.0005 -0.0556
 2312TIP3    H128351   1.455  -0.033   0.879  1.7473  0.7852  0.0070
 2312TIP3    H228352   1.442   0.116   0.854  0.5033  0.4934 -1.2238
 2313TIP3   OH228353   4.744   3.376  15.315  0.6186  0.1692 -0.4651
 2313TIP3    H128354   4.830   3.369  15.358  0.1402 -0.7027  0.4048
 2313TIP3    H228355   4.756   3.334  15.230  0.8078 -0.9319  0.0765
 2314TIP3   OH228356   0.403   4.138  11.786  0.5491 -0.3842  0.4692
 2314TIP3    H128357   0.418   4.195  11.862  0.3926 -0.8219  0.8301
 2314TIP3    H228358   0.380   4.199  11.715 -0.2737 -0.0414  1.0174
 2315TIP3   OH228359   2.115   4.008   0.666 -0.1621 -0.5751 -0.7147
 2315TIP3    H128360   2.101   4.092   0.622 -0.5148  2.2626  4.1116
 2315TIP3    H228361   2.208   4.010   0.691 -0.6460 -0.4704  1.2663
 2316TIP3   OH228362   3.147   5.834  13.167 -0.4143  0.0552 -0.7052
 2316TIP3    H128363   3.191   5.800  13.245 -1.3792  1.1023  0.3412
 2316TIP3    H228364   3.141   5.759  13.108 -0.8350 -1.1173  0.7641
 2317TIP3   OH228365   5.839   4.331  12.943 -0.3503  0.2662  0.1716
 2317TIP3    H128366   5.841   4.302  13.034  1.2286 -0.9186 -0.1935
 2317TIP3    H228367   5.784   4.267  12.898 -1.5194  1.1178  0.3443
 2318TIP3   OH228368   0.637   1.977  16.848  0.0112  0.4254  0.1139
 2318TIP3    H128369   0.566   1.997  16.908  0.7767  2.1003  0.5148
 2318TIP3    H228370   0.632   2.045  16.781 -0.0061 -0.6375 -1.0005
 2319TIP3   OH228371   3.640   0.227   2.512 -0.1642  0.3118 -0.0603
 2319TIP3    H128372   3.628   0.133   2.525  0.1894  0.3049  0.2359
 2319TIP3    H228373   3.735   0.239   2.511 -0.2089  0.6819 -0.0002
 2320TIP3   OH228374   6.573   4.822  13.183 -0.1817  0.1490 -0.0840
 2320TIP3    H128375   6.641   4.882  13.150 -0.0550  0.6148  0.9917
 2320TIP3    H228376   6.561   4.759  13.112  0.3678  0.8871 -0.8601
 2321TIP3   OH228377   6.725   4.577   1.674 -0.0385 -0.3276  0.2621
 2321TIP3    H128378   6.773   4.655   1.702  0.3099 -0.5139  0.2016
 2321TIP3    H228379   6.791   4.524   1.629 -0.3483 -0.5062  0.0156
 2322TIP3   OH228380   0.739   1.231  15.635 -0.3073 -0.1844 -0.2176
 2322TIP3    H128381   0.661   1.194  15.677 -1.5182 -0.4692 -2.5404
 2322TIP3    H228382   0.744   1.187  15.550  3.2712 -1.2198  0.3614
 2323TIP3   OH228383   0.899   3.354  16.430 -0.3554  0.2975  0.5314
 2323TIP3    H128384   0.903   3.339  16.525 -0.1156 -0.9144  0.3497
 2323TIP3    H228385   0.967   3.298  16.394 -1.7961 -0.8767 -0.5131
 2324TIP3   OH228386   3.414   3.968   3.680  0.2529  0.1787  0.5031
 2324TIP3    H128387   3.392   3.982   3.588 -1.7539  0.6275  1.0150
 2324TIP3    H228388   3.504   4.001   3.688  1.9454 -3.1581 -2.0330
 2325TIP3   OH228389   0.736   3.003  12.180 -0.1700 -0.3570 -0.1840
 2325TIP3    H128390   0.814   3.046  12.145  0.6375 -0.4197  1.4621
 2325TIP3    H228391   0.730   2.920  12.133  0.3296 -0.0304 -0.8319
 2326TIP3   OH228392   1.632   1.375  16.842 -0.4362 -0.2517 -0.2105
 2326TIP3    H128393   1.648   1.308  16.909  3.5006 -1.4146 -2.0333
 2326TIP3    H228394   1.612   1.454  16.891 -0.8951 -1.7283  2.1754
 2327TIP3   OH228395   1.096   3.458  10.768 -0.0122 -0.1220 -0.4543
 2327TIP3    H128396   1.071   3.546  10.795 -1.6975 -0.9975  1.0751
 2327TIP3    H228397   1.015   3.419  10.736 -0.2214 -2.2306  2.2671
 2328TIP3   OH228398   4.758   1.262   1.326 -0.5035 -0.8749  0.2317
 2328TIP3    H128399   4.703   1.311   1.264  2.0696  0.5976 -1.1044
 2328TIP3    H228400   4.727   1.172   1.321 -4.8404  0.2527  2.0504
 2329TIP3   OH228401   4.327   2.204  11.315  0.5679  0.3489  0.0202
 2329TIP3    H128402   4.414   2.239  11.296 -0.0067  1.6813 -0.2486
 2329TIP3    H228403   4.267   2.259  11.264 -0.6008  0.8082  1.8090
 2330TIP3   OH228404   1.857   6.255  11.071  0.0241  0.6661  0.0078
 2330TIP3    H128405   1.824   6.207  10.996  0.8389  1.0003 -0.5838
 2330TIP3    H228406   1.779   6.281  11.119 -0.5174  0.5388 -0.7811
 2331TIP3   OH228407   5.932   0.159  13.155 -0.5556  0.1818 -0.2280
 2331TIP3    H128408   5.916   0.252  13.169  1.3502  0.6588 -1.0177
 2331TIP3    H228409   5.995   0.155  13.083  0.6946 -1.6439  0.8700
 2332TIP3   OH228410   4.527   6.258  10.584  0.5383  0.1151  0.1525
 2332TIP3    H128411   4.476   6.338  10.571  0.0588 -0.3174 -0.7773
 2332TIP3    H228412   4.616   6.288  10.602  0.3928  0.8548 -0.3352
 2333TIP3   OH228413   6.589   2.646  13.711 -0.1407  0.1528 -0.3492
 2333TIP3    H128414   6.631   2.732  13.711 -1.0948  0.6307 -0.4214
 2333TIP3    H228415   6.597   2.615  13.801  0.0920  0.3748 -0.2930
 2334TIP3   OH228416   1.063   0.463   4.638  0.3181 -0.0881  0.0071
 2334TIP3    H128417   0.991   0.405   4.613  0.2667  1.0773 -2.8595
 2334TIP3    H228418   1.106   0.417   4.710 -1.8819 -1.9085  0.2800
 2335TIP3   OH228419   2.073   2.024   5.566  0.4851 -0.2063  0.0070
 2335TIP3    H128420   2.082   1.985   5.479 -2.4351 -2.3414  0.5057
 2335TIP3    H228421   1.979   2.018   5.585  0.4265  3.6477  1.8330
 2336TIP3   OH228422   5.623   4.643  13.535 -0.1386 -0.2203 -0.7150
 2336TIP3    H128423   5.592   4.701  13.465 -2.0575 -1.3101 -0.8595
 2336TIP3    H228424   5.678   4.579  13.490  0.6290  0.4981 -0.8162
 2337TIP3   OH228425   5.640   0.864   1.984  0.0672  0.3106 -0.2430
 2337TIP3    H128426   5.735   0.869   1.999 -0.0586 -0.0210  0.7626
 2337TIP3    H228427   5.629   0.790   1.925  0.2973 -0.9301  1.2147
 2338TIP3   OH228428   4.558   5.857  14.850 -0.2999  0.7257  0.2165
 2338TIP3    H128429   4.559   5.886  14.759 -1.1679  1.2610  0.3765
 2338TIP3    H228430   4.478   5.893  14.887 -0.8940 -0.9985  0.7034
 2339TIP3   OH228431   0.740   6.416  15.084  0.3736 -0.4372  0.3108
 2339TIP3    H128432   0.762   6.432  15.176  0.3962 -1.1859  0.4391
 2339TIP3    H228433   0.790   6.482  15.036  0.6757 -0.3033  0.8025
 2340TIP3   OH228434   1.310   3.497  11.218  0.1592  0.1727 -0.1494
 2340TIP3    H128435   1.322   3.573  11.161 -1.6088 -0.5740 -1.6214
 2340TIP3    H228436   1.397   3.456  11.222  0.5734  0.8659 -1.4034
 2341TIP3   OH228437   2.123   1.807  15.755  0.0907 -0.0287 -0.0482
 2341TIP3    H128438   2.111   1.793  15.849 -1.3476 -0.2841 -0.2376
 2341TIP3    H228439   2.119   1.719  15.717 -1.1991  0.2001 -0.5033
 2342TIP3   OH228440   5.800   6.226   3.891  1.0651 -0.5473  0.2948
 2342TIP3    H128441   5.880   6.196   3.934  0.8572 -0.9569  0.4064
 2342TIP3    H228442   5.756   6.145   3.864  0.5601 -0.3350  0.4719
 2343TIP3   OH228443   6.136   4.053  11.104 -0.0840 -0.1324  0.0833
 2343TIP3    H128444   6.166   4.130  11.057  0.0338  0.0679  0.4849
 2343TIP3    H228445   6.196   3.983  11.078 -1.5866 -0.6963 -2.1393
 2344TIP3   OH228446   0.614   0.328   5.024  0.1173  0.3232 -0.1625
 2344TIP3    H128447   0.635   0.418   5.001  1.5446  0.3735  1.2036
 2344TIP3    H228448   0.658   0.276   4.956  1.6633  0.5763  0.6120
 2345TIP3   OH228449   1.391   1.055   1.320 -0.4848 -0.3912 -0.3169
 2345TIP3    H128450   1.346   1.131   1.357  1.0151  0.4383 -0.1445
 2345TIP3    H228451   1.330   0.982   1.334 -1.7817  0.6914 -0.1369
 2346TIP3   OH228452   2.148   0.785  11.595 -0.7350  0.3518 -0.3852
 2346TIP3    H128453   2.128   0.856  11.656 -1.7531 -0.8780  0.7553
 2346TIP3    H228454   2.078   0.789  11.530 -2.4192 -1.2777  1.2264
 2347TIP3   OH228455   3.320   5.273   5.874 -0.1746  0.1677 -0.6074
 2347TIP3    H128456   3.278   5.244   5.955  1.5793 -1.4976 -0.2264
 2347TIP3    H228457   3.314   5.198   5.815  3.9189 -1.0160  0.1847
 2348TIP3   OH228458   3.849   3.007  10.585  0.0974 -0.4238 -0.0083
 2348TIP3    H128459   3.825   3.089  10.628  1.4340  0.6401 -1.1838
 2348TIP3    H228460   3.904   2.962  10.650 -1.2185 -0.7570  0.9143
 2349TIP3   OH228461   2.518   5.340   1.987  0.0371 -0.3033  0.3678
 2349TIP3    H128462   2.603   5.301   2.006 -0.0726  0.2986  2.3791
 2349TIP3    H228463   2.456   5.291   2.042 -0.7005  0.1440 -0.0405
 2350TIP3   OH228464   5.552   1.242  10.981  0.3632  0.5483 -0.5166
 2350TIP3    H128465   5.604   1.166  11.007  0.7886  0.5121 -1.4596
 2350TIP3    H228466   5.539   1.232  10.887 -2.3681 -0.0744 -0.1705
 2351TIP3   OH228467   2.264   3.510   4.822 -0.4123  0.0795 -0.3837
 2351TIP3    H128468   2.287   3.528   4.731  0.9829 -1.0195 -0.2714
 2351TIP3    H228469   2.168   3.510   4.822 -0.4453 -0.5203 -1.9849
 2352TIP3   OH228470   3.940   0.221  16.940  0.0176  0.3185  0.1848
 2352TIP3    H128471   3.940   0.281  16.866 -0.1917 -1.5184 -1.3657
 2352TIP3    H228472   3.859   0.241  16.987 -0.3217  0.8663 -0.6142
 2353TIP3   OH228473   4.042   3.993   2.606  1.0625 -0.3295  0.4013
 2353TIP3    H128474   4.056   4.086   2.587  1.5082 -0.6864 -1.1866
 2353TIP3    H228475   4.062   3.949   2.524 -2.1939 -1.5664  0.0996
 2354TIP3   OH228476   2.084   6.587   1.447  0.8843  0.4937  0.3867
 2354TIP3    H128477   2.090   6.493   1.428 -0.9939  0.4604 -0.3503
 2354TIP3    H228478   2.165   6.624   1.412  0.8250 -0.6147 -1.0429
 2355TIP3   OH228479   2.720   1.061  16.933  0.1676 -0.4592 -0.4300
 2355TIP3    H128480   2.729   0.977  16.887  1.8946 -0.2478 -0.5438
 2355TIP3    H228481   2.810   1.094  16.941 -0.4636  1.3585 -0.3331
 2356TIP3   OH228482   0.406   2.376  12.789 -0.2229  0.5088 -0.1240
 2356TIP3    H128483   0.439   2.300  12.741  1.2299  0.5789  0.6785
 2356TIP3    H228484   0.354   2.425  12.725 -0.8111 -0.9166 -0.7695
 2357TIP3   OH228485   6.529   0.240  15.061  0.0641 -0.2436  0.0407
 2357TIP3    H128486   6.614   0.266  15.098  0.1291 -0.7118  0.2164
 2357TIP3    H228487   6.550   0.173  14.996 -0.1445 -0.1365 -0.1399
 2358TIP3   OH228488   2.100   2.403  10.760  0.2055  0.4137  0.3068
 2358TIP3    H128489   2.120   2.353  10.681  1.9573 -1.1290  1.6212
 2358TIP3    H228490   2.096   2.337  10.829  1.8392  1.9528  1.9928
 2359TIP3   OH228491   1.597   3.685  14.945 -0.0120 -0.1416 -0.2278
 2359TIP3    H128492   1.671   3.732  14.983 -0.7021 -0.7471  2.0086
 2359TIP3    H228493   1.523   3.707  15.001 -1.7008  0.8515 -2.6878
 2360TIP3   OH228494   4.389   4.651  14.255  0.3842 -0.5123  0.1600
 2360TIP3    H128495   4.314   4.593  14.268 -0.8844  0.3853 -2.4304
 2360TIP3    H228496   4.364   4.733  14.298 -0.5326  0.0233 -1.2922
 2361TIP3   OH228497   5.334   2.329  13.938 -0.1392 -0.0349 -0.9566
 2361TIP3    H128498   5.382   2.256  13.898  1.0927 -0.0272  0.4347
 2361TIP3    H228499   5.319   2.302  14.028 -0.6197  0.9850 -0.7165
 2362TIP3   OH228500   4.936   3.229   5.224  0.0857 -0.6246  0.0850
 2362TIP3    H128501   4.887   3.264   5.298  0.6127  1.8201 -0.6140
 2362TIP3    H228502   5.019   3.200   5.262 -0.0026 -0.2361  0.5925
 2363TIP3   OH228503   2.999   1.991   4.552 -0.1841 -0.0342  0.3045
 2363TIP3    H128504   2.978   1.904   4.588 -1.9865  0.0649 -0.3981
 2363TIP3    H228505   2.914   2.029   4.531  0.6243  1.5868 -0.1815
 2364TIP3   OH228506   5.552   1.096   3.020 -0.1055 -0.1685 -0.6238
 2364TIP3    H128507   5.460   1.123   3.023 -0.2077 -0.2009 -2.3322
 2364TIP3    H228508   5.601   1.178   3.023 -0.1836 -0.1434  0.1620
 2365TIP3   OH228509   3.769   3.144   4.316  0.5475  0.0394 -0.1777
 2365TIP3    H128510   3.685   3.159   4.358  0.8988  1.8917 -0.0149
 2365TIP3    H228511   3.756   3.173   4.225  0.9908  0.3430 -0.1514
 2366TIP3   OH228512   1.107   2.899  15.145  0.7078 -0.4826 -0.4243
 2366TIP3    H128513   1.017   2.925  15.126  0.6300  0.4590  1.1183
 2366TIP3    H228514   1.099   2.813  15.186  0.5421 -0.5632 -0.6235
 2367TIP3   OH228515   0.490   0.874   1.894  0.5505  0.2590 -0.5308
 2367TIP3    H128516   0.419   0.816   1.866  1.2625 -1.2140  0.5361
 2367TIP3    H228517   0.539   0.892   1.814 -0.4607  0.5066 -1.1114
 2368TIP3   OH228518   3.267   2.993  14.082  0.5211 -0.1479  1.1793
 2368TIP3    H128519   3.272   2.927  14.151  1.3884 -0.1003  1.1742
 2368TIP3    H228520   3.276   3.076  14.127 -1.7496  0.0777  1.3317
 2369TIP3   OH228521   2.609   0.588   2.158  0.6752  0.1074 -0.5844
 2369TIP3    H128522   2.636   0.496   2.159  0.1615 -0.0514 -0.8245
 2369TIP3    H228523   2.686   0.636   2.186  1.1513 -0.3444 -1.0906
 2370TIP3   OH228524   2.652   3.109  12.430  0.0707 -0.6646  0.3773
 2370TIP3    H128525   2.671   3.159  12.509  0.4448 -1.0726  0.5462
 2370TIP3    H228526   2.585   3.046  12.456 -0.9545  0.2269 -0.0187
 2371TIP3   OH228527   0.141   2.377   6.170 -0.8444  0.5842 -0.3958
 2371TIP3    H128528   0.158   2.416   6.084 -0.4658  0.7886 -0.2315
 2371TIP3    H228529   0.150   2.450   6.231  0.9715  0.0509  0.0329
 2372TIP3   OH228530   4.902   5.681   1.828 -0.5423  0.4216 -0.2317
 2372TIP3    H128531   4.956   5.678   1.749 -0.2973  0.3295 -0.0598
 2372TIP3    H228532   4.947   5.743   1.885 -0.6817  0.4331 -0.1354
 2373TIP3   OH228533   0.222   3.142  13.965  0.0673  0.3155  0.3595
 2373TIP3    H128534   0.298   3.085  13.952  0.7843  0.9150  1.7097
 2373TIP3    H228535   0.195   3.168  13.877  1.7364  0.4758 -0.1248
 2374TIP3   OH228536   3.843   4.330  16.132  0.2442 -0.0942  0.6413
 2374TIP3    H128537   3.766   4.336  16.189 -0.4305 -1.5500 -0.0558
 2374TIP3    H228538   3.807   4.336  16.043  1.1463  0.9105  0.3174
 2375TIP3   OH228539   2.580   6.270  14.007 -0.8281  0.2345  0.1452
 2375TIP3    H128540   2.550   6.187  14.042  1.2340 -0.3058  0.8007
 2375TIP3    H228541   2.532   6.281  13.925 -3.6332  0.1121  1.6441
 2376TIP3   OH228542   1.327   3.413  10.908 -0.1308  0.3820  0.6811
 2376TIP3    H128543   1.270   3.430  10.833  0.3883 -0.0162  0.1832
 2376TIP3    H228544   1.272   3.429  10.985 -1.0051 -0.3046  0.2154
 2377TIP3   OH228545   6.237   0.211   2.486 -0.3857  0.3823 -0.5566
 2377TIP3    H128546   6.277   0.133   2.525 -1.8059  0.0285  0.2734
 2377TIP3    H228547   6.243   0.278   2.554 -2.7671 -0.2038  0.3370
 2378TIP3   OH228548   5.264   6.034  12.914 -0.2875 -0.3585  0.2925
 2378TIP3    H128549   5.264   6.128  12.931  0.8026 -0.2494 -0.2386
 2378TIP3    H228550   5.304   5.995  12.992  0.3292 -0.2725  0.0244
 2379TIP3   OH228551   6.293   5.134  16.000  0.0596 -0.3901  0.4802
 2379TIP3    H128552   6.227   5.152  16.066 -0.4542 -2.0184  0.4696
 2379TIP3    H228553   6.271   5.046  15.967  0.6198  0.1321 -1.4595
 2380TIP3   OH228554   1.248   2.798   1.053  0.1801  0.3061  0.3998
 2380TIP3    H128555   1.228   2.705   1.065  2.1392  0.0341  2.0703
 2380TIP3    H228556   1.252   2.832   1.142  0.6068  1.7525 -0.1593
 2381TIP3   OH228557   0.855   2.504  16.799  0.2591 -0.0433  0.0840
 2381TIP3    H128558   0.799   2.545  16.734  0.4999 -2.1747 -1.5898
 2381TIP3    H228559   0.936   2.484  16.751  0.7978 -0.8543  1.2858
 2382TIP3   OH228560   0.954   5.883   0.004  0.5912  0.0170  0.5219
 2382TIP3    H128561   0.946   5.977  -0.011 -0.6983  0.1325  1.7223
 2382TIP3    H228562   0.887   5.864   0.070  1.6338 -1.5410  1.1709
 2383TIP3   OH228563   2.910   1.754  16.379  0.4519  0.3155  0.3856
 2383TIP3    H128564   2.885   1.677  16.328 -2.9006  1.0225  0.7261
 2383TIP3    H228565   2.951   1.813  16.315  0.5788 -0.6571 -0.4519
 2384TIP3   OH228566   5.275   4.273   2.573 -0.6461  0.2498 -0.5475
 2384TIP3    H128567   5.209   4.323   2.525 -3.0821  0.6827  2.8542
 2384TIP3    H228568   5.297   4.328   2.648  2.3412 -0.6802 -0.6273
 2385TIP3   OH228569   6.375   3.403  13.300 -0.2963 -0.4046 -0.2157
 2385TIP3    H128570   6.306   3.446  13.249 -0.7044 -1.8069 -0.9068
 2385TIP3    H228571   6.328   3.339  13.353  0.4075 -0.8434 -0.1231
 2386TIP3   OH228572   5.176   4.377  14.278  0.1452 -0.2909  0.5710
 2386TIP3    H128573   5.111   4.444  14.300 -0.0039 -0.2695  0.0826
 2386TIP3    H228574   5.206   4.401  14.191  3.0224  1.4507  1.9257
 2387TIP3   OH228575   2.963   6.781   4.117  0.2365 -0.4613  0.2799
 2387TIP3    H128576   2.902   6.854   4.117  0.2531 -0.4477 -0.2657
 2387TIP3    H228577   3.023   6.800   4.190 -0.8135 -0.8287  1.2728
 2388TIP3   OH228578   1.636   2.507   5.426  0.1178  0.0944 -0.0322
 2388TIP3    H128579   1.603   2.418   5.436  1.0259 -0.3652 -0.8942
 2388TIP3    H228580   1.570   2.551   5.373 -0.8213  0.2481  1.2247
 2389TIP3   OH228581   4.516   5.509   1.975 -0.3345 -0.0127 -0.3802
 2389TIP3    H128582   4.552   5.485   1.889  0.9201  0.1881  0.0703
 2389TIP3    H228583   4.565   5.587   2.000 -3.8554  2.8405 -1.5276
 2390TIP3   OH228584   1.857   2.826   0.247  0.9618  0.2316 -0.2218
 2390TIP3    H128585   1.893   2.799   0.331  0.8916  4.4333  1.3927
 2390TIP3    H228586   1.764   2.840   0.265  0.8945  0.9394 -1.0713
 2391TIP3   OH228587   4.710   3.280   2.251  0.1320 -0.2144  0.5749
 2391TIP3    H128588   4.774   3.246   2.313 -1.2209 -1.1324  1.5237
 2391TIP3    H228589   4.644   3.211   2.244 -0.3701  0.3727 -0.9741
 2392TIP3   OH228590   3.673   6.244   4.421  0.2022 -0.1808 -0.0569
 2392TIP3    H128591   3.634   6.331   4.426 -2.0684 -1.1764  0.3582
 2392TIP3    H228592   3.599   6.184   4.412  1.6778 -2.1291  0.0933
 2393TIP3   OH228593   1.545   0.103  11.744  0.1719 -0.5216  0.3499
 2393TIP3    H128594   1.569   0.097  11.651  0.8652 -0.7422  0.5383
 2393TIP3    H228595   1.605   0.043  11.788  0.5485  0.3774  1.0811
 2394TIP3   OH228596   1.757   1.165   1.055 -0.3196 -0.2188  0.8990
 2394TIP3    H128597   1.852   1.156   1.055 -0.2757 -0.3493 -1.4544
 2394TIP3    H228598   1.741   1.255   1.083  0.7327  0.9489 -1.9541
 2395TIP3   OH228599   2.811   4.677   1.995  0.1622  0.4469  0.1573
 2395TIP3    H128600   2.769   4.592   2.010  1.5052 -0.3288 -0.3815
 2395TIP3    H228601   2.875   4.685   2.065  0.5121  0.7127 -0.1876
 2396TIP3   OH228602   6.774   4.008   0.819  0.1125 -0.1827 -0.3154
 2396TIP3    H128603   6.826   4.045   0.891 -0.6178  1.2310 -0.4761
 2396TIP3    H228604   6.836   3.953   0.771  1.7349  2.0852 -0.9898
 2397TIP3   OH228605   6.396   1.033   2.146  0.5492  0.3070 -0.1258
 2397TIP3    H128606   6.440   0.959   2.188  0.2641  0.3256  0.2112
 2397TIP3    H228607   6.304   1.006   2.141  0.2661  1.0329  0.8982
 2398TIP3   OH228608   0.037   3.426  15.029  0.2698  0.2966 -0.8051
 2398TIP3    H128609   0.055   3.334  15.012  1.3741  0.6183 -1.4523
 2398TIP3    H228610   0.020   3.463  14.943 -0.4294  0.6548 -0.5204
 2399TIP3   OH228611   1.350   6.816   0.014  0.0600  0.3878 -0.0498
 2399TIP3    H128612   1.385   6.830   0.102 -0.5920 -1.8927  0.6464
 2399TIP3    H228613   1.424   6.835  -0.044  1.1943 -0.2084  1.1327
 2400TIP3   OH228614   1.022   4.998  12.111  0.0313 -0.6304  0.0423
 2400TIP3    H128615   1.008   5.061  12.183 -0.2415 -0.1125 -0.4565
 2400TIP3    H228616   0.981   4.917  12.141 -0.0079 -0.4419  0.5060
 2401TIP3   OH228617   1.029   6.329  11.291  0.6628 -0.5604  0.0996
 2401TIP3    H128618   1.114   6.372  11.277 -0.4499  1.0356 -2.3825
 2401TIP3    H228619   0.965   6.397  11.274 -1.2235 -2.9409 -3.6216
 2402TIP3   OH228620   1.695   6.360   1.522 -0.4225 -0.1013  0.2982
 2402TIP3    H128621   1.706   6.420   1.596 -1.1097  1.3925 -0.7418
 2402TIP3    H228622   1.641   6.409   1.460 -3.0414 -2.7157  0.3469
 2403TIP3   OH228623   4.336   3.234   4.985  0.3102  0.4600  0.2397
 2403TIP3    H128624   4.414   3.261   5.032  1.1909 -1.0579 -0.2554
 2403TIP3    H228625   4.345   3.274   4.898  1.5793 -1.2278 -0.4738
 2404TIP3   OH228626   3.705   2.098  15.609 -0.4851  0.0110  0.0626
 2404TIP3    H128627   3.712   2.148  15.690 -0.6037  1.7188 -0.9377
 2404TIP3    H228628   3.757   2.019  15.625 -0.1765  0.5104  1.6564
 2405TIP3   OH228629   3.213   3.660   4.598  0.0242  0.2481 -0.4006
 2405TIP3    H128630   3.123   3.628   4.590  0.2838 -1.1858  1.7717
 2405TIP3    H228631   3.264   3.604   4.540 -0.1892 -0.3544 -0.0127
 2406TIP3   OH228632   1.748   3.560  14.352  0.1268 -0.2238  0.4422
 2406TIP3    H128633   1.697   3.598  14.424  0.2740  0.4123  0.2094
 2406TIP3    H228634   1.818   3.512  14.396  0.2731  0.2446  0.7224
 2407TIP3   OH228635   5.891   4.923   2.621 -0.2083  0.0581  0.2085
 2407TIP3    H128636   5.951   4.987   2.659  0.7566 -0.9500  0.4303
 2407TIP3    H228637   5.804   4.963   2.630  0.3746  1.3909  0.2033
 2408TIP3   OH228638   1.749   0.638  12.576 -0.7821  0.3596 -0.0494
 2408TIP3    H128639   1.775   0.702  12.642 -0.5780  0.8301 -0.5714
 2408TIP3    H228640   1.801   0.661  12.499 -0.1901 -0.8869 -0.0321
 2409TIP3   OH228641   6.245   5.376   2.162  0.5609 -0.0771 -0.0712
 2409TIP3    H128642   6.259   5.319   2.238  2.7317 -0.5118 -0.7315
 2409TIP3    H228643   6.333   5.405   2.137 -0.1507  0.5609 -2.0389
 2410TIP3   OH228644   5.724   4.842   0.036  0.3639 -0.2232 -0.0909
 2410TIP3    H128645   5.681   4.872  -0.044 -0.9607 -1.7585  0.0026
 2410TIP3    H228646   5.818   4.847   0.016  0.2449  3.1754 -0.3021
 2411TIP3   OH228647   6.374   4.824  13.603 -0.2620 -0.1138  0.0807
 2411TIP3    H128648   6.332   4.898  13.559 -1.2512  0.3701  1.7735
 2411TIP3    H228649   6.342   4.747  13.556 -1.1062  0.3946 -0.2022
 2412TIP3   OH228650   2.886   6.176   0.484 -0.2919 -0.4505 -0.1849
 2412TIP3    H128651   2.944   6.111   0.444 -1.3715 -0.6954 -1.4177
 2412TIP3    H228652   2.943   6.252   0.501  0.1744 -0.1795 -2.6014
 2413TIP3   OH228653   3.600   3.744   4.715 -0.3209  0.6498  0.3290
 2413TIP3    H128654   3.540   3.806   4.757 -0.2523  0.3261  0.9135
 2413TIP3    H228655   3.572   3.658   4.747 -1.4210  0.2021 -1.6974
 2414TIP3   OH228656   4.799   5.994   0.210 -0.5987  0.1530 -0.0622
 2414TIP3    H128657   4.840   5.942   0.141  0.4171 -0.9009  1.2687
 2414TIP3    H228658   4.869   6.051   0.242 -1.1954  1.0004 -0.2261
 2415TIP3   OH228659   4.817   6.607   3.095 -0.0982  0.0139  0.7574
 2415TIP3    H128660   4.780   6.649   3.172  0.3328  1.0407  0.4177
 2415TIP3    H228661   4.744   6.561   3.054 -0.2682 -0.7957  1.9392
 2416TIP3   OH228662   3.052   0.419  14.827  0.3862  0.0997 -0.0201
 2416TIP3    H128663   2.997   0.340  14.828 -0.4777  0.6863  0.5874
 2416TIP3    H228664   3.136   0.390  14.862  0.7842 -1.0160 -1.7679
 2417TIP3   OH228665   5.283   1.499   2.071  0.1893 -0.1068  0.0508
 2417TIP3    H128666   5.296   1.593   2.062  1.5662 -0.2655  0.2525
 2417TIP3    H228667   5.356   1.460   2.024 -0.3596 -1.0855 -0.0136
 2418TIP3   OH228668   1.665   1.227  15.635 -0.2899 -0.0327 -0.1383
 2418TIP3    H128669   1.569   1.223  15.637 -0.3995 -0.5454 -2.8735
 2418TIP3    H228670   1.693   1.147  15.681 -1.1141  0.2778  0.9628
 2419TIP3   OH228671   4.188   3.046   2.590  0.2990  0.6016  0.1234
 2419TIP3    H128672   4.226   2.959   2.602  1.4731  1.1451  0.5318
 2419TIP3    H228673   4.108   3.046   2.642  1.3959  0.4552  1.8635
 2420TIP3   OH228674   6.128   5.570   5.018  0.1188  0.1566 -0.3765
 2420TIP3    H128675   6.079   5.511   4.961  0.9261  0.7936 -1.8115
 2420TIP3    H228676   6.089   5.560   5.104 -0.4906 -1.6226 -0.8236
 2421TIP3   OH228677   3.627   4.445  15.468 -0.1097  0.2887  1.2077
 2421TIP3    H128678   3.704   4.501  15.482  1.6258 -1.9325  1.1402
 2421TIP3    H228679   3.596   4.469  15.381  1.0137  0.6699  0.8901
 2422TIP3   OH228680   5.048   5.488   0.312 -0.0139  0.1500  0.5073
 2422TIP3    H128681   4.954   5.497   0.295 -0.6311 -1.2472  2.7589
 2422TIP3    H228682   5.066   5.550   0.382  0.8197  0.5334 -0.0289
 2423TIP3   OH228683   1.892   4.355  12.715  0.2576  0.5495 -0.3276
 2423TIP3    H128684   1.977   4.357  12.759  1.1075 -1.2401 -1.7719
 2423TIP3    H228685   1.909   4.386  12.626  0.0962 -2.5463 -1.5557
 2424TIP3   OH228686   4.265   2.223   2.326 -0.0696 -0.2122 -0.0083
 2424TIP3    H128687   4.254   2.175   2.244  1.5747  1.0182 -1.0300
 2424TIP3    H228688   4.189   2.280   2.332 -0.4794 -0.7176 -0.3852
 2425TIP3   OH228689   3.533   2.379   3.906  0.3244 -0.1232 -0.0424
 2425TIP3    H128690   3.479   2.379   3.985 -0.2450 -0.6961 -0.4168
 2425TIP3    H228691   3.619   2.408   3.935  0.3235 -1.0433  0.9362
 2426TIP3   OH228692   5.487   5.862   4.070  0.3211  0.3668  0.0265
 2426TIP3    H128693   5.464   5.866   3.977 -0.0973 -0.3236  0.0967
 2426TIP3    H228694   5.583   5.867   4.071  0.3066  0.7920 -0.4148
 2427TIP3   OH228695   5.569   2.055  15.725  0.2203  0.4087 -0.2499
 2427TIP3    H128696   5.565   2.001  15.646 -0.0886 -0.0674  0.0853
 2427TIP3    H228697   5.632   2.010  15.781  1.1628  1.2562 -0.5920
 2428TIP3   OH228698   2.548   6.482   0.552 -0.3819 -0.0759 -0.3747
 2428TIP3    H128699   2.560   6.477   0.647  0.1759  1.3198 -0.3511
 2428TIP3    H228700   2.474   6.423   0.535 -1.2084  0.4700  1.0730
 2429TIP3   OH228701   6.120   2.426  11.931  0.5299 -0.0147  0.0711
 2429TIP3    H128702   6.151   2.340  11.901  0.5951  0.2837 -0.7398
 2429TIP3    H228703   6.046   2.446  11.874 -0.9778 -0.5590  1.7537
 2430TIP3   OH228704   6.631   4.043  14.353 -0.5063  0.7003  0.0623
 2430TIP3    H128705   6.565   4.053  14.285  1.1618  1.4649 -1.5077
 2430TIP3    H228706   6.635   3.948  14.369 -1.5843  0.6027 -0.1869
 2431TIP3   OH228707   1.802   0.788   4.366  0.0715 -0.2622  0.3184
 2431TIP3    H128708   1.820   0.781   4.272 -0.4571 -2.7681  0.3247
 2431TIP3    H228709   1.828   0.877   4.389  0.0960  0.4710 -2.2149
 2432TIP3   OH228710   0.002   1.636   4.717  0.8677  0.3142  0.2481
 2432TIP3    H128711  -0.069   1.571   4.712  1.7890 -1.1367  3.3510
 2432TIP3    H228712   0.057   1.618   4.641  0.1701 -1.4406  0.1109
 2433TIP3   OH228713   3.664   1.631   1.026  0.3083 -0.2238  0.3261
 2433TIP3    H128714   3.634   1.640   0.935 -1.2877  0.8286  0.9052
 2433TIP3    H228715   3.641   1.714   1.067  2.6395  0.0270  1.2903
 2434TIP3   OH228716   6.733   4.985   4.715 -0.5048 -0.6735  0.2242
 2434TIP3    H128717   6.694   5.071   4.698 -0.8578 -1.0384 -0.9403
 2434TIP3    H228718   6.722   4.971   4.809  0.7408  1.1122  0.6825
 2435TIP3   OH228719   3.707   2.365  13.926  0.3454 -0.4586  0.3144
 2435TIP3    H128720   3.743   2.453  13.915  0.0204 -0.2379  0.9530
 2435TIP3    H228721   3.707   2.327  13.838 -1.9344  1.1039 -0.4251
 2436TIP3   OH228722   5.239   1.388   0.545 -0.3701  0.6334 -0.6740
 2436TIP3    H128723   5.267   1.434   0.625  0.9694 -0.7985 -0.2601
 2436TIP3    H228724   5.144   1.385   0.551 -0.2817 -0.2073  1.3826
 2437TIP3   OH228725   6.769   4.069   0.177 -1.0251  0.6313 -0.1592
 2437TIP3    H128726   6.817   4.152   0.172 -0.8105  0.4747 -0.8671
 2437TIP3    H228727   6.767   4.047   0.270  0.9737  0.2497 -0.1712
 2438TIP3   OH228728   6.770   6.265  17.043 -0.5268  0.5781 -0.2684
 2438TIP3    H128729   6.700   6.293  16.983 -0.5725  0.0122 -0.4925
 2438TIP3    H228730   6.724   6.239  17.122 -0.4353  1.6985  0.1704
 2439TIP3   OH228731   6.371   4.433   1.384  0.0339 -0.4554  0.2707
 2439TIP3    H128732   6.441   4.496   1.403 -0.2453 -0.1936  0.4572
 2439TIP3    H228733   6.350   4.449   1.292 -0.0262 -0.2836  0.3129
 2440TIP3   OH228734   3.092   2.218   4.686 -0.1064  0.4046 -0.3831
 2440TIP3    H128735   3.186   2.210   4.675  0.0844  1.6898  0.0530
 2440TIP3    H228736   3.054   2.166   4.616  0.8679 -2.4197  1.0335
 2441TIP3   OH228737   2.484   5.835  15.625  0.1799  0.1181 -0.0511
 2441TIP3    H128738   2.468   5.929  15.624  1.3631  0.3301 -1.1948
 2441TIP3    H228739   2.411   5.797  15.576 -2.2428  0.0192  3.2806
 2442TIP3   OH228740   1.226   3.368   0.844  0.1075 -0.2736 -0.1463
 2442TIP3    H128741   1.275   3.295   0.807 -0.2975  0.0685 -1.4172
 2442TIP3    H228742   1.142   3.366   0.799  0.8241  2.2400 -1.8703
 2443TIP3   OH228743   2.927   5.477  15.412  0.1343  0.2615  0.0099
 2443TIP3    H128744   3.018   5.489  15.384  0.2188 -0.6989 -0.1728
 2443TIP3    H228745   2.926   5.506  15.504  0.4249  1.0668 -0.2348
 2444TIP3   OH228746   4.093   5.738   1.735 -0.2507  0.2439 -0.2835
 2444TIP3    H128747   4.141   5.813   1.770 -1.1561  1.4181 -1.4529
 2444TIP3    H228748   4.160   5.687   1.688  0.4349  0.0991  0.8112
 2445TIP3   OH228749   3.601   1.180  10.412 -0.2726  1.0892  0.3657
 2445TIP3    H128750   3.526   1.130  10.381 -0.4193  1.8650 -0.5664
 2445TIP3    H228751   3.622   1.239  10.340  1.0444  1.1027  0.7338
 2446TIP3   OH228752   5.868   4.309   1.839  0.2089 -0.3667 -0.1727
 2446TIP3    H128753   5.860   4.232   1.895 -2.5756 -1.3939 -1.7293
 2446TIP3    H228754   5.855   4.383   1.897 -2.4955 -1.3794  0.7012
 2447TIP3   OH228755   2.606   4.302   3.745  0.1064 -0.0072 -0.2811
 2447TIP3    H128756   2.699   4.279   3.741  0.2121  0.0529  1.2454
 2447TIP3    H228757   2.574   4.289   3.656  1.8842  1.2659 -1.1586
 2448TIP3   OH228758   5.425   6.250   4.402  0.2797 -0.2293 -0.6307
 2448TIP3    H128759   5.400   6.165   4.365 -1.2804 -0.0305 -0.1004
 2448TIP3    H228760   5.423   6.310   4.328 -3.7567  0.3646 -0.2686
 2449TIP3   OH228761   4.501   5.825  10.317 -0.2285 -0.3530  0.1247
 2449TIP3    H128762   4.514   5.884  10.391 -1.9352 -0.5635  0.6367
 2449TIP3    H228763   4.485   5.739  10.357  1.8601 -1.1432 -0.6033
 2450TIP3   OH228764   6.626   6.717  14.960 -0.6122 -0.3071  0.1965
 2450TIP3    H128765   6.663   6.700  15.047  0.8802  1.6450  0.0220
 2450TIP3    H228766   6.663   6.648  14.905 -3.0754 -2.7364  1.3666
 2451TIP3   OH228767   2.004   4.759  12.603 -0.0817 -0.0328 -0.5177
 2451TIP3    H128768   1.914   4.736  12.627  0.8734 -2.9885  0.6465
 2451TIP3    H228769   1.999   4.778  12.509 -1.8355 -0.6947 -0.6035
 2452TIP3   OH228770   1.769   1.461   5.745 -0.0017  0.1964  0.8073
 2452TIP3    H128771   1.795   1.533   5.802 -0.2806 -1.0061  2.5486
 2452TIP3    H228772   1.750   1.388   5.805 -2.2505 -0.5775 -0.6925
 2453TIP3   OH228773   4.834   2.335   3.000 -0.6313 -0.2821  0.5481
 2453TIP3    H128774   4.923   2.304   3.018 -0.2660 -0.2576 -1.0500
 2453TIP3    H228775   4.845   2.401   2.931 -1.8894 -0.2493  0.3504
 2454TIP3   OH228776   2.986   2.291   2.589  0.1608 -0.5074 -0.1532
 2454TIP3    H128777   3.014   2.215   2.539  1.3874 -1.1366  1.4316
 2454TIP3    H228778   3.048   2.360   2.565  0.0166 -0.4662 -0.4050
 2455TIP3   OH228779   5.654   3.764  10.195 -0.2969  0.5012  0.3110
 2455TIP3    H128780   5.595   3.835  10.172 -0.9927  0.4983  1.8990
 2455TIP3    H228781   5.603   3.684  10.179 -0.7604  0.4972  1.6271
 2456TIP3   OH228782   4.835   5.057  13.928 -0.5335 -0.0499 -0.0875
 2456TIP3    H128783   4.910   5.029  13.875 -1.8406 -0.0621 -2.0185
 2456TIP3    H228784   4.833   4.996  14.001  1.5117  0.1403  0.1982
 2457TIP3   OH228785   4.322   3.066  15.263 -0.3209  0.0753 -0.2232
 2457TIP3    H128786   4.300   3.158  15.272  1.1499  0.2593  3.0192
 2457TIP3    H228787   4.296   3.026  15.346  0.9567 -1.9747 -0.7120
 2458TIP3   OH228788   0.229   0.274  16.053 -0.6554 -0.2758 -0.6284
 2458TIP3    H128789   0.302   0.277  16.115 -0.7871  0.2136 -0.4938
 2458TIP3    H228790   0.199   0.364  16.046 -0.2361 -0.2206 -1.9169
 2459TIP3   OH228791   0.264   0.266   5.193  0.7303 -0.4679  0.7148
 2459TIP3    H128792   0.180   0.236   5.227 -0.3885  0.0724 -1.3830
 2459TIP3    H228793   0.329   0.211   5.237 -0.7356 -1.2457  2.0061
 2460TIP3   OH228794   5.871   0.895   6.187 -0.1771 -0.4769  0.1091
 2460TIP3    H128795   5.961   0.870   6.167  0.4760  1.5048  0.3473
 2460TIP3    H228796   5.853   0.854   6.272  0.6864 -0.4718  0.3006
 2461TIP3   OH228797   4.925   4.204  16.374 -0.3027  0.5799  0.0047
 2461TIP3    H128798   4.861   4.163  16.316 -0.2033 -0.0417  0.3259
 2461TIP3    H228799   4.919   4.154  16.456  1.8668 -0.6945 -0.5408
 2462TIP3   OH228800   1.632   3.200  12.007 -0.7717  0.1063  0.8387
 2462TIP3    H128801   1.551   3.182  12.054 -1.8553 -2.7528 -1.7369
 2462TIP3    H228802   1.701   3.164  12.063 -1.7198 -0.9555  1.3661
 2463TIP3   OH228803   0.050   1.342  11.626  0.6454  0.0152  0.5094
 2463TIP3    H128804   0.112   1.275  11.597  0.9821  0.5042  0.0876
 2463TIP3    H228805   0.065   1.415  11.567 -0.2375  0.1940  0.5036
 2464TIP3   OH228806   1.864   3.565   2.812  0.4166  0.1330  0.3180
 2464TIP3    H128807   1.956   3.593   2.813  0.4468  0.0454  0.0816
 2464TIP3    H228808   1.868   3.470   2.812  0.3073  0.1154  1.6896
 2465TIP3   OH228809   0.779   2.288   4.895  0.1461  0.1284 -0.0044
 2465TIP3    H128810   0.740   2.205   4.922 -0.2268  0.3985  0.3109
 2465TIP3    H228811   0.858   2.296   4.949 -1.0529  1.0756  1.6908
 2466TIP3   OH228812   2.149   1.297  10.768 -0.1920 -0.4392 -0.7740
 2466TIP3    H128813   2.242   1.318  10.777 -0.2993 -0.1061 -0.3769
 2466TIP3    H228814   2.143   1.243  10.690  0.1960  0.4805 -1.4532
 2467TIP3   OH228815   6.129   2.382  15.053 -0.5360  0.0333 -0.3427
 2467TIP3    H128816   6.097   2.447  15.116 -0.3514 -1.4552  1.3985
 2467TIP3    H228817   6.224   2.397  15.050  0.1978 -2.4936  3.1891
 2468TIP3   OH228818   1.635   5.621  16.008  0.4988  0.4418 -0.2306
 2468TIP3    H128819   1.622   5.712  15.983  0.0722  0.3902 -0.2086
 2468TIP3    H228820   1.709   5.592  15.955 -0.3906  0.3346 -1.4769
 2469TIP3   OH228821   4.725   6.662  14.983 -0.6276  0.1647  0.2622
 2469TIP3    H128822   4.685   6.577  14.963 -0.5195  0.6141 -2.1711
 2469TIP3    H228823   4.653   6.725  14.974 -0.2176  0.5639 -0.2935
 2470TIP3   OH228824   0.665   0.489   6.185 -0.1695  0.2864  0.0796
 2470TIP3    H128825   0.758   0.466   6.176  0.1103  2.1004 -3.2098
 2470TIP3    H228826   0.618   0.417   6.143 -0.3154 -0.4985  1.5065
 2471TIP3   OH228827   2.627   4.163   5.291 -0.6447 -0.5910  0.7316
 2471TIP3    H128828   2.559   4.142   5.226 -1.6697 -1.0958  1.9330
 2471TIP3    H228829   2.709   4.144   5.246 -1.2277  0.5983 -0.9800
 2472TIP3   OH228830   1.828   1.449  13.494 -0.3997  0.1041  0.5016
 2472TIP3    H128831   1.889   1.500  13.548 -1.6799  1.5306  0.6750
 2472TIP3    H228832   1.743   1.462  13.536 -0.9178 -1.4166 -0.0410
 2473TIP3   OH228833   6.601   0.177  11.940  0.0199  0.0560  0.5402
 2473TIP3    H128834   6.685   0.133  11.955 -0.3633 -0.9409 -0.1512
 2473TIP3    H228835   6.581   0.159  11.848 -0.6355  0.8530  0.5178
 2474TIP3   OH228836   3.357   5.039  13.732  0.0296 -0.3848  0.0886
 2474TIP3    H128837   3.428   4.994  13.685  0.0997 -1.3687  1.0932
 2474TIP3    H228838   3.402   5.091  13.799  0.0097  1.8994 -1.5466
 2475TIP3   OH228839   5.455   3.188  10.930 -0.3007  0.2220  0.2368
 2475TIP3    H128840   5.388   3.181  10.998  0.4710 -2.3519  0.8076
 2475TIP3    H228841   5.417   3.143  10.855 -0.6014  1.8946 -0.6664
 2476TIP3   OH228842   0.159   3.639   1.921 -0.0305  0.1478 -0.1611
 2476TIP3    H128843   0.143   3.734   1.915 -0.0299  0.1325 -0.4092
 2476TIP3    H228844   0.073   3.602   1.943  0.3231  0.3733  1.7684
 2477TIP3   OH228845   4.307   0.504  16.805  0.0330  0.1325 -0.8819
 2477TIP3    H128846   4.346   0.511  16.719 -0.9590  0.6163 -1.3128
 2477TIP3    H228847   4.231   0.446  16.792  0.4714 -0.6371 -0.1165
 2478TIP3   OH228848   4.294   3.962   1.987  0.2458  0.7555  0.0669
 2478TIP3    H128849   4.328   4.015   2.059 -2.4654  2.0388  0.5656
 2478TIP3    H228850   4.311   4.014   1.909  0.7858  0.6430  0.1064
 2479TIP3   OH228851   3.052   0.500  11.986  0.3320 -0.2212 -0.4271
 2479TIP3    H128852   3.091   0.437  12.047  0.9305  0.7657  0.2372
 2479TIP3    H228853   2.957   0.485  11.994  0.4241 -0.3754  0.4518
 2480TIP3   OH228854   6.384   4.522   0.085  0.6230  0.6199 -0.4238
 2480TIP3    H128855   6.374   4.430   0.109  2.0524  0.4200 -0.4682
 2480TIP3    H228856   6.451   4.555   0.145 -0.5589  1.9188  0.2438
 2481TIP3   OH228857   4.314   4.298   3.646 -0.0593  0.2043  0.2852
 2481TIP3    H128858   4.315   4.278   3.740 -3.1197  0.3457  0.4583
 2481TIP3    H228859   4.227   4.272   3.617 -0.9274  4.2745 -1.5332
 2482TIP3   OH228860   0.960   4.749  15.682  1.0592 -0.0022  0.9473
 2482TIP3    H128861   0.901   4.765  15.755  0.6142  0.6122  0.4517
 2482TIP3    H228862   0.953   4.826  15.627 -0.0251 -1.2335 -0.7228
 2483TIP3   OH228863   1.801   3.815  11.741 -0.1890 -0.4204 -0.0290
 2483TIP3    H128864   1.872   3.863  11.785 -0.1427 -0.4861 -0.0325
 2483TIP3    H228865   1.806   3.843  11.650 -0.9182  0.4896  0.1924
 2484TIP3   OH228866   6.384   5.527  13.482 -0.2384  0.7991  0.0495
 2484TIP3    H128867   6.298   5.486  13.484 -0.1064  0.4924  2.4935
 2484TIP3    H228868   6.368   5.613  13.442 -1.8168  1.0032  1.0270
 2485TIP3   OH228869   2.288   6.150   4.723 -0.5719  0.0824  0.1663
 2485TIP3    H128870   2.258   6.061   4.742 -0.5499 -0.0613 -0.4707
 2485TIP3    H228871   2.351   6.169   4.793 -0.9969 -0.1852  0.6318
 2486TIP3   OH228872   5.171   0.684   4.475  0.8920 -0.3108  0.0996
 2486TIP3    H128873   5.153   0.592   4.490 -1.8068  0.2619  0.7564
 2486TIP3    H228874   5.164   0.725   4.561  1.1933  0.6389 -0.3147
 2487TIP3   OH228875   4.272   2.467  10.911  0.2749 -0.2223  0.2324
 2487TIP3    H128876   4.233   2.547  10.878 -0.2938 -0.4653  0.3113
 2487TIP3    H228877   4.356   2.495  10.949  1.0515  0.0401 -1.5546
 2488TIP3   OH228878   3.471   5.187   6.366 -0.3984  0.4024  0.5971
 2488TIP3    H128879   3.436   5.264   6.321 -1.2482  0.2693  1.0149
 2488TIP3    H228880   3.396   5.148   6.410  0.0940 -0.4678  0.6946
 2489TIP3   OH228881   3.551   1.068   2.523 -0.1019 -0.4831  0.0365
 2489TIP3    H128882   3.529   1.020   2.603  1.0039 -2.5240 -0.8096
 2489TIP3    H228883   3.637   1.034   2.498  1.8023  3.4408  0.4314
 2490TIP3   OH228884   3.822   6.574   4.402  0.4155 -0.1806 -0.1151
 2490TIP3    H128885   3.730   6.585   4.424  1.1168  1.4865  2.4283
 2490TIP3    H228886   3.843   6.485   4.428  0.2841  0.5488  2.7929
 2491TIP3   OH228887   1.863   5.894   5.301 -0.4575  0.1873 -0.5644
 2491TIP3    H128888   1.887   5.938   5.219 -0.0386 -0.8368 -1.0173
 2491TIP3    H228889   1.866   5.801   5.279 -0.9115 -0.0851  0.4745
 2492TIP3   OH228890   4.848   0.822  12.378 -0.3200 -0.4741 -0.0464
 2492TIP3    H128891   4.803   0.872  12.310 -0.8207 -2.0959 -0.9589
 2492TIP3    H228892   4.925   0.786  12.335  0.4957  0.1816  0.8273
 2493TIP3   OH228893   4.034   6.311  15.675  0.1719  0.3547 -0.0727
 2493TIP3    H128894   4.086   6.243  15.632  1.0470  0.1501  1.2620
 2493TIP3    H228895   3.944   6.280  15.666  0.4301 -0.2635 -0.7108
 2494TIP3   OH228896   5.702   1.949  15.942  0.5309  0.0625 -0.3700
 2494TIP3    H128897   5.797   1.960  15.943  0.6464 -0.7942 -0.8598
 2494TIP3    H228898   5.679   1.926  16.033  0.8179  0.0421 -0.3028
 2495TIP3   OH228899   1.972   2.401   0.633  0.0477  0.1637 -0.1475
 2495TIP3    H128900   1.907   2.448   0.684 -1.0324 -0.3727 -0.9903
 2495TIP3    H228901   1.925   2.327   0.596  1.1620 -0.2939 -0.7095
 2496TIP3   OH228902   3.266   2.113   2.737 -0.3021  0.1126  0.0500
 2496TIP3    H128903   3.321   2.152   2.670 -1.7709 -1.0075 -1.9403
 2496TIP3    H228904   3.271   2.174   2.811  2.3036  0.8031 -0.6002
 2497TIP3   OH228905   0.846   5.632   1.830  0.7645 -0.6150  0.5316
 2497TIP3    H128906   0.786   5.668   1.895  0.8180  0.0102  0.2369
 2497TIP3    H228907   0.838   5.690   1.754  0.7867 -1.2688  0.0198
 2498TIP3   OH228908   6.126   4.663  15.935  0.3139  0.4150 -0.0345
 2498TIP3    H128909   6.176   4.633  16.011  0.7748  0.2285 -0.4064
 2498TIP3    H228910   6.192   4.675  15.866 -0.3746 -1.9987 -1.2369
 2499TIP3   OH228911   3.576   4.816  11.421 -0.3482 -0.2611 -0.2039
 2499TIP3    H128912   3.554   4.891  11.365 -1.0050 -0.8832 -0.8157
 2499TIP3    H228913   3.531   4.742  11.379  1.1348 -1.1960 -0.2157
 2500TIP3   OH228914   6.120   0.399   5.214 -0.0803 -0.0045 -0.0293
 2500TIP3    H128915   6.213   0.394   5.195 -0.2394  0.6158 -1.0191
 2500TIP3    H228916   6.097   0.491   5.200 -0.5491  0.1756  1.6444
 2501TIP3   OH228917   1.338   3.701  11.028  0.2786  0.0838 -0.3741
 2501TIP3    H128918   1.432   3.702  11.046  0.5707 -2.3294 -1.3836
 2501TIP3    H228919   1.331   3.730  10.937 -0.2683  2.7754  0.4444
 2502TIP3   OH228920   0.772   5.132  14.911  0.9791 -0.1084 -0.0840
 2502TIP3    H128921   0.818   5.191  14.971  1.5915  0.4643 -1.0815
 2502TIP3    H228922   0.682   5.163  14.911  0.7231 -0.7797  1.3286
 2503TIP3   OH228923   0.806   4.233   1.172 -0.0064  0.3241 -0.8395
 2503TIP3    H128924   0.883   4.189   1.210 -1.8493 -1.0929  1.6289
 2503TIP3    H228925   0.791   4.187   1.089 -0.5348 -2.3745  0.6103
 2504TIP3   OH228926   2.169   5.233  15.965  0.2072 -0.0761  0.7927
 2504TIP3    H128927   2.153   5.228  16.059 -1.8170 -0.1801  0.4932
 2504TIP3    H228928   2.175   5.141  15.938  0.1112 -0.0620  0.7234
 2505TIP3   OH228929   5.774   1.765  15.703  0.1592  0.2767  0.0805
 2505TIP3    H128930   5.824   1.825  15.758  0.2010 -0.7426  1.2111
 2505TIP3    H228931   5.683   1.783  15.724  0.1216  0.7229 -0.4449
 2506TIP3   OH228932   5.230   5.692   2.319 -0.2318 -0.1494 -0.1216
 2506TIP3    H128933   5.298   5.756   2.299  0.7245 -1.5453 -1.4791
 2506TIP3    H228934   5.239   5.624   2.253 -0.8352 -2.0092  1.5911
 2507TIP3   OH228935   0.830   0.311   4.481 -0.3756 -0.4141  0.0301
 2507TIP3    H128936   0.757   0.317   4.543 -0.5133 -0.0219 -0.1703
 2507TIP3    H228937   0.800   0.356   4.403 -0.0231 -0.5005 -0.1593
 2508TIP3   OH228938   5.277   5.042  16.382 -0.1419 -0.6223 -0.3155
 2508TIP3    H128939   5.345   5.019  16.318  0.0772  0.3548 -0.4561
 2508TIP3    H228940   5.279   4.971  16.446 -0.2716 -1.5472 -1.3208
 2509TIP3   OH228941   1.675   2.530  11.383  0.1840 -0.0320  0.2265
 2509TIP3    H128942   1.708   2.594  11.319 -1.0293  0.9609  0.5457
 2509TIP3    H228943   1.587   2.509  11.352  1.1905 -3.0547 -0.9140
 2510TIP3   OH228944   0.734   2.481   0.710 -0.0605 -0.8182  0.1885
 2510TIP3    H128945   0.684   2.425   0.651  0.7582 -1.4681  0.0932
 2510TIP3    H228946   0.673   2.502   0.781 -0.7903 -0.7146 -0.4638
 2511TIP3   OH228947   5.513   4.426  12.098  0.0973 -0.7364 -0.2592
 2511TIP3    H128948   5.460   4.481  12.156 -2.0460 -0.6732 -2.1329
 2511TIP3    H228949   5.582   4.485  12.066 -0.1884 -0.0812  0.2951
 2512TIP3   OH228950   2.316   5.689   3.352  0.0265 -0.4434  0.6355
 2512TIP3    H128951   2.309   5.598   3.379 -0.1037 -0.6240 -0.0016
 2512TIP3    H228952   2.265   5.738   3.417  1.2823 -0.6554  1.8212
 2513TIP3   OH228953   1.507   2.659  12.026 -0.2697 -0.1231 -0.6252
 2513TIP3    H128954   1.590   2.619  12.001  1.1212  2.0683  0.1428
 2513TIP3    H228955   1.492   2.727  11.960 -0.6816  0.4645  0.0583
 2514TIP3   OH228956   0.868   4.691   4.554 -0.0685  0.4744  0.0861
 2514TIP3    H128957   0.849   4.712   4.645 -1.0563  0.9870 -0.2277
 2514TIP3    H228958   0.782   4.687   4.511  0.3790  0.2456 -0.8229
 2515TIP3   OH228959   3.710   3.752  16.747  0.2594 -0.1980  0.1348
 2515TIP3    H128960   3.749   3.669  16.774 -0.8674 -0.4615  1.0468
 2515TIP3    H228961   3.775   3.818  16.772  0.9883 -0.7690 -0.2348
 2516TIP3   OH228962   0.854   1.653   1.560  0.2547 -0.5932  0.1169
 2516TIP3    H128963   0.881   1.641   1.469  0.8379  0.1622  0.1756
 2516TIP3    H228964   0.872   1.746   1.578  1.4455 -1.0449  1.4236
 2517TIP3   OH228965   5.554   2.381   5.657  0.3020 -0.4098 -0.4927
 2517TIP3    H128966   5.538   2.379   5.751 -0.5053 -0.3313 -0.6243
 2517TIP3    H228967   5.517   2.300   5.624  1.6183 -0.9890 -0.5998
 2518TIP3   OH228968   5.765   6.598   3.315  0.3008 -0.0021 -0.3490
 2518TIP3    H128969   5.676   6.632   3.311  0.3259  0.0171 -0.7557
 2518TIP3    H228970   5.772   6.560   3.402 -0.1884 -0.2412 -0.4130
 2519TIP3   OH228971   6.523   0.134   2.544  0.2815 -0.3440  0.1967
 2519TIP3    H128972   6.465   0.057   2.544 -1.5523  0.9790  0.3172
 2519TIP3    H228973   6.598   0.107   2.490 -0.5166 -2.0687 -0.1167
 2520TIP3   OH228974   5.400   3.189  14.334 -0.0512  0.3778  0.6544
 2520TIP3    H128975   5.415   3.107  14.382  0.6943 -0.3463 -0.7723
 2520TIP3    H228976   5.484   3.209  14.294 -0.6984  0.8737 -0.4950
 2521TIP3   OH228977   1.118   6.812   3.889  0.1476  0.1529 -0.1678
 2521TIP3    H128978   1.144   6.904   3.878 -0.7123  0.3990 -0.3039
 2521TIP3    H228979   1.195   6.769   3.926  0.2281  1.1584  0.9120
 2522TIP3   OH228980   3.588   5.905  16.021 -0.2056  0.2958 -0.2897
 2522TIP3    H128981   3.578   5.893  16.115  0.2673  2.1972  0.0381
 2522TIP3    H228982   3.678   5.937  16.010 -0.6994  1.4444 -1.2204
 2523TIP3   OH228983   5.296   2.319  11.840 -0.1061  0.6058  0.1049
 2523TIP3    H128984   5.275   2.287  11.928  1.4895  3.4684  1.6667
 2523TIP3    H228985   5.230   2.387  11.823 -0.3134  0.1730 -0.8990
 2524TIP3   OH228986   0.648   2.512   3.882 -0.2741 -0.0650  0.0083
 2524TIP3    H128987   0.638   2.521   3.977  1.0682  1.2660  0.0538
 2524TIP3    H228988   0.732   2.467   3.870  0.4118  1.3113 -0.5536
 2525TIP3   OH228989   0.837   5.026  12.747  0.4818 -0.2078 -0.0734
 2525TIP3    H128990   0.789   5.083  12.807  0.8271  0.3261 -0.3037
 2525TIP3    H228991   0.769   4.973  12.705  0.2611 -0.8234  1.0280
 2526TIP3   OH228992   3.603   4.041  16.921 -0.0463 -0.1426 -0.0088
 2526TIP3    H128993   3.527   4.025  16.865  0.0398  0.3531 -0.2739
 2526TIP3    H228994   3.580   4.001  17.005 -0.9338  0.6969  0.1681
 2527TIP3   OH228995   0.569   0.624   2.334  0.2036 -0.3730  0.0273
 2527TIP3    H128996   0.637   0.625   2.400  0.7262 -0.0622 -0.4983
 2527TIP3    H228997   0.529   0.538   2.340 -0.0307 -0.2034  1.0154
 2528TIP3   OH228998   5.626   2.787   5.434  0.5789 -0.5020  0.1414
 2528TIP3    H128999   5.625   2.804   5.340 -0.5131 -0.4554  0.1522
 2528TIP3    H229000   5.574   2.707   5.444 -0.8800  0.4921  0.8673
 2529TIP3   OH229001   2.889   3.575   0.438 -0.2214  0.1683 -0.1069
 2529TIP3    H129002   2.851   3.625   0.366 -0.1760  2.8696  1.6247
 2529TIP3    H229003   2.970   3.538   0.402 -1.0205  0.0649 -1.8772
 2530TIP3   OH229004   1.609   2.814   3.873  0.3128 -0.3408  0.3132
 2530TIP3    H129005   1.684   2.788   3.926  1.0268 -0.4558 -0.7386
 2530TIP3    H229006   1.558   2.733   3.862  0.6664 -0.5264  0.0236
 2531TIP3   OH229007   5.970   3.197   2.452  0.0634  0.2576 -0.1098
 2531TIP3    H129008   5.972   3.287   2.419  1.7721  0.6700  0.9947
 2531TIP3    H229009   5.919   3.202   2.533 -2.6140 -0.4255 -1.6507
 2532TIP3   OH229010   3.193   4.523  11.387 -0.4852  0.7205 -0.2055
 2532TIP3    H129011   3.198   4.511  11.482 -0.9309 -1.2508 -0.3761
 2532TIP3    H229012   3.283   4.536  11.359 -0.1530 -0.2682  0.3490
 2533TIP3   OH229013   6.751   2.779   0.851  0.1444  0.0375 -0.3139
 2533TIP3    H129014   6.769   2.872   0.835 -1.7714  0.7955  1.4955
 2533TIP3    H229015   6.816   2.753   0.916  1.0750 -0.0780 -1.2754
 2534TIP3   OH229016   5.080   1.524   6.209 -0.8694  0.4951  0.1522
 2534TIP3    H129017   5.067   1.618   6.201 -0.5509  0.4333 -1.2246
 2534TIP3    H229018   5.124   1.513   6.293 -0.7588  1.5808  0.2488
 2535TIP3   OH229019   4.142   2.028   3.457 -0.2668 -0.2624  0.4128
 2535TIP3    H129020   4.059   2.042   3.411 -0.4237 -2.1070  0.0472
 2535TIP3    H229021   4.207   2.024   3.388  0.1153  0.8965  0.6818
 2536TIP3   OH229022   4.488   0.772  14.840 -0.2015  0.6449 -0.2761
 2536TIP3    H129023   4.526   0.685  14.855  1.1615  1.3906  0.8351
 2536TIP3    H229024   4.546   0.813  14.776 -0.1432  1.1685  0.1058
 2537TIP3   OH229025   0.696   5.286  12.070  0.5072  0.1169 -0.3389
 2537TIP3    H129026   0.728   5.326  11.989  0.6225  0.6470 -0.0369
 2537TIP3    H229027   0.735   5.198  12.071  0.7956  0.2382 -0.6775
 2538TIP3   OH229028   6.809   3.401  11.554  0.4370 -0.0089 -0.3195
 2538TIP3    H129029   6.728   3.351  11.551  1.3206 -1.5085 -0.4188
 2538TIP3    H229030   6.830   3.417  11.461  0.4224  0.0743 -0.3080
 2539TIP3   OH229031   6.630   1.645   2.601  0.4007 -0.0650 -0.2402
 2539TIP3    H129032   6.583   1.711   2.549  1.0147 -0.0628 -0.8119
 2539TIP3    H229033   6.632   1.567   2.545  2.4278  0.4018 -0.9285
 2540TIP3   OH229034   3.693   4.462  15.897 -0.6309  0.0259  0.0665
 2540TIP3    H129035   3.609   4.440  15.857 -0.3091 -0.4061 -0.3814
 2540TIP3    H229036   3.755   4.460  15.824 -0.1527 -0.1132  0.4748
 2541TIP3   OH229037   3.334   2.367   3.708  0.4060  0.0835  0.3250
 2541TIP3    H129038   3.418   2.369   3.755  0.9491 -0.0384 -0.6283
 2541TIP3    H229039   3.316   2.273   3.696 -0.4491  0.0694  1.5213
 2542TIP3   OH229040   4.766   0.305  12.936  0.5111  0.6241 -0.0218
 2542TIP3    H129041   4.712   0.371  12.980 -0.0966  2.0311 -2.6361
 2542TIP3    H229042   4.852   0.311  12.980  0.2812  2.7281  0.2585
 2543TIP3   OH229043   0.409   5.471  13.001 -0.0725  0.1164 -0.0531
 2543TIP3    H129044   0.491   5.504  13.038 -0.7229  1.3830  0.3290
 2543TIP3    H229045   0.431   5.443  12.913  0.9552 -0.4407  0.3646
 2544TIP3   OH229046   6.068   2.089   1.137 -0.4323  0.3694  0.4207
 2544TIP3    H129047   6.017   2.161   1.175  0.5789 -0.6194  4.1022
 2544TIP3    H229048   6.111   2.048   1.212  3.1448 -0.9338 -2.0425
 2545TIP3   OH229049   4.498   4.561  11.574 -0.1949  0.1744 -0.2377
 2545TIP3    H129050   4.539   4.606  11.499  1.1106  0.2685  0.5041
 2545TIP3    H229051   4.512   4.620  11.648  1.7920 -1.5007  0.8230
 2546TIP3   OH229052   2.044   0.230   4.765 -0.3240 -0.0175  0.1049
 2546TIP3    H129053   2.095   0.163   4.812 -2.0013 -0.2619  1.7280
 2546TIP3    H229054   1.957   0.226   4.806 -1.9917 -0.2695 -3.1088
 2547TIP3   OH229055   5.642   5.746   6.556 -0.4391  1.0016  0.2173
 2547TIP3    H129056   5.582   5.785   6.493  2.5577  0.5793 -3.2314
 2547TIP3    H229057   5.674   5.820   6.608 -0.9023  1.8374 -0.6556
 2548TIP3   OH229058   6.300   6.658  14.513  0.0014 -0.8487 -0.0974
 2548TIP3    H129059   6.377   6.624  14.557  0.3874  0.6097  0.4004
 2548TIP3    H229060   6.276   6.736  14.562 -2.2527 -1.6529  0.2119
 2549TIP3   OH229061   3.994   1.240  11.731 -0.4579  0.7038  0.1039
 2549TIP3    H129062   3.981   1.216  11.640 -1.4228  2.3219 -0.2180
 2549TIP3    H229063   4.045   1.321  11.728 -0.5891  0.8310  0.9993
 2550TIP3   OH229064   6.103   3.424  13.004  0.5148 -0.1102  0.0707
 2550TIP3    H129065   6.171   3.489  13.021  0.5207  0.0469 -0.5401
 2550TIP3    H229066   6.150   3.340  13.003  0.4886 -0.1478  0.9754
 2551TIP3   OH229067   6.083   1.948  13.721 -0.7484 -0.3291  0.3352
 2551TIP3    H129068   6.154   2.010  13.702 -1.1752  0.6470  1.7399
 2551TIP3    H229069   6.111   1.906  13.803 -1.2279 -0.8179  0.2472
 2552TIP3   OH229070   1.602   5.983  13.898  0.1658 -0.4173 -0.7592
 2552TIP3    H129071   1.690   5.945  13.894  0.6002  0.4227  0.1734
 2552TIP3    H229072   1.576   5.994  13.807  0.5157 -1.7942 -1.0476
 2553TIP3   OH229073   2.676   1.652   4.753 -0.0370 -0.2849 -0.7403
 2553TIP3    H129074   2.614   1.592   4.712 -2.1702  0.9377  0.5729
 2553TIP3    H229075   2.683   1.622   4.843  0.0451  0.5707 -0.4610
 2554TIP3   OH229076   1.298   4.548  14.832  0.0743 -0.1472 -0.0702
 2554TIP3    H129077   1.316   4.575  14.922 -0.0968 -0.3270  0.0184
 2554TIP3    H229078   1.333   4.460  14.825 -0.2186 -0.2650 -0.0777
 2555TIP3   OH229079   3.245   6.052   3.534 -0.1623 -0.3072 -0.1882
 2555TIP3    H129080   3.245   5.966   3.577 -0.0476 -0.0498  0.3434
 2555TIP3    H229081   3.337   6.069   3.515 -0.2155 -0.4295 -0.5617
 2556TIP3   OH229082   5.023   3.577   5.352 -0.7695 -0.4541  1.1870
 2556TIP3    H129083   5.060   3.520   5.285  0.0435  0.5314  0.7697
 2556TIP3    H229084   5.068   3.552   5.433 -0.1565 -0.1874  0.9384
 2557TIP3   OH229085   5.241   5.932   0.394  0.2312 -0.3347  0.2070
 2557TIP3    H129086   5.256   5.951   0.302  2.4419 -0.1393  0.5467
 2557TIP3    H229087   5.289   5.851   0.410  0.4790  0.0162  1.3339
 2558TIP3   OH229088   0.468   0.416   0.476  0.1705 -0.5371 -0.0472
 2558TIP3    H129089   0.510   0.478   0.535 -0.9111 -0.4185  0.6312
 2558TIP3    H229090   0.540   0.376   0.427  1.1060 -0.6888  1.3907
 2559TIP3   OH229091   0.190   2.592  12.713 -0.1317 -0.2014 -0.5077
 2559TIP3    H129092   0.123   2.548  12.764  1.2275 -0.3384  1.2463
 2559TIP3    H229093   0.200   2.678  12.754  0.3552  0.0482 -1.1135
 2560TIP3   OH229094   2.462   1.636  14.363 -0.0666  0.3052 -0.2326
 2560TIP3    H129095   2.379   1.648  14.318  1.3160  1.1103 -2.7818
 2560TIP3    H229096   2.486   1.545  14.345  1.1202  0.9808 -2.4965
 2561TIP3   OH229097   2.740   3.847  11.921  0.0739  0.7620  0.0470
 2561TIP3    H129098   2.809   3.789  11.889 -2.1706 -1.2117 -1.4663
 2561TIP3    H229099   2.768   3.869  12.010  2.0494 -0.9573 -0.0673
 2562TIP3   OH229100   4.231   2.419   0.015 -0.5216  0.5670  0.8096
 2562TIP3    H129101   4.185   2.503   0.018 -2.5890 -0.4288 -0.7125
 2562TIP3    H229102   4.311   2.437  -0.034 -1.1994  1.5522  0.0363
 2563TIP3   OH229103   2.524   0.156   4.347 -0.2572 -0.3185  0.0991
 2563TIP3    H129104   2.462   0.147   4.419  0.1105 -2.2341  0.2279
 2563TIP3    H229105   2.524   0.249   4.327 -0.9856  0.1390  2.0189
 2564TIP3   OH229106   4.955   4.911  11.083 -0.5831  0.3390 -0.5625
 2564TIP3    H129107   4.999   4.969  11.145 -0.5957  0.2884 -0.5059
 2564TIP3    H229108   5.023   4.886  11.021 -1.0428  2.0618 -1.8116
 2565TIP3   OH229109   5.418   5.804  15.895 -0.0084 -0.1402 -0.0744
 2565TIP3    H129110   5.364   5.864  15.947 -0.5269 -0.9460  0.3313
 2565TIP3    H229111   5.401   5.830  15.804  0.8554  1.2330  0.1268
 2566TIP3   OH229112   5.520   2.972  13.490 -0.0907  0.4460 -0.2519
 2566TIP3    H129113   5.609   2.993  13.462 -0.0620 -0.8309 -1.2300
 2566TIP3    H229114   5.501   3.034  13.560  2.2625 -0.4740  1.2839
 2567TIP3   OH229115   5.013   2.335  10.636  0.1944  0.3615 -0.1068
 2567TIP3    H129116   5.076   2.407  10.642  1.1695 -0.5711  2.7487
 2567TIP3    H229117   5.024   2.301  10.548  1.2787  2.3144 -0.7924
 2568TIP3   OH229118   1.321   2.656  14.986 -0.1850  0.6824 -0.2725
 2568TIP3    H129119   1.225   2.656  14.983 -0.1865  0.9488 -0.2882
 2568TIP3    H229120   1.343   2.689  15.073 -0.1072 -2.1046  0.8643
 2569TIP3   OH229121   4.764   6.417   6.480 -0.0314 -0.5577 -0.1922
 2569TIP3    H129122   4.685   6.365   6.497 -1.2877  1.0210 -0.8968
 2569TIP3    H229123   4.836   6.364   6.515 -1.5696 -1.2451  2.1740
 2570TIP3   OH229124   3.341   0.316   1.585 -0.0770 -0.1677 -0.2851
 2570TIP3    H129125   3.361   0.324   1.492 -0.3447 -1.0895 -0.4342
 2570TIP3    H229126   3.379   0.232   1.611 -1.0222 -0.4752  0.1599
 2571TIP3   OH229127   5.646   1.082  13.433 -0.6654 -0.0837 -0.3047
 2571TIP3    H129128   5.632   1.109  13.524  0.2500 -2.5794  0.6415
 2571TIP3    H229129   5.740   1.091  13.419 -0.6974 -0.4324 -0.7700
 2572TIP3   OH229130   1.771   0.775   3.320  0.0823 -0.2293 -0.5455
 2572TIP3    H129131   1.684   0.737   3.305  0.2922 -1.1217  0.4533
 2572TIP3    H229132   1.779   0.781   3.415  0.5411  1.2244 -0.6442
 2573TIP3   OH229133   0.543   0.986  14.072  0.0523  0.1073  0.0751
 2573TIP3    H129134   0.509   0.899  14.051 -0.6258  0.1460  0.9393
 2573TIP3    H229135   0.556   1.028  13.988  1.4626 -1.2269 -0.4237
 2574TIP3   OH229136   3.427   2.934  11.463 -0.1205  0.5597 -0.3943
 2574TIP3    H129137   3.471   3.019  11.465 -1.4581  1.2862 -0.3574
 2574TIP3    H229138   3.426   2.905  11.554 -2.0123  1.8222  0.0572
 2575TIP3   OH229139   1.201   6.201  13.229 -0.0264  0.0140 -0.6309
 2575TIP3    H129140   1.143   6.259  13.279 -0.5637  2.0900 -3.4276
 2575TIP3    H229141   1.278   6.191  13.285 -1.8615 -0.5640  2.0049
 2576TIP3   OH229142   0.915   5.461   4.614 -0.0528 -0.6241  0.2668
 2576TIP3    H129143   0.903   5.384   4.558 -0.4536  1.2025 -2.3480
 2576TIP3    H229144   0.826   5.485   4.640 -0.0391 -0.3624  0.0758
 2577TIP3   OH229145   4.088   1.799  16.919 -0.8030  0.2838 -0.0652
 2577TIP3    H129146   4.056   1.732  16.978 -0.6310  0.6360  0.4341
 2577TIP3    H229147   4.054   1.774  16.833  1.0042 -1.6167 -0.3161
 2578TIP3   OH229148   3.657   3.936  12.740  0.1312 -0.2075 -0.3243
 2578TIP3    H129149   3.734   3.946  12.684  0.5046 -2.3239 -0.2558
 2578TIP3    H229150   3.620   4.025  12.746  2.0075  0.6732 -1.1234
 2579TIP3   OH229151   3.862   1.864  16.372  0.0603 -0.1818  0.1447
 2579TIP3    H129152   3.779   1.893  16.409 -0.3192 -3.0354  1.8007
 2579TIP3    H229153   3.926   1.873  16.443  1.7325  3.5040 -1.5521
 2580TIP3   OH229154   1.671   2.913  14.177  0.6702 -0.1967  0.4875
 2580TIP3    H129155   1.745   2.889  14.121  0.2978  1.7414 -0.9603
 2580TIP3    H229156   1.599   2.858  14.146  0.9110 -0.4026  0.2808
 2581TIP3   OH229157   0.732   1.513  14.831 -0.0111 -0.0377  0.1008
 2581TIP3    H129158   0.827   1.500  14.835  0.0080  0.3461  2.2243
 2581TIP3    H229159   0.699   1.436  14.785  1.2632 -0.5333 -0.0368
 2582TIP3   OH229160   3.803   6.122  16.711 -0.5578  0.2248 -0.4140
 2582TIP3    H129161   3.841   6.139  16.625 -0.7847 -0.8070 -0.7393
 2582TIP3    H229162   3.721   6.076  16.692  1.0126 -3.2200  0.3479
 2583TIP3   OH229163   3.668   1.116  14.081 -0.1233  0.4008 -0.0576
 2583TIP3    H129164   3.750   1.066  14.089 -0.6939 -0.6243 -0.4114
 2583TIP3    H229165   3.696   1.205  14.061  0.9076  0.0677 -0.1685
 2584TIP3   OH229166   1.248   1.025   2.873  0.1611  0.7385  0.0073
 2584TIP3    H129167   1.188   1.093   2.906  1.7673  2.4932 -0.4928
 2584TIP3    H229168   1.234   0.950   2.931 -1.4210  1.6160  0.8286
 2585TIP3   OH229169   1.696   2.715   4.515  0.7835 -0.3437  0.0658
 2585TIP3    H129170   1.664   2.625   4.505  1.5310 -0.7502  1.1468
 2585TIP3    H229171   1.790   2.706   4.529  0.9417  0.6459 -0.3180
 2586TIP3   OH229172   0.686   3.410  12.509  0.2455 -0.6911  0.0113
 2586TIP3    H129173   0.701   3.458  12.591  2.0570  0.9123 -1.1487
 2586TIP3    H229174   0.621   3.344  12.531 -0.2955  0.5162  2.4234
 2587TIP3   OH229175   2.682   5.309   4.891  0.0893 -0.4587  0.4097
 2587TIP3    H129176   2.706   5.276   4.978  1.8140 -1.0729 -0.2474
 2587TIP3    H229177   2.710   5.401   4.893  2.0872 -1.0079 -0.1389
 2588TIP3   OH229178   4.169   2.102  14.836 -0.0147  0.0485 -0.2753
 2588TIP3    H129179   4.183   2.011  14.811 -1.2587 -0.3305  0.2809
 2588TIP3    H229180   4.209   2.153  14.766  0.6016 -0.9224 -0.6543
 2589TIP3   OH229181   3.188   1.396   4.914  0.1454 -0.0714  0.1689
 2589TIP3    H129182   3.220   1.486   4.912 -0.4217  0.1634 -2.4445
 2589TIP3    H229183   3.093   1.404   4.919  0.0860 -0.5120 -0.1757
 2590TIP3   OH229184   2.829   5.160   1.649 -0.6646 -0.0343 -0.2917
 2590TIP3    H129185   2.771   5.184   1.577 -0.9228  0.3995  0.0551
 2590TIP3    H229186   2.786   5.087   1.693 -0.1340 -0.8047 -1.0332
 2591TIP3   OH229187   5.552   5.951  11.285 -0.0210 -0.2366 -0.2996
 2591TIP3    H129188   5.543   6.042  11.313 -0.2728 -1.1855  3.2245
 2591TIP3    H229189   5.463   5.925  11.260 -0.2312  0.0827  0.1010
 2592TIP3   OH229190   3.770   0.603  11.230 -0.2661  0.3511 -0.3477
 2592TIP3    H129191   3.770   0.687  11.275  1.2045 -0.1924  0.7249
 2592TIP3    H229192   3.848   0.558  11.261 -1.7587 -2.0239  0.2401
 2593TIP3   OH229193   5.575   5.463  14.371  0.2439  0.0277  0.2939
 2593TIP3    H129194   5.506   5.520  14.338  0.4245  0.5337  0.7814
 2593TIP3    H229195   5.549   5.441  14.460  0.4825 -0.1517  0.3218
 2594TIP3   OH229196   3.671   5.384   6.397  0.1000 -0.5780 -0.8043
 2594TIP3    H129197   3.594   5.328   6.409  0.7451 -1.3103  0.0629
 2594TIP3    H229198   3.671   5.405   6.303 -0.8591 -0.9885 -0.9091
 2595TIP3   OH229199   5.072   0.499   0.500 -0.4176 -0.3010  0.2509
 2595TIP3    H129200   4.985   0.489   0.540 -2.0946  1.7983 -2.4221
 2595TIP3    H229201   5.068   0.585   0.457  2.5908 -0.6704 -0.9836
 2596TIP3   OH229202   6.477   6.085   4.283 -0.4130  0.1758  0.0383
 2596TIP3    H129203   6.567   6.081   4.315 -0.5296 -0.9083  0.2759
 2596TIP3    H229204   6.467   6.005   4.231 -1.5736 -0.3009  0.9408
 2597TIP3   OH229205   4.455   2.951  13.610 -0.6560 -0.2583 -0.5022
 2597TIP3    H129206   4.512   2.915  13.542  0.9980 -0.2221  0.7738
 2597TIP3    H229207   4.430   2.875  13.663  2.8720  0.1807  2.2170
 2598TIP3   OH229208   4.553   5.428  15.673 -0.1749  1.0701  0.5588
 2598TIP3    H129209   4.566   5.357  15.737 -0.7046  1.3236  0.9516
 2598TIP3    H229210   4.515   5.499  15.724  0.3684  1.6483  0.1643
 2599TIP3   OH229211   5.870   3.254   4.410 -0.3380 -0.2606 -0.0836
 2599TIP3    H129212   5.820   3.239   4.490 -0.0253 -1.0575 -0.0256
 2599TIP3    H229213   5.821   3.321   4.362 -1.3601 -0.8963  0.0541
 2600TIP3   OH229214   5.689   5.275   5.868 -0.7041  0.0015  0.7242
 2600TIP3    H129215   5.720   5.226   5.944  0.2530  0.9095  0.9475
 2600TIP3    H229216   5.641   5.211   5.816  0.2916 -1.1045  1.1186
 2601TIP3   OH229217   1.703   0.900  16.709 -0.1162  0.2544 -0.0235
 2601TIP3    H129218   1.670   0.891  16.620  0.3033  1.3180 -0.3072
 2601TIP3    H229219   1.773   0.835  16.716  0.5535  0.8673 -0.8290
 2602TIP3   OH229220   1.776   2.476  14.370 -0.0094 -1.1229  0.2178
 2602TIP3    H129221   1.823   2.537  14.427 -0.6394 -2.9065  2.8574
 2602TIP3    H229222   1.834   2.400  14.363 -0.2520 -1.2089 -0.9635
 2603TIP3   OH229223   4.781   5.217  15.139  0.3111 -0.1116 -0.0886
 2603TIP3    H129224   4.862   5.201  15.187  2.0008  1.2087 -2.3314
 2603TIP3    H229225   4.788   5.160  15.062  0.6619  2.2738 -1.9094
 2604TIP3   OH229226   5.325   1.462   2.376 -0.0985  0.1938 -0.1996
 2604TIP3    H129227   5.379   1.530   2.416 -0.8109 -0.4932  2.0235
 2604TIP3    H229228   5.315   1.491   2.285 -0.6453  3.2434  0.7222
 2605TIP3   OH229229   2.323   5.631  14.161 -0.3783 -0.0888  0.0331
 2605TIP3    H129230   2.325   5.718  14.122  1.8444 -0.9758 -2.0385
 2605TIP3    H229231   2.261   5.581  14.107 -3.3520  0.6063  2.4929
 2606TIP3   OH229232   1.191   3.905  15.626 -0.3123 -0.0838 -0.1240
 2606TIP3    H129233   1.101   3.928  15.603  0.0616 -0.0151 -1.6247
 2606TIP3    H229234   1.197   3.811  15.610  0.0007 -0.0021 -0.5376
 2607TIP3   OH229235   0.580   4.476  10.857  0.4060  0.5451  0.3358
 2607TIP3    H129236   0.497   4.455  10.816  0.6272 -1.8003  0.9204
 2607TIP3    H229237   0.557   4.503  10.946  0.1749  1.8069 -0.0926
 2608TIP3   OH229238   2.184   2.972   6.282 -0.0113 -0.1497 -0.2461
 2608TIP3    H129239   2.236   3.020   6.346  1.6980  0.0236 -1.6943
 2608TIP3    H229240   2.109   3.029   6.264  0.2125  0.4128  0.5681
 2609TIP3   OH229241   3.062   1.444   1.552 -0.1914  0.1752  0.1693
 2609TIP3    H129242   2.981   1.440   1.501 -0.5271 -1.8958  0.7673
 2609TIP3    H229243   3.038   1.491   1.631  0.0400  2.3662 -0.9886
 2610TIP3   OH229244   6.025   4.969  14.398  0.0457  0.1796 -0.4044
 2610TIP3    H129245   5.939   4.953  14.438  0.3921  1.9475  1.2156
 2610TIP3    H229246   6.045   4.888  14.352 -1.7452 -0.9060  0.5833
 2611TIP3   OH229247   2.527   2.972  16.806 -0.0105 -0.3190  0.1741
 2611TIP3    H129248   2.471   2.986  16.730  1.2625 -0.9241 -0.9303
 2611TIP3    H229249   2.558   2.882  16.797  1.3589  0.0828  0.5601
 2612TIP3   OH229250   2.663   6.136   2.477  0.3428  0.3025  0.2568
 2612TIP3    H129251   2.619   6.214   2.510  0.0545  0.3640 -0.2620
 2612TIP3    H229252   2.714   6.104   2.551 -1.1183 -0.1744  1.1060
 2613TIP3   OH229253   5.839   6.397  14.408 -0.4834  0.1164 -0.5666
 2613TIP3    H129254   5.867   6.319  14.360  0.7005 -2.7015  3.9615
 2613TIP3    H229255   5.920   6.431  14.447 -1.4632  1.2335  0.6106
 2614TIP3   OH229256   2.980   1.996   4.844 -0.3951 -0.0557 -0.2062
 2614TIP3    H129257   3.034   2.023   4.770 -1.8046  0.0443 -1.2415
 2614TIP3    H229258   2.951   1.908   4.823  0.0616 -0.4519  0.7566
 2615TIP3   OH229259   4.347   1.346   0.111  0.5141  0.1598  0.1841
 2615TIP3    H129260   4.364   1.427   0.062 -0.6208  0.4546  0.2521
 2615TIP3    H229261   4.281   1.300   0.060  1.2550 -0.8122  0.0746
 2616TIP3   OH229262   0.064   2.609   0.263  0.2614 -0.1638 -0.3602
 2616TIP3    H129263   0.043   2.541   0.327 -1.4488  0.3584 -0.3220
 2616TIP3    H229264   0.030   2.690   0.302  0.9370  0.4864 -1.0695
 2617TIP3   OH229265   4.867   0.080   0.285  0.3855  0.0943 -0.3755
 2617TIP3    H129266   4.830   0.165   0.311 -0.2257 -0.1211 -0.5100
 2617TIP3    H229267   4.918   0.099   0.206  0.2328  0.3345 -0.4174
 2618TIP3   OH229268   1.154   3.864  14.076  0.1378  0.0948 -0.3680
 2618TIP3    H129269   1.120   3.775  14.088  1.0423 -0.3016 -0.6410
 2618TIP3    H229270   1.140   3.906  14.161  0.8571 -0.7196  0.1686
 2619TIP3   OH229271   3.496   0.402   3.311 -0.3471  0.2331  0.5603
 2619TIP3    H129272   3.405   0.414   3.284 -0.0746 -0.6628 -0.9268
 2619TIP3    H229273   3.535   0.489   3.309 -1.5123  0.8686  2.7344
 2620TIP3   OH229274   0.121   5.158   3.497 -0.1457  0.0309 -0.2255
 2620TIP3    H129275   0.030   5.132   3.481 -0.0861 -0.1052 -0.3519
 2620TIP3    H229276   0.168   5.075   3.508  0.4533 -0.0556 -2.8392
 2621TIP3   OH229277   0.062   5.714  16.303  0.3660 -0.0963 -0.1388
 2621TIP3    H129278   0.004   5.640  16.323  0.3429  0.4401  2.1011
 2621TIP3    H229279   0.149   5.681  16.325  0.4467  0.2646  0.0902
 2622TIP3   OH229280   4.910   3.816   5.407 -0.0590  1.0198  0.8391
 2622TIP3    H129281   4.860   3.815   5.325  1.5103  2.1019 -0.1715
 2622TIP3    H229282   4.974   3.746   5.396  1.3730  2.3625  0.3062
 2623TIP3   OH229283   2.144   1.068   2.528  0.7325 -0.4720  0.0956
 2623TIP3    H129284   2.236   1.092   2.523  0.7322 -0.7573 -2.4897
 2623TIP3    H229285   2.141   0.977   2.499 -0.4139 -0.3186 -0.3148
 2624TIP3   OH229286   2.594   5.215  15.980 -0.2169  0.6220  0.1405
 2624TIP3    H129287   2.651   5.162  15.924  1.2220  2.2659 -0.0297
 2624TIP3    H229288   2.505   5.190  15.954  0.4200 -0.2825 -1.2870
 2625TIP3   OH229289   6.186   1.841  12.208  0.0134  0.3394  0.4049
 2625TIP3    H129290   6.191   1.763  12.152  0.7047  1.4311 -1.1203
 2625TIP3    H229291   6.247   1.822  12.280  1.1404 -0.0607 -0.6085
 2626TIP3   OH229292   5.725   2.181  12.068 -0.5078 -0.1465  0.5395
 2626TIP3    H129293   5.693   2.233  11.995  0.2069 -1.2856 -0.6197
 2626TIP3    H229294   5.652   2.180  12.130 -1.0742  0.9574 -0.0729
 2627TIP3   OH229295   1.274   1.232   5.459 -0.6621  0.4191  0.3162
 2627TIP3    H129296   1.229   1.226   5.543  2.6250 -0.8302  2.1629
 2627TIP3    H229297   1.309   1.144   5.443 -0.4348  0.8458 -1.9310
 2628TIP3   OH229298   5.998   4.351   2.185 -0.3229 -0.1322 -0.2672
 2628TIP3    H129299   6.059   4.372   2.114 -0.6653  0.8632 -0.2706
 2628TIP3    H229300   5.944   4.281   2.149  1.8422 -2.2381  0.2966
 2629TIP3   OH229301   6.432   4.755   1.698  0.0191 -0.3664  0.7215
 2629TIP3    H129302   6.501   4.821   1.705 -0.3139 -0.0627  1.1577
 2629TIP3    H229303   6.373   4.773   1.771 -1.2797  0.2561 -0.4241
 2630TIP3   OH229304   3.456   2.838   2.964  0.3952  0.0125  0.1673
 2630TIP3    H129305   3.506   2.757   2.975 -0.8379 -0.8411 -0.2514
 2630TIP3    H229306   3.430   2.837   2.871 -0.0840  0.6029  0.2910
 2631TIP3   OH229307   3.230   1.386   2.193  0.0258 -0.6142  0.1990
 2631TIP3    H129308   3.282   1.466   2.199 -0.5164 -0.2156 -0.3334
 2631TIP3    H229309   3.139   1.416   2.194 -0.1837 -1.0889 -1.5241
 2632TIP3   OH229310   5.513   5.838  15.107 -0.1321  0.2542  0.1401
 2632TIP3    H129311   5.483   5.885  15.030  0.6243 -2.1687 -1.7545
 2632TIP3    H229312   5.606   5.856  15.112  0.0473 -0.5280 -0.2416
 2633TIP3   OH229313   3.032   0.144  11.895  1.3242  0.1638 -0.2422
 2633TIP3    H129314   3.025   0.050  11.911 -1.3247  0.2198 -0.6175
 2633TIP3    H229315   2.967   0.183  11.954  2.3519  1.7887 -0.1162
 2634TIP3   OH229316   3.253   4.973  14.790 -0.1018  0.1684 -0.5569
 2634TIP3    H129317   3.273   4.880  14.797  0.7796  0.3289 -0.8400
 2634TIP3    H229318   3.159   4.976  14.775 -0.2408 -0.6480  0.0602
 2635TIP3   OH229319   4.011   3.124  11.224 -0.4089 -0.6405 -0.3079
 2635TIP3    H129320   3.936   3.169  11.185  0.3824 -0.1832 -1.3082
 2635TIP3    H229321   4.051   3.189  11.281 -0.3978 -0.6947 -0.2536
 2636TIP3   OH229322   0.120   3.063   0.514  0.0134  0.0978  0.0590
 2636TIP3    H129323   0.194   3.122   0.529  1.3390 -1.3761 -0.3287
 2636TIP3    H229324   0.064   3.074   0.591  1.7345 -0.2640  1.4273
 2637TIP3   OH229325   3.173   5.730   5.521 -0.5863 -0.4087 -0.0194
 2637TIP3    H129326   3.223   5.737   5.440  1.7032 -1.9682  1.1657
 2637TIP3    H229327   3.185   5.815   5.565  0.8539 -0.6635  0.1180
 2638TIP3   OH229328   1.428   1.976  10.902 -0.0132 -0.1269  0.4939
 2638TIP3    H129329   1.417   2.012  10.814 -0.4103  1.0127  0.9888
 2638TIP3    H229330   1.342   1.938  10.923  0.0361 -0.2628  0.4497
 2639TIP3   OH229331   6.446   5.427   4.184  0.0349  0.0841  0.3463
 2639TIP3    H129332   6.482   5.456   4.100  0.3496 -2.6830 -0.5736
 2639TIP3    H229333   6.367   5.480   4.195 -0.7227 -0.3240 -2.3672
 2640TIP3   OH229334   0.996   3.414   4.775 -0.2519  0.0572 -0.4958
 2640TIP3    H129335   0.958   3.326   4.781  0.3391 -0.2739 -1.3192
 2640TIP3    H229336   1.078   3.408   4.825  0.0317 -0.0108 -0.9612
 2641TIP3   OH229337   1.097   1.398  11.421 -0.7366  0.1664  0.3588
 2641TIP3    H129338   1.131   1.319  11.462  0.1639  0.0835 -0.5017
 2641TIP3    H229339   1.033   1.432  11.483  0.2801 -0.1687  1.6511
 2642TIP3   OH229340   0.694   1.080  15.252  0.4998  0.0047  0.5833
 2642TIP3    H129341   0.742   1.034  15.321  0.6997  0.2581  0.6151
 2642TIP3    H229342   0.621   1.022  15.231  1.2444 -0.7450  0.0015
 2643TIP3   OH229343   1.786   2.561  13.402  0.0793  0.3811  0.2038
 2643TIP3    H129344   1.803   2.616  13.325  1.0408  1.3956  1.1161
 2643TIP3    H229345   1.841   2.483  13.388  0.7759  0.8685  0.1897
 2644TIP3   OH229346   0.801   6.642   2.736 -0.2444  0.0252 -0.3374
 2644TIP3    H129347   0.762   6.607   2.816  1.1923  1.0142  0.8458
 2644TIP3    H229348   0.758   6.727   2.724 -1.2489 -0.5810 -1.2803
 2645TIP3   OH229349   0.327   0.159  11.479 -0.4833 -0.1702 -0.0554
 2645TIP3    H129350   0.380   0.120  11.410 -1.3320 -1.6009  0.0510
 2645TIP3    H229351   0.389   0.210  11.532  0.1241  1.2257 -2.0084
 2646TIP3   OH229352   0.862   3.517  14.502 -0.0907 -0.0358  0.1507
 2646TIP3    H129353   0.856   3.457  14.576 -1.7014  0.0316  0.1193
 2646TIP3    H229354   0.946   3.561  14.513  0.5157 -1.3388  0.9096
 2647TIP3   OH229355   4.487   6.687  12.464  0.4161  0.1117  0.0440
 2647TIP3    H129356   4.544   6.718  12.533  0.7604 -0.3157 -0.0401
 2647TIP3    H229357   4.476   6.593  12.482 -1.4917  0.4678  0.9369
 2648TIP3   OH229358   1.970   1.128  11.431 -0.4859 -0.7288 -0.3902
 2648TIP3    H129359   1.952   1.037  11.453  0.1205 -0.7442  0.0516
 2648TIP3    H229360   1.939   1.138  11.341 -2.2498 -0.8885  0.1549
 2649TIP3   OH229361   5.131   0.072   5.707  0.1935 -0.4599 -0.3065
 2649TIP3    H129362   5.094   0.157   5.733  0.9382  0.0800 -0.9668
 2649TIP3    H229363   5.065   0.035   5.648  0.7692  0.6258 -1.7061
 2650TIP3   OH229364   4.788   6.306   5.497  0.0450 -0.2967  0.1824
 2650TIP3    H129365   4.707   6.277   5.456  1.0008 -2.0449 -0.5648
 2650TIP3    H229366   4.827   6.367   5.434  0.6163 -1.5686 -0.7379
 2651TIP3   OH229367   0.696   2.541   5.064 -0.1594 -0.8060  0.1619
 2651TIP3    H129368   0.609   2.501   5.059 -1.1958  1.4208 -3.7735
 2651TIP3    H229369   0.751   2.487   5.008  0.3805 -0.7993  0.6705
 2652TIP3   OH229370   2.082   1.515  15.307 -0.1049 -0.0891  0.3667
 2652TIP3    H129371   2.085   1.440  15.366  0.4224  1.7815  2.8881
 2652TIP3    H229372   2.136   1.489  15.232  2.2164 -1.3417  2.3280
 2653TIP3   OH229373   3.217   6.581   4.753  0.1360  0.0398 -0.0126
 2653TIP3    H129374   3.197   6.633   4.676 -0.9777 -0.4117 -0.0418
 2653TIP3    H229375   3.294   6.530   4.728  0.6764  0.9629 -0.3003
 2654TIP3   OH229376   3.613   6.398   3.074  0.4633 -0.2996  0.3573
 2654TIP3    H129377   3.615   6.339   2.999 -0.4250  0.0112  0.0728
 2654TIP3    H229378   3.664   6.474   3.046  1.0881 -0.6608  0.4966
 2655TIP3   OH229379   6.154   0.135   4.151 -1.0543  0.0297  0.1953
 2655TIP3    H129380   6.148   0.184   4.068  1.2295  0.8159  0.4387
 2655TIP3    H229381   6.139   0.201   4.219  0.5990  0.1291  0.4855
 2656TIP3   OH229382   2.600   2.662  13.113  0.0981 -0.1599  0.0205
 2656TIP3    H129383   2.536   2.592  13.118 -2.4354  1.8491 -1.8885
 2656TIP3    H229384   2.673   2.624  13.064  0.4326 -2.4410  2.0712
 2657TIP3   OH229385   1.222   4.304  13.710  0.0926  0.2047  0.2633
 2657TIP3    H129386   1.239   4.212  13.733  1.6144  0.5079  0.4946
 2657TIP3    H229387   1.289   4.324  13.644 -1.8001  0.4576 -1.6743
 2658TIP3   OH229388   6.670   1.051  13.844  0.5048 -0.9010 -0.6646
 2658TIP3    H129389   6.755   1.056  13.888 -0.0229 -1.4582  0.4513
 2658TIP3    H229390   6.664   0.960  13.813  0.9588 -0.4700 -2.1352
 2659TIP3   OH229391   0.750   4.245  12.644 -0.2724 -0.0384  0.2424
 2659TIP3    H129392   0.774   4.331  12.678 -1.0261  0.0856  0.4737
 2659TIP3    H229393   0.681   4.214  12.703  0.2314 -0.9574  0.3769
 2660TIP3   OH229394   4.915   6.767   5.558  0.2563  0.4226  0.6230
 2660TIP3    H129395   4.988   6.711   5.532 -0.0314  0.7919 -1.0944
 2660TIP3    H229396   4.914   6.837   5.493 -1.3438  0.6603  0.8649
 2661TIP3   OH229397   5.360   3.826  11.866 -0.0822 -0.3497  0.0264
 2661TIP3    H129398   5.384   3.905  11.819  1.0136 -0.0460  1.0493
 2661TIP3    H229399   5.411   3.756  11.824  1.2388 -0.0071  1.0094
 2662TIP3   OH229400   6.596   3.429   6.650 -0.6603 -0.6994  0.3422
 2662TIP3    H129401   6.568   3.364   6.585  2.8587 -1.8772 -0.2453
 2662TIP3    H229402   6.545   3.408   6.728 -2.5728 -1.4423 -1.0208
 2663TIP3   OH229403   2.049   6.143  13.896 -0.1268  0.0981  0.9239
 2663TIP3    H129404   2.054   6.211  13.964  0.7441  0.2645  0.7061
 2663TIP3    H229405   2.108   6.074  13.927  1.1166  0.6400 -0.1543
 2664TIP3   OH229406   2.381   4.951  12.486 -1.2131  0.0890 -0.1613
 2664TIP3    H129407   2.380   4.902  12.404 -3.6031  0.7012 -0.5937
 2664TIP3    H229408   2.392   4.885  12.554 -1.0298 -0.6522 -0.9000
 2665TIP3   OH229409   5.532   6.726   5.152 -0.2243  0.0512 -0.1439
 2665TIP3    H129410   5.624   6.707   5.173  0.5000  3.7251  0.5862
 2665TIP3    H229411   5.536   6.786   5.078 -2.2356 -1.6051 -1.7277
 2666TIP3   OH229412   6.402   0.372   4.445 -0.3869  0.0624  0.4649
 2666TIP3    H129413   6.372   0.398   4.532 -0.8880 -0.3538  0.4236
 2666TIP3    H229414   6.321   0.354   4.397 -0.1078  0.1996 -0.0568
 2667TIP3   OH229415   6.630   2.249   0.722  0.2970 -0.5659 -0.0023
 2667TIP3    H129416   6.647   2.173   0.666  0.5678 -0.7401  0.3089
 2667TIP3    H229417   6.544   2.281   0.694  0.3752 -0.7230 -0.4307
 2668TIP3   OH229418   6.015   1.188   6.120  0.0345  0.3135  0.3803
 2668TIP3    H129419   6.033   1.276   6.154 -0.5237  1.1886 -1.4862
 2668TIP3    H229420   5.923   1.172   6.142 -0.2410  0.7535 -0.4417
 2669TIP3   OH229421   1.664   5.565  14.370  0.4814 -0.0663  0.0823
 2669TIP3    H129422   1.662   5.517  14.453  0.9471  1.1496  0.8141
 2669TIP3    H229423   1.581   5.543  14.327 -0.6943  0.8642  1.7830
 2670TIP3   OH229424   0.902   6.149  15.629 -0.0281  0.1455 -0.2613
 2670TIP3    H129425   0.943   6.074  15.586 -0.4181  0.4715 -1.2230
 2670TIP3    H229426   0.810   6.145  15.602 -0.2171  0.5353  0.3073
 2671TIP3   OH229427   5.935   4.434   1.337  0.1591 -0.1687  0.1325
 2671TIP3    H129428   5.857   4.385   1.310  0.8486 -0.8967 -0.5940
 2671TIP3    H229429   5.981   4.453   1.255 -0.8427  3.1184  0.1806
 2672TIP3   OH229430   6.052   6.805   1.278 -0.9728 -0.1380 -0.2419
 2672TIP3    H129431   6.061   6.901   1.280  0.0165 -0.2280  1.9589
 2672TIP3    H229432   6.004   6.788   1.197  0.8957  2.0445 -1.9594
 2673TIP3   OH229433   4.436   0.792   6.518  0.3499 -0.1627 -0.1028
 2673TIP3    H129434   4.381   0.837   6.582 -0.4838  0.2103 -1.0556
 2673TIP3    H229435   4.400   0.703   6.515  1.8268 -0.8891  1.5812
 2674TIP3   OH229436   0.809   4.907  14.054  0.1043 -0.5046  0.6912
 2674TIP3    H129437   0.715   4.915  14.067 -0.1826 -1.5573 -0.4650
 2674TIP3    H229438   0.842   4.997  14.053 -1.0716 -0.0676 -0.0553
 2675TIP3   OH229439   4.649   0.723  11.498 -0.7646  0.8437 -0.0317
 2675TIP3    H129440   4.700   0.647  11.471 -0.4182  0.6995  1.0139
 2675TIP3    H229441   4.590   0.690  11.565 -2.1218  1.0553 -1.0779
 2676TIP3   OH229442   0.591   2.651  11.442 -0.0875  0.3132  0.7854
 2676TIP3    H129443   0.680   2.687  11.448  0.2991 -0.5817  0.5357
 2676TIP3    H229444   0.596   2.567  11.486 -0.0347 -1.1233 -1.7468
 2677TIP3   OH229445   1.808   0.052  14.388 -0.0394  0.1240 -0.4976
 2677TIP3    H129446   1.829  -0.039  14.407  0.8235  0.3714 -0.2233
 2677TIP3    H229447   1.729   0.048  14.334 -1.0564 -0.7246  0.9636
 2678TIP3   OH229448   3.857   6.411  17.089 -0.1701 -0.0810  0.3761
 2678TIP3    H129449   3.875   6.490  17.140 -1.1796 -0.2687  1.0614
 2678TIP3    H229450   3.879   6.339  17.148 -2.3386 -0.3075  0.9948
 2679TIP3   OH229451   0.814   1.525  15.928 -0.3135  0.0809 -0.4394
 2679TIP3    H129452   0.905   1.523  15.957 -0.6563 -1.5532  0.6030
 2679TIP3    H229453   0.815   1.482  15.842 -0.2459 -0.8303  0.0138
 2680TIP3   OH229454   1.065   4.931   0.774  0.3326 -0.1159 -0.1016
 2680TIP3    H129455   1.020   4.902   0.695 -0.5642  0.4287  0.1886
 2680TIP3    H229456   1.041   5.023   0.783 -0.3974 -0.4079  1.3219
 2681TIP3   OH229457   4.417   4.444  13.482 -0.2919  0.1287 -0.1529
 2681TIP3    H129458   4.512   4.440  13.494 -0.2948  0.3718 -0.0380
 2681TIP3    H229459   4.381   4.413  13.566 -0.3169 -0.7893 -0.4934
 2682TIP3   OH229460   6.143   4.846   5.487  0.0969 -0.0448 -0.3644
 2682TIP3    H129461   6.215   4.825   5.546 -0.7863 -1.7314  0.1730
 2682TIP3    H229462   6.069   4.866   5.545 -0.7230 -1.5027 -0.8672
 2683TIP3   OH229463   4.763   4.010  16.226 -0.0372  0.1596  0.4678
 2683TIP3    H129464   4.785   3.973  16.312  0.9253  0.2231  0.2623
 2683TIP3    H229465   4.815   3.960  16.164 -2.8221 -1.8432 -0.4553
 2684TIP3   OH229466   3.099   2.719   2.621  0.6837  0.3225  0.1013
 2684TIP3    H129467   3.049   2.699   2.700 -0.2128 -0.0474 -0.5481
 2684TIP3    H229468   3.068   2.806   2.594  0.2540  0.0183 -0.4007
 2685TIP3   OH229469   1.828   4.427   2.016  0.4343  0.3297  0.4239
 2685TIP3    H129470   1.848   4.463   2.103 -0.2393  0.8950  0.3518
 2685TIP3    H229471   1.816   4.334   2.030 -1.5660  0.6707  1.2905
 2686TIP3   OH229472   6.254   4.728   4.753  0.2251 -0.0366 -0.2593
 2686TIP3    H129473   6.304   4.649   4.736  1.2138  0.8238 -1.5383
 2686TIP3    H229474   6.204   4.743   4.673 -0.2494  0.4231  0.1129
 2687TIP3   OH229475   5.375   0.008   1.386 -0.1651 -0.0166  0.9001
 2687TIP3    H129476   5.338  -0.069   1.428 -1.2636  1.2663  2.3897
 2687TIP3    H229477   5.453  -0.025   1.340 -2.1162 -2.5141 -0.9152
 2688TIP3   OH229478   3.296   3.755  15.906  0.3309 -0.0893  0.3427
 2688TIP3    H129479   3.327   3.841  15.932 -2.0411  0.6912  0.7880
 2688TIP3    H229480   3.294   3.704  15.988  1.4835 -0.5126  0.1224
 2689TIP3   OH229481   1.686   0.146  11.108 -0.3426  0.0941  0.4971
 2689TIP3    H129482   1.763   0.175  11.059 -0.9130  0.9897  0.1107
 2689TIP3    H229483   1.720   0.123  11.194  0.7300 -1.7948 -0.3671
 2690TIP3   OH229484   4.923   1.899   2.415 -0.0791  0.3007  0.0769
 2690TIP3    H129485   4.947   1.915   2.506  2.5637  2.2368 -0.8247
 2690TIP3    H229486   4.884   1.981   2.385 -0.5999 -0.1933 -0.6378
 2691TIP3   OH229487   1.758   4.691   5.431  0.0789  0.1341  0.1991
 2691TIP3    H129488   1.799   4.721   5.349 -1.1695 -0.1540 -0.5607
 2691TIP3    H229489   1.766   4.765   5.491  2.2277 -0.1153  0.2989
 2692TIP3   OH229490   5.039   0.210   4.367  0.5954 -0.1548  0.2179
 2692TIP3    H129491   4.955   0.163   4.366  0.2322  0.4582  0.8852
 2692TIP3    H229492   5.100   0.150   4.325 -0.3034 -0.3695 -0.8531
 2693TIP3   OH229493   4.560   2.751   2.564  0.2563  0.4499  0.2111
 2693TIP3    H129494   4.607   2.802   2.630  1.1911 -0.4026  0.2248
 2693TIP3    H229495   4.610   2.670   2.555  0.6602  0.8898 -2.1914
 2694TIP3   OH229496   3.370   1.483  16.794 -0.4836  1.0022 -0.6111
 2694TIP3    H129497   3.366   1.578  16.784  1.0292  1.1649  0.0382
 2694TIP3    H229498   3.437   1.468  16.861 -1.9413 -0.4602  0.6163
 2695TIP3   OH229499   4.372   5.523  17.067 -0.4633  0.4403 -0.2013
 2695TIP3    H129500   4.278   5.530  17.084 -0.3452  0.0593  0.6623
 2695TIP3    H229501   4.398   5.441  17.110  0.3079  0.6714 -0.2161
 2696TIP3   OH229502   2.344   1.212  16.351 -0.5000  0.0576 -0.0933
 2696TIP3    H129503   2.343   1.121  16.321  0.0466  0.6035 -1.8910
 2696TIP3    H229504   2.259   1.247  16.325 -0.9543 -0.0728  1.1438
 2697TIP3   OH229505   4.784   6.461   2.433  0.2183  0.3080 -0.0744
 2697TIP3    H129506   4.731   6.540   2.419 -0.6210 -0.6081 -2.6200
 2697TIP3    H229507   4.872   6.494   2.453  0.1591  1.9418 -2.2145
 2698TIP3   OH229508   3.495   5.292  11.590 -0.3713  0.2084 -0.2417
 2698TIP3    H129509   3.479   5.241  11.510  0.5288  0.5232 -0.6305
 2698TIP3    H229510   3.413   5.338  11.606 -0.9222 -0.7089 -0.3550
 2699TIP3   OH229511   0.690   1.994   1.213 -0.4703 -0.2135 -0.3468
 2699TIP3    H129512   0.604   2.020   1.180 -1.2532 -1.2041  0.8672
 2699TIP3    H229513   0.717   1.923   1.155  0.2200  1.0362 -1.6336
 2700TIP3   OH229514   5.489   5.407   1.566  0.4186 -0.1415 -0.4380
 2700TIP3    H129515   5.510   5.360   1.647  0.6853  0.0862 -0.3718
 2700TIP3    H229516   5.527   5.352   1.497 -1.7351 -1.5091 -0.6214
 2701TIP3   OH229517   0.472   3.779   1.799 -0.1286  0.7128 -0.0972
 2701TIP3    H129518   0.507   3.786   1.711  2.4347  0.2501  0.8097
 2701TIP3    H229519   0.453   3.686   1.811 -0.2710  0.7432 -0.0811
 2702TIP3   OH229520   5.876   4.759  13.637 -0.0012 -0.5262  0.6973
 2702TIP3    H129521   5.890   4.846  13.600 -0.9274 -0.8944 -0.5807
 2702TIP3    H229522   5.837   4.709  13.566 -1.3112 -1.4351  2.0024
 2703TIP3   OH229523   2.047   0.755  15.427 -0.6126  0.1905 -0.2546
 2703TIP3    H129524   1.976   0.761  15.491 -0.0216  1.2776  0.3281
 2703TIP3    H229525   2.120   0.715  15.474 -0.7929 -0.8404 -0.8256
 2704TIP3   OH229526   1.266   3.077  11.584 -0.5856  0.0367  0.0815
 2704TIP3    H129527   1.217   3.110  11.508  0.0200 -0.0094 -0.3383
 2704TIP3    H229528   1.321   3.151  11.611 -0.8484  0.0750  0.5205
 2705TIP3   OH229529   4.060   2.481  14.498 -0.8846 -0.6624  0.5612
 2705TIP3    H129530   3.965   2.471  14.485 -1.0314 -0.5760  1.5378
 2705TIP3    H229531   4.069   2.561  14.550 -0.0728  1.0303 -1.9799
 2706TIP3   OH229532   1.163   6.338  14.466 -0.3110 -0.1444  0.2481
 2706TIP3    H129533   1.225   6.338  14.393 -0.2221  1.0284  0.3054
 2706TIP3    H229534   1.092   6.280  14.436  0.4942 -0.9902 -0.0731
 2707TIP3   OH229535   6.101   0.943  11.389 -0.0509  0.5668  0.0982
 2707TIP3    H129536   6.097   0.848  11.380 -1.3933  0.5578  0.5723
 2707TIP3    H229537   6.139   0.973  11.306  0.7654 -0.3897  0.1004
 2708TIP3   OH229538   1.120   6.488  11.982 -0.4043 -0.0295  0.2073
 2708TIP3    H129539   1.202   6.465  11.938 -0.5579  0.3111 -0.2712
 2708TIP3    H229540   1.060   6.508  11.910 -1.1966 -1.2177  0.5187
 2709TIP3   OH229541   3.173   0.896  12.200  0.3669 -0.5813 -0.0436
 2709TIP3    H129542   3.163   0.821  12.257 -1.3006  0.3133  0.9266
 2709TIP3    H229543   3.170   0.860  12.111  1.9175 -1.8600  0.3667
 2710TIP3   OH229544   5.686   2.761   1.929  0.0838  0.8794  0.1016
 2710TIP3    H129545   5.723   2.793   2.011 -0.9148 -0.8680  1.2965
 2710TIP3    H229546   5.595   2.792   1.930  0.1097  0.9908 -0.4411
 2711TIP3   OH229547   2.255   4.142   6.009  0.4863 -0.2519 -0.1563
 2711TIP3    H129548   2.183   4.084   6.035  1.0285 -0.5576  0.6768
 2711TIP3    H229549   2.322   4.084   5.973  0.4721  0.0028 -0.6133
 2712TIP3   OH229550   3.939   1.928   4.039 -0.5367 -0.2265  0.1380
 2712TIP3    H129551   4.020   1.973   4.064 -0.2979 -1.1789  1.1634
 2712TIP3    H229552   3.901   1.901   4.123 -1.3339 -0.7890 -0.4008
 2713TIP3   OH229553   4.922   4.002   0.772 -0.1265  0.5401 -0.1626
 2713TIP3    H129554   4.955   4.059   0.842  1.8667 -0.1336 -0.4911
 2713TIP3    H229555   4.941   4.049   0.691 -0.8336  0.5372 -0.3374
 2714TIP3   OH229556   4.209   4.294  14.865  0.4270  0.2816  0.4750
 2714TIP3    H129557   4.282   4.340  14.906  2.0770 -1.5964 -0.1899
 2714TIP3    H229558   4.248   4.246  14.792 -1.4902 -0.7353  0.0294
 2715TIP3   OH229559   6.189   0.303   0.504 -0.4974 -0.2368  0.4244
 2715TIP3    H129560   6.283   0.320   0.512 -0.5867 -0.2833  2.0125
 2715TIP3    H229561   6.182   0.208   0.494 -0.3864 -0.3419  1.2252
 2716TIP3   OH229562   3.732   5.524   4.168  0.4899  0.4193  0.0485
 2716TIP3    H129563   3.775   5.590   4.222  0.5815 -0.5722  1.2299
 2716TIP3    H229564   3.805   5.478   4.125  0.4636  0.6160 -0.2066
 2717TIP3   OH229565   0.149   5.162  11.491 -0.1421 -0.1478  0.2197
 2717TIP3    H129566   0.126   5.086  11.545 -0.3703 -0.0757  0.2230
 2717TIP3    H229567   0.168   5.125  11.405 -0.6745 -0.1626  0.1058
 2718TIP3   OH229568   1.654   4.358  14.754  0.4850 -0.0472  0.4982
 2718TIP3    H129569   1.632   4.396  14.669 -2.6837 -1.2757  0.6487
 2718TIP3    H229570   1.735   4.402  14.780 -0.0434  2.5104 -1.7788
 2719TIP3   OH229571   0.045   1.995  12.168  0.0933 -0.0688  0.3227
 2719TIP3    H129572  -0.045   2.015  12.193  0.2459  0.8042  0.2166
 2719TIP3    H229573   0.044   1.901  12.148 -0.7862 -0.0720  0.3266
 2720TIP3   OH229574   2.895   2.402   5.917 -0.2799 -0.3819 -0.3582
 2720TIP3    H129575   2.905   2.322   5.864 -1.6000 -0.5457 -0.3945
 2720TIP3    H229576   2.868   2.370   6.003  1.3211 -0.0792  0.2935
 2721TIP3   OH229577   4.634   0.166  14.259 -0.1191  0.2643  0.3416
 2721TIP3    H129578   4.561   0.224  14.280 -0.0564  0.1521  0.8881
 2721TIP3    H229579   4.667   0.138  14.344  0.0593 -0.3113  0.0859
 2722TIP3   OH229580   5.930   5.500   1.766 -0.1612  0.4313  0.0595
 2722TIP3    H129581   6.008   5.529   1.719 -1.1441  2.0934 -0.6342
 2722TIP3    H229582   5.947   5.523   1.857  1.3416 -1.9213  0.4681
 2723TIP3   OH229583   4.407   1.216  16.153 -0.2579 -0.1182 -0.7864
 2723TIP3    H129584   4.411   1.171  16.237 -0.5075  0.5114 -0.4293
 2723TIP3    H229585   4.473   1.286  16.160 -0.6689  0.2892 -0.8918
 2724TIP3   OH229586   5.137   2.483  16.261 -0.0651 -0.0094  0.0234
 2724TIP3    H129587   5.146   2.539  16.339 -0.3262  0.4789 -0.2890
 2724TIP3    H229588   5.070   2.526  16.208 -1.1393 -1.2685  0.3196
 2725TIP3   OH229589   3.307   2.538   2.054 -0.4426  0.0646 -0.1064
 2725TIP3    H129590   3.266   2.451   2.062 -0.3531 -0.1645 -1.8741
 2725TIP3    H229591   3.285   2.581   2.137 -2.5918 -0.7635 -0.1616
 2726TIP3   OH229592   3.700   0.100  11.948  0.2118 -1.0317 -0.0887
 2726TIP3    H129593   3.767   0.101  12.017 -0.9144  1.5624  1.1259
 2726TIP3    H229594   3.749   0.102  11.866  1.6590  0.4645  0.7640
 2727TIP3   OH229595   0.780   4.830  12.166 -0.5496 -0.5037 -0.0068
 2727TIP3    H129596   0.688   4.811  12.145 -0.8555 -0.2881  1.0519
 2727TIP3    H229597   0.782   4.924  12.184 -1.0691 -1.0717  4.0777
 2728TIP3   OH229598   0.690   1.000  16.068  0.6565 -0.1771 -0.1715
 2728TIP3    H129599   0.745   0.924  16.087  0.1486 -0.9812 -1.7469
 2728TIP3    H229600   0.638   0.973  15.993  1.3954  2.1835 -1.6328
 2729TIP3   OH229601   3.590   0.468   2.672  0.2752  0.6600  0.0996
 2729TIP3    H129602   3.639   0.483   2.591  0.8755  0.2707  0.3811
 2729TIP3    H229603   3.515   0.415   2.646 -0.5375  2.0649 -0.4970
 2730TIP3   OH229604   1.501   1.750  16.948  0.0082  0.1859 -0.1520
 2730TIP3    H129605   1.449   1.671  16.960 -0.2388  0.2514 -0.7701
 2730TIP3    H229606   1.517   1.754  16.854  1.1442  0.1555  0.0238
 2731TIP3   OH229607   3.367   1.749   2.360  0.7914  0.2706  0.1974
 2731TIP3    H129608   3.426   1.729   2.287  0.6329  2.1034 -0.5031
 2731TIP3    H229609   3.299   1.805   2.320  1.8597  3.1335  2.1055
 2732TIP3   OH229610   1.364   4.036   0.801 -0.1878  0.2890 -0.1532
 2732TIP3    H129611   1.278   4.024   0.841 -0.9428  1.0920 -1.4275
 2732TIP3    H229612   1.351   4.009   0.710  1.1129 -0.2524 -0.2006
 2733TIP3   OH229613   5.561   3.680   1.139 -0.1089  0.0005  0.5788
 2733TIP3    H129614   5.618   3.695   1.215  0.2194  0.9058  0.1785
 2733TIP3    H229615   5.474   3.707   1.168 -0.1517 -0.4787  0.8992
 2734TIP3   OH229616   6.283   4.596  13.461  0.1477  0.0822 -0.2523
 2734TIP3    H129617   6.201   4.548  13.449 -0.9394  1.7504  0.0893
 2734TIP3    H229618   6.341   4.564  13.392  0.1107 -2.8668  0.9326
 2735TIP3   OH229619   5.101   2.219   1.964 -0.3122  0.2474 -0.2784
 2735TIP3    H129620   5.119   2.127   1.984  0.5452  0.5928  0.6533
 2735TIP3    H229621   5.025   2.217   1.905 -0.5785 -1.0235  0.0800
 2736TIP3   OH229622   3.262   0.093   4.588 -0.2319 -0.5647 -0.7398
 2736TIP3    H129623   3.310   0.137   4.518  0.6063 -1.3799 -0.7071
 2736TIP3    H229624   3.325   0.085   4.660 -0.8292 -0.4732 -0.1952
 2737TIP3   OH229625   4.171   5.871   5.799  0.3551 -0.4137 -0.0918
 2737TIP3    H129626   4.180   5.966   5.790 -2.3880  0.2827  2.5982
 2737TIP3    H229627   4.231   5.847   5.869  0.3904 -0.4847 -0.1464
 2738TIP3   OH229628   3.760   1.568  16.700  0.3498 -0.1968 -0.1192
 2738TIP3    H129629   3.756   1.658  16.734  2.3974 -0.4023  0.8143
 2738TIP3    H229630   3.750   1.513  16.777  0.0319 -0.7732 -0.5658
 2739TIP3   OH229631   3.727   1.495   2.024 -0.7263  0.7530  0.4178
 2739TIP3    H129632   3.754   1.452   2.106 -0.8947  0.8610  0.5308
 2739TIP3    H229633   3.672   1.431   1.980 -0.2798  0.5288  0.1831
 2740TIP3   OH229634   5.312   6.035  10.982 -0.4514  0.3733  0.2158
 2740TIP3    H129635   5.307   6.011  10.889  1.6854 -0.8936  0.3594
 2740TIP3    H229636   5.404   6.027  11.004 -0.7983  1.3716  2.3006
 2741TIP3   OH229637   6.395   3.078   0.466 -0.1063  0.1573  0.1315
 2741TIP3    H129638   6.429   3.100   0.552 -0.7920  0.3766  0.3501
 2741TIP3    H229639   6.463   3.024   0.426  0.2811  0.1906  0.7449
 2742TIP3   OH229640   3.472   3.125  13.910 -0.6064 -1.3843 -0.5230
 2742TIP3    H129641   3.412   3.195  13.936  3.0476  1.5293  1.1042
 2742TIP3    H229642   3.450   3.052  13.968 -1.6701  0.0750  1.0387
 2743TIP3   OH229643   3.447   4.843  10.507 -0.0019  0.5928 -0.3945
 2743TIP3    H129644   3.372   4.859  10.565 -0.0351 -0.1851 -0.2153
 2743TIP3    H229645   3.410   4.840  10.419 -0.1718  0.2865 -0.3132
 2744TIP3   OH229646   5.105   0.013   0.489 -0.0907 -0.3623 -0.2356
 2744TIP3    H129647   5.047   0.053   0.425 -1.1260  0.9579  1.4162
 2744TIP3    H229648   5.047  -0.027   0.553  0.9265 -2.6224 -0.6505
 2745TIP3   OH229649   1.988   6.008  12.646 -0.2487  0.0123  0.5674
 2745TIP3    H129650   2.015   5.931  12.597 -1.4581 -0.0570 -0.0083
 2745TIP3    H229651   1.950   6.067  12.580 -0.0013  0.8005  1.1053
 2746TIP3   OH229652   6.756   0.706   2.623 -0.3658  0.7997 -0.0714
 2746TIP3    H129653   6.821   0.774   2.602  1.2985 -0.8438 -0.5327
 2746TIP3    H229654   6.747   0.656   2.542  1.0013 -1.5191  1.1002
 2747TIP3   OH229655   0.437   1.186  11.941 -0.0725  0.4806  0.4301
 2747TIP3    H129656   0.492   1.264  11.932 -0.9795  0.9973 -1.0544
 2747TIP3    H229657   0.347   1.219  11.931 -0.4025 -0.8997 -1.7271
 2748TIP3   OH229658   5.120   4.904   4.814 -0.2956 -0.1094 -0.0310
 2748TIP3    H129659   5.079   4.958   4.748 -2.8531 -0.3760  1.2242
 2748TIP3    H229660   5.183   4.962   4.857 -0.8314  0.9662 -0.6597
 2749TIP3   OH229661   6.718   3.259  13.136  0.2001 -0.0637  0.4445
 2749TIP3    H129662   6.663   3.199  13.187  1.0205 -0.9765  0.2859
 2749TIP3    H229663   6.802   3.260  13.182  0.2425  0.8633  0.3613
 2750TIP3   OH229664   3.751   0.906   2.866  0.2723 -0.0664 -0.4690
 2750TIP3    H129665   3.764   0.814   2.843  2.7440  0.0590  0.1447
 2750TIP3    H229666   3.738   0.906   2.961 -0.0481  0.2031 -0.5091
 2751TIP3   OH229667   5.445   4.388   1.360 -0.3384 -0.2605  0.0358
 2751TIP3    H129668   5.430   4.440   1.439 -0.4010  2.8035 -1.8105
 2751TIP3    H229669   5.360   4.387   1.316 -0.3105 -1.9378 -0.0435
 2752TIP3   OH229670   4.916   2.202  16.947  0.5247 -0.4842 -0.3739
 2752TIP3    H129671   4.835   2.247  16.923  1.0552  0.8554  0.2530
 2752TIP3    H229672   4.889   2.139  17.014  0.1766  0.9720  0.9347
 2753TIP3   OH229673   1.117   6.655   5.049  0.2095 -0.5279  0.3548
 2753TIP3    H129674   1.035   6.668   5.002  0.0259 -0.5171  0.6758
 2753TIP3    H229675   1.104   6.698   5.133  0.8459  0.2039  0.0905
 2754TIP3   OH229676   3.970   5.436  11.187 -0.3976 -0.4358 -0.0497
 2754TIP3    H129677   3.921   5.399  11.114 -0.3436 -0.7688  0.0816
 2754TIP3    H229678   4.049   5.473  11.147 -0.6357 -0.1171 -0.2283
 2755TIP3   OH229679   2.862   0.042  11.598  0.4220  0.4607  0.1117
 2755TIP3    H129680   2.941   0.076  11.556  0.2505 -2.3682 -2.8571
 2755TIP3    H229681   2.791   0.097  11.564  0.6579  0.2279 -0.7817
 2756TIP3   OH229682   3.081   1.923  11.432  0.9300  0.2603  0.4317
 2756TIP3    H129683   3.163   1.950  11.390 -0.0220 -1.0424 -2.5612
 2756TIP3    H229684   3.097   1.832  11.458  0.5657  0.1020  0.1138
 2757TIP3   OH229685   0.861   0.853   6.490 -0.1795  0.2847 -0.0630
 2757TIP3    H129686   0.918   0.885   6.560 -1.4968  0.1124  1.1402
 2757TIP3    H229687   0.911   0.868   6.410  1.1080  1.1032  0.8465
 2758TIP3   OH229688   6.286   2.738   5.791  0.8520  0.3631 -0.0433
 2758TIP3    H129689   6.295   2.648   5.760  0.1429  0.2143  0.1555
 2758TIP3    H229690   6.240   2.783   5.721  1.2125  0.5743 -0.1453
 2759TIP3   OH229691   1.717   1.014  12.095  0.2063 -0.1701  0.2684
 2759TIP3    H129692   1.723   0.921  12.073 -1.7973 -0.3274  0.2209
 2759TIP3    H229693   1.769   1.023  12.175  3.3003 -0.5997 -1.5408
 2760TIP3   OH229694   0.896   6.608  16.700  0.1289  0.0938  0.2752
 2760TIP3    H129695   0.951   6.533  16.722 -0.6149 -0.7396 -0.6081
 2760TIP3    H229696   0.911   6.671  16.771  2.3776  0.0011 -0.0391
 2761TIP3   OH229697   6.549   2.211  16.762 -0.9292 -0.5017  0.6242
 2761TIP3    H129698   6.470   2.213  16.708 -2.0642  1.6833  2.2040
 2761TIP3    H229699   6.552   2.297  16.803  2.3590 -0.4757  0.5997
 2762TIP3   OH229700   5.668   6.447  15.174  0.6795  0.4169 -0.4862
 2762TIP3    H129701   5.614   6.503  15.119  0.9028 -0.6909 -1.9039
 2762TIP3    H229702   5.756   6.454  15.137  0.7177 -0.8067 -0.6943
 2763TIP3   OH229703   0.710   0.875   5.674  0.8744  0.1634  0.3504
 2763TIP3    H129704   0.650   0.948   5.657  0.2345 -0.4698 -0.2060
 2763TIP3    H229705   0.716   0.871   5.769 -0.8901 -0.4504  0.4823
 2764TIP3   OH229706   1.534   2.257  15.316  0.5009  0.1352  0.7754
 2764TIP3    H129707   1.567   2.259  15.226  1.0539 -1.0883  0.9293
 2764TIP3    H229708   1.440   2.240  15.306  0.3718  1.0424  0.4047
 2765TIP3   OH229709   2.989   0.837   0.334  0.2942  0.2250  0.8566
 2765TIP3    H129710   2.983   0.750   0.295  0.9423  0.0555  1.1164
 2765TIP3    H229711   3.053   0.883   0.279 -1.3367  1.1496 -0.3717
 2766TIP3   OH229712   0.195   4.895  12.792  0.5085 -0.0215 -0.0329
 2766TIP3    H129713   0.220   4.962  12.728  0.3248  0.7370  0.6701
 2766TIP3    H229714   0.192   4.942  12.875 -1.9386 -0.3348  0.1419
 2767TIP3   OH229715   0.773   3.915  13.736  0.0920 -0.1851 -0.9523
 2767TIP3    H129716   0.823   3.833  13.732 -1.2704 -1.0779 -0.4757
 2767TIP3    H229717   0.795   3.953  13.821 -0.2747 -0.7471 -0.5977
 2768TIP3   OH229718   4.777   4.685   1.170 -0.0258  0.8500  0.2400
 2768TIP3    H129719   4.834   4.614   1.199 -0.1274  1.3691  1.7880
 2768TIP3    H229720   4.720   4.645   1.105  1.9740  0.2830 -1.2512
 2769TIP3   OH229721   5.525   6.104  14.605  0.1310  0.0180  0.4454
 2769TIP3    H129722   5.499   6.196  14.603 -1.7997 -0.4570  1.4104
 2769TIP3    H229723   5.564   6.088  14.519 -0.0165  1.5793  0.0522
 2770TIP3   OH229724   2.432   2.470  14.507 -0.5643  0.1449  0.3426
 2770TIP3    H129725   2.409   2.377  14.506  1.0040 -0.2896 -1.1269
 2770TIP3    H229726   2.526   2.471  14.492 -0.5716  1.9861  0.2275
 2771TIP3   OH229727   3.693   4.705   5.281  0.4654 -0.0630  0.3252
 2771TIP3    H129728   3.643   4.787   5.279 -0.1631 -0.4541 -0.6309
 2771TIP3    H229729   3.656   4.652   5.210  3.0906  0.1170 -1.3011
 2772TIP3   OH229730   6.405   1.489  13.522 -0.3879 -0.3146  0.0893
 2772TIP3    H129731   6.389   1.465  13.431  1.0157 -0.2061 -0.2143
 2772TIP3    H229732   6.380   1.412  13.573 -0.7033 -0.5590 -0.4321
 2773TIP3   OH229733   0.504   3.884   2.224 -0.2041  0.3627  0.8264
 2773TIP3    H129734   0.547   3.874   2.309 -2.0497  2.1388  2.0793
 2773TIP3    H229735   0.441   3.812   2.219  0.2129  0.0004  0.7433
 2774TIP3   OH229736   6.074   5.619   2.129 -0.4384 -0.2719 -0.2564
 2774TIP3    H129737   6.130   5.632   2.052 -1.0461 -1.0765 -0.8659
 2774TIP3    H229738   6.110   5.541   2.171  0.6528  0.8753  1.0039
 2775TIP3   OH229739   3.208   5.984  11.367  0.0952  0.1121 -0.0938
 2775TIP3    H129740   3.159   6.030  11.435 -0.7766 -2.8123  1.4465
 2775TIP3    H229741   3.140   5.944  11.312  0.7818  2.3148 -2.7677
 2776TIP3   OH229742   2.751   5.511   5.219 -0.0215 -0.0593 -0.2026
 2776TIP3    H129743   2.718   5.449   5.285  2.1408 -0.3974  0.6584
 2776TIP3    H229744   2.847   5.501   5.223  0.3119  2.1351 -1.2461
 2777TIP3   OH229745   0.736   0.559   3.999 -0.2289 -0.1233  0.2663
 2777TIP3    H129746   0.667   0.510   3.954  0.1265 -1.9542  1.6117
 2777TIP3    H229747   0.815   0.544   3.946 -0.4730  0.4599 -0.2742
 2778TIP3   OH229748   1.674   1.683   1.150 -0.3548  0.2052 -0.2618
 2778TIP3    H129749   1.591   1.637   1.165 -1.0725  0.7859 -2.1742
 2778TIP3    H229750   1.727   1.620   1.101 -0.6507  0.7073 -1.2630
 2779TIP3   OH229751   4.079   0.824   2.379  0.3505 -0.4863  0.2580
 2779TIP3    H129752   4.088   0.919   2.370 -3.1390 -0.1230 -1.2665
 2779TIP3    H229753   4.028   0.812   2.459  0.3470 -1.0495  0.1777
 2780TIP3   OH229754   2.962   5.192   3.889 -0.4690  0.2334  0.6902
 2780TIP3    H129755   2.898   5.212   3.957 -0.4877 -1.8489  1.3643
 2780TIP3    H229756   3.013   5.120   3.926  2.2101  1.7299  0.1142
 2781TIP3   OH229757   1.686   4.175  15.961  0.2411  0.1148  0.9256
 2781TIP3    H129758   1.695   4.249  15.901  2.4738 -0.8051 -0.0087
 2781TIP3    H229759   1.677   4.215  16.047 -3.1906  1.4895  0.1067
 2782TIP3   OH229760   3.296   0.595  10.726  0.4364 -0.0016  0.5077
 2782TIP3    H129761   3.359   0.546  10.673 -0.5713  0.3129 -1.0492
 2782TIP3    H229762   3.291   0.681  10.685  0.8102  0.8167  2.1016
 2783TIP3   OH229763   4.135   6.178  14.951 -0.0999  0.2248  0.0490
 2783TIP3    H129764   4.197   6.251  14.957 -0.1278  0.2275  0.3029
 2783TIP3    H229765   4.057   6.217  14.912 -0.2214  0.3979  0.4645
 2784TIP3   OH229766   1.007   1.482  13.165  0.6616 -0.5301  0.2390
 2784TIP3    H129767   1.002   1.483  13.070 -1.5017  1.2337  0.2722
 2784TIP3    H229768   0.988   1.392  13.190  1.5478 -1.0816 -0.9574
 2785TIP3   OH229769   1.196   1.598  16.598 -0.4346 -0.2339  0.4730
 2785TIP3    H129770   1.107   1.632  16.601 -0.7210 -0.9775  0.6351
 2785TIP3    H229771   1.218   1.580  16.690 -0.1014 -0.0073  0.4390
 2786TIP3   OH229772   5.662   0.913  13.936 -0.2074 -0.2207  0.1543
 2786TIP3    H129773   5.671   0.972  14.011  3.9978 -0.3851  0.0562
 2786TIP3    H229774   5.719   0.839  13.957  2.7329  0.5530 -3.7315
 2787TIP3   OH229775   3.809   5.360  12.973  0.1151  1.0181 -0.3602
 2787TIP3    H129776   3.756   5.351  12.893 -0.0380  0.4390 -0.2001
 2787TIP3    H229777   3.874   5.290  12.967  0.3213  1.1878 -0.1388
 2788TIP3   OH229778   3.941   6.287   4.427  0.0134 -0.3585  0.0767
 2788TIP3    H129779   3.847   6.298   4.434  0.2340  0.6685  2.2321
 2788TIP3    H229780   3.953   6.204   4.381 -1.8967  0.1028 -1.3737
 2789TIP3   OH229781   4.430   4.894  11.509 -0.0005 -0.0776 -0.0659
 2789TIP3    H129782   4.398   4.834  11.576  0.2903 -2.9846 -2.3329
 2789TIP3    H229783   4.502   4.847  11.468  0.8010  2.2277 -1.4422
 2790TIP3   OH229784   0.046   0.070  13.654 -0.6081  0.2367 -0.0883
 2790TIP3    H129785   0.103   0.020  13.596  0.0450  0.5035  0.3263
 2790TIP3    H229786  -0.040   0.065  13.612 -0.6189 -1.4259  0.0548
 2791TIP3   OH229787   1.867   5.077   0.467 -0.1620  0.1783  0.0916
 2791TIP3    H129788   1.932   5.013   0.439 -0.7703 -0.6203  0.4620
 2791TIP3    H229789   1.783   5.039   0.442 -0.5594  0.6110  0.7340
 2792TIP3   OH229790   0.126   6.692  16.904  0.3366  0.0088 -0.1580
 2792TIP3    H129791   0.039   6.715  16.874 -0.1179 -1.1384  0.2211
 2792TIP3    H229792   0.112   6.624  16.970  1.4650  0.4955  0.6164
 2793TIP3   OH229793   3.964   1.603   2.840 -0.0046 -0.4906 -0.3669
 2793TIP3    H129794   3.894   1.660   2.872 -0.9969 -1.3268 -0.9824
 2793TIP3    H229795   4.000   1.562   2.919 -1.3527 -1.3202 -0.1532
 2794TIP3   OH229796   0.359   3.396   3.432 -0.0728 -0.2313  0.0360
 2794TIP3    H129797   0.301   3.440   3.370  1.3945  0.4626 -0.9264
 2794TIP3    H229798   0.386   3.317   3.386  2.4038  1.1294 -1.0851
 2795TIP3   OH229799   6.775   6.774  16.446 -0.0294  0.8610 -0.3349
 2795TIP3    H129800   6.866   6.786  16.420  0.5685 -1.2977  0.5290
 2795TIP3    H229801   6.743   6.704  16.389 -0.9692  1.1965 -0.2319
 2796TIP3   OH229802   0.485   1.446   4.032  0.4668 -0.0207 -0.0482
 2796TIP3    H129803   0.407   1.391   4.043  0.9553 -0.2763  2.8889
 2796TIP3    H229804   0.555   1.385   4.010  0.4123 -0.1847  0.2337
 2797TIP3   OH229805   3.975   0.235   0.513 -0.0537  0.3160  0.4404
 2797TIP3    H129806   3.974   0.254   0.419  0.4272  1.0419  0.5774
 2797TIP3    H229807   3.903   0.173   0.525  0.9990 -1.1788 -0.6828
 2798TIP3   OH229808   1.688   3.617   0.169  0.3863  0.1632 -0.1257
 2798TIP3    H129809   1.716   3.534   0.209  0.8621  1.1964  1.8220
 2798TIP3    H229810   1.728   3.616   0.082 -0.0118 -1.8368 -0.3418
 2799TIP3   OH229811   6.249   2.980  10.543  0.0717 -0.5151 -0.7648
 2799TIP3    H129812   6.316   3.005  10.606  0.6050 -0.6500 -1.2795
 2799TIP3    H229813   6.297   2.944  10.469 -0.5975 -1.6073 -0.7025
 2800TIP3   OH229814   3.648   5.081   4.663  0.0705  0.4180  0.1137
 2800TIP3    H129815   3.669   5.063   4.755  1.5211  0.8995 -0.0944
 2800TIP3    H229816   3.715   5.033   4.613 -1.1230 -0.4308 -0.7472
 2801TIP3   OH229817   3.810   3.087  16.745 -0.3004 -0.2543  0.0580
 2801TIP3    H129818   3.868   3.162  16.732  1.4353 -1.7010 -1.2961
 2801TIP3    H229819   3.809   3.072  16.839  0.0676  0.9014  0.2541
 2802TIP3   OH229820   5.539   4.031  14.662 -0.5211 -0.2526 -0.3479
 2802TIP3    H129821   5.611   4.062  14.607  0.2744  1.9335  1.7204
 2802TIP3    H229822   5.461   4.073  14.627  0.1382  2.0195  0.7294
 2803TIP3   OH229823   1.514   2.226   1.364 -0.2099  0.3642  0.0059
 2803TIP3    H129824   1.609   2.236   1.369 -0.2443  0.5469  0.3115
 2803TIP3    H229825   1.493   2.166   1.435 -0.3494  0.5084  0.0871
 2804TIP3   OH229826   3.884   2.949   5.392  0.3314 -0.1540  0.4706
 2804TIP3    H129827   3.857   2.872   5.341 -2.5463 -0.8236  2.8146
 2804TIP3    H229828   3.959   2.918   5.444 -0.9736 -1.5346  1.6027
 2805TIP3   OH229829   4.752   3.836  14.081  0.1147  0.5968 -0.0031
 2805TIP3    H129830   4.815   3.781  14.035  1.8314  1.0639  1.6466
 2805TIP3    H229831   4.680   3.848  14.019  2.2279  1.1238 -2.5189
 2806TIP3   OH229832   0.195   2.945  10.836 -0.7476  0.0817 -0.5609
 2806TIP3    H129833   0.258   3.013  10.812  0.0925  0.0065  1.2997
 2806TIP3    H229834   0.110   2.983  10.812 -0.3423  1.9718  0.7250
 2807TIP3   OH229835   3.539   2.690  11.242 -0.1183  0.8024 -0.6004
 2807TIP3    H129836   3.512   2.602  11.268  0.8596  1.4063  3.1058
 2807TIP3    H229837   3.635   2.684  11.234  0.3809  2.0170  2.8283
 2808TIP3   OH229838   5.331   3.579  14.859 -0.2396 -0.0683  0.6488
 2808TIP3    H129839   5.299   3.578  14.768  1.8960 -0.2344 -0.1440
 2808TIP3    H229840   5.349   3.487  14.879 -0.9489 -0.0614  1.3543
 2809TIP3   OH229841   1.952   4.373   3.818  0.3613  0.1824 -0.2333
 2809TIP3    H129842   1.994   4.306   3.764  0.9276 -0.9898  1.5781
 2809TIP3    H229843   1.972   4.348   3.908 -0.2660  2.2493  0.5489
 2810TIP3   OH229844   0.182   5.763  11.515  0.0484 -0.5716 -0.0997
 2810TIP3    H129845   0.207   5.687  11.567 -0.4785 -1.1185 -0.6365
 2810TIP3    H229846   0.222   5.837  11.561 -2.1886 -0.7462  2.3902
 2811TIP3   OH229847   1.733   0.603  13.035  0.3120  0.6417  0.1879
 2811TIP3    H129848   1.740   0.589  13.130  1.3698  0.2437  0.0638
 2811TIP3    H229849   1.678   0.680  13.027 -1.4215 -0.4360  1.0656
 2812TIP3   OH229850   2.393   6.359   1.189  0.0287  0.0618 -0.6549
 2812TIP3    H129851   2.339   6.350   1.267 -1.0230 -0.8987 -1.4488
 2812TIP3    H229852   2.348   6.423   1.135 -1.5897 -2.2669 -2.2584
 2813TIP3   OH229853   2.131   0.651   0.230  0.1856  0.6204  0.6271
 2813TIP3    H129854   2.220   0.617   0.223  0.7568  1.4550  2.7626
 2813TIP3    H229855   2.079   0.596   0.172  2.0247 -0.0716 -0.4632
 2814TIP3   OH229856   2.584   6.627  12.904 -0.5757 -0.0125 -0.1008
 2814TIP3    H129857   2.562   6.638  12.996 -1.5156 -2.4110  0.0327
 2814TIP3    H229858   2.656   6.564  12.904  0.9038  1.5922 -0.9541
 2815TIP3   OH229859   0.082   3.160  15.172  0.4270 -0.2174 -0.0103
 2815TIP3    H129860   0.161   3.179  15.222  0.6301 -0.0278 -0.3967
 2815TIP3    H229861   0.016   3.140  15.238  0.8292 -0.5078  0.3106
 2816TIP3   OH229862   5.707   4.619   4.550  0.6313  0.0564  0.2364
 2816TIP3    H129863   5.744   4.684   4.491  2.2677  1.3792  2.5326
 2816TIP3    H229864   5.730   4.651   4.638  0.9674 -3.2855  1.5176
 2817TIP3   OH229865   0.019   2.112  11.556 -0.1540  0.1381 -0.5589
 2817TIP3    H129866  -0.049   2.065  11.604 -0.0601  1.3308  0.8434
 2817TIP3    H229867   0.013   2.202  11.589  2.4700  0.1521  0.0857
 2818TIP3   OH229868   6.376   1.969   0.723  0.1190  0.3690  0.0071
 2818TIP3    H129869   6.366   1.967   0.818  0.8331  0.3526  0.0880
 2818TIP3    H229870   6.299   2.017   0.692  0.3018  1.1074  0.6617
 2819TIP3   OH229871   1.574   0.287   3.366  0.0455 -0.1039  0.6263
 2819TIP3    H129872   1.512   0.278   3.438  0.1665 -0.7262  0.6635
 2819TIP3    H229873   1.576   0.200   3.325 -0.1915  0.2962 -0.2636
 2820TIP3   OH229874   1.398   0.665  11.553 -0.3407 -0.5266 -0.4113
 2820TIP3    H129875   1.458   0.653  11.627  0.4169 -0.2443 -0.9724
 2820TIP3    H229876   1.372   0.757  11.557  0.0273 -0.4044 -0.7303
 2821TIP3   OH229877   0.420   4.389  11.153 -0.6414  0.0637  0.2124
 2821TIP3    H129878   0.434   4.482  11.136  3.6119 -0.1455  1.3948
 2821TIP3    H229879   0.363   4.388  11.230 -0.0352  1.7770  0.7470
 2822TIP3   OH229880   4.639   1.499  11.878 -0.3778  0.3816  0.4187
 2822TIP3    H129881   4.688   1.573  11.841 -0.5903 -0.6661 -2.1392
 2822TIP3    H229882   4.553   1.505  11.837  0.5090 -2.9579 -2.3624
 2823TIP3   OH229883   1.141   2.519  11.617  0.0654 -0.2401 -0.2055
 2823TIP3    H129884   1.143   2.446  11.555  1.8394  0.5673 -1.1582
 2823TIP3    H229885   1.145   2.597  11.562  0.3044  0.5295  0.8834
 2824TIP3   OH229886   4.412   3.860   0.728 -0.4132 -0.4618  0.3905
 2824TIP3    H129887   4.474   3.787   0.726  0.6045  0.3971  0.1937
 2824TIP3    H229888   4.388   3.869   0.821  0.3423 -0.3124  0.5751
 2825TIP3   OH229889   4.929   5.324  16.736 -0.6373  0.0935  0.3086
 2825TIP3    H129890   4.855   5.365  16.692 -0.5214 -0.6120 -0.5724
 2825TIP3    H229891   4.921   5.351  16.827 -1.7794  0.3122  0.1544
 2826TIP3   OH229892   6.463   6.798   5.971  0.0395  0.0995  0.3672
 2826TIP3    H129893   6.531   6.732   5.959  1.7706  2.0379 -1.3534
 2826TIP3    H229894   6.505   6.868   6.020 -0.7829  1.2170 -0.4619
 2827TIP3   OH229895   3.113   6.455   1.345 -0.7000  0.4455 -0.3371
 2827TIP3    H129896   3.173   6.492   1.410  0.6796  0.7354 -1.7096
 2827TIP3    H229897   3.106   6.523   1.278 -1.1207 -0.3237 -1.0880
 2828TIP3   OH229898   6.186   4.147  11.943  0.0984  0.3374 -0.4502
 2828TIP3    H129899   6.160   4.191  11.862  0.4314  0.8458 -0.2932
 2828TIP3    H229900   6.219   4.218  11.999 -2.7464  0.4657  1.2478
 2829TIP3   OH229901   4.684   3.692  14.336  0.4173  0.3947  0.1474
 2829TIP3    H129902   4.662   3.763  14.275  0.2728  0.3561  0.1560
 2829TIP3    H229903   4.658   3.726  14.422  2.0365  1.0938  0.4131
 2830TIP3   OH229904   2.631   4.846   4.518 -0.2334 -0.0518 -0.4417
 2830TIP3    H129905   2.592   4.908   4.580 -0.4603 -0.5310 -0.0994
 2830TIP3    H229906   2.644   4.766   4.569  0.1772 -0.2468 -0.8457
 2831TIP3   OH229907   5.659   4.434   1.216 -0.6091  0.1040  0.0030
 2831TIP3    H129908   5.574   4.409   1.252 -1.5239 -0.0810 -2.1345
 2831TIP3    H229909   5.644   4.520   1.177  0.9194  1.3052  1.8371
 2832TIP3   OH229910   5.256   0.314  16.265 -0.1934 -0.3323  0.1832
 2832TIP3    H129911   5.238   0.328  16.172 -1.3957  0.0994  0.4720
 2832TIP3    H229912   5.268   0.401  16.301 -2.6040 -0.2752  0.9787
 2833TIP3   OH229913   1.029   5.329   4.951 -0.3991 -0.2038 -0.3170
 2833TIP3    H129914   1.049   5.328   4.857 -1.8616 -1.0772 -0.6623
 2833TIP3    H229915   0.999   5.240   4.970  2.6168 -0.9304  1.6636
 2834TIP3   OH229916   6.175   2.684   0.656  0.4599  0.3206 -0.0126
 2834TIP3    H129917   6.148   2.676   0.747 -0.9785  0.0622 -0.4383
 2834TIP3    H229918   6.148   2.772   0.629  0.1557  0.1130 -0.4045
 2835TIP3   OH229919   4.630   1.455  16.537 -0.4057  0.1921  0.1050
 2835TIP3    H129920   4.603   1.371  16.574 -0.4789  0.0416 -0.2846
 2835TIP3    H229921   4.673   1.433  16.455  2.6676  0.2656  1.5829
 2836TIP3   OH229922   6.686   0.432   3.153 -0.1100 -0.1391 -0.0289
 2836TIP3    H129923   6.741   0.361   3.120  0.9982  1.4092 -1.7025
 2836TIP3    H229924   6.602   0.389   3.172  0.6395 -1.9653 -0.5597
 2837TIP3   OH229925   3.682   6.210  12.918  0.3464 -0.0068 -0.0872
 2837TIP3    H129926   3.753   6.185  12.859  0.2432 -0.5236  0.0029
 2837TIP3    H229927   3.723   6.269  12.981  0.2867  1.2294 -1.1537
 2838TIP3   OH229928   3.063   5.935  14.069  0.2016  0.0325  0.1553
 2838TIP3    H129929   3.104   5.993  14.133 -1.0153  0.4829  0.5418
 2838TIP3    H229930   3.127   5.865  14.056  2.7055  2.4724 -1.9624
 2839TIP3   OH229931   0.758   1.720  16.356  0.0217  0.5239  0.5073
 2839TIP3    H129932   0.694   1.706  16.425  0.2821 -1.0573  0.4558
 2839TIP3    H229933   0.707   1.717  16.275  0.3141 -2.5478  0.3334
 2840TIP3   OH229934   6.651   1.874  12.550 -0.7696 -0.2149  0.4415
 2840TIP3    H129935   6.593   1.950  12.552  1.5498  1.6749  0.0519
 2840TIP3    H229936   6.733   1.907  12.513  0.7409 -2.6234  1.3873
 2841TIP3   OH229937   4.875   0.445  17.023  0.0701  0.2220 -0.6074
 2841TIP3    H129938   4.792   0.406  17.049  0.7957 -1.0552 -0.0952
 2841TIP3    H229939   4.940   0.377  17.041  1.4259  1.7111  0.4421
 2842TIP3   OH229940   6.472   5.167  12.055 -0.3883 -0.0036 -0.1523
 2842TIP3    H129941   6.418   5.143  12.131 -1.3078  0.8523 -0.5048
 2842TIP3    H229942   6.408   5.191  11.988  0.4372  0.7477 -0.6826
 2843TIP3   OH229943   1.858   5.738  11.399  0.5163  0.3838 -0.2922
 2843TIP3    H129944   1.937   5.785  11.373  0.5874 -0.3433 -1.5035
 2843TIP3    H229945   1.802   5.739  11.320 -0.1450 -0.1664  0.1522
 2844TIP3   OH229946   1.431   2.927  13.330  0.7462  0.2497  0.0725
 2844TIP3    H129947   1.355   2.971  13.368  0.8590  1.6044 -1.1741
 2844TIP3    H229948   1.398   2.888  13.249  0.6540 -2.0456  1.1424
 2845TIP3   OH229949   3.782   2.438  15.059 -0.3464  0.1705 -0.1849
 2845TIP3    H129950   3.701   2.488  15.066  0.5356  1.6474  0.0801
 2845TIP3    H229951   3.847   2.491  15.106  1.1527 -0.0746 -1.8535
 2846TIP3   OH229952   1.329   0.954   4.668  0.1781 -0.3840 -0.6967
 2846TIP3    H129953   1.305   0.870   4.628 -0.4987  0.1258 -1.4047
 2846TIP3    H229954   1.421   0.967   4.643  0.2352 -0.8327 -0.7277
 2847TIP3   OH229955   2.666   4.537   5.525  0.2318  0.4556  0.4388
 2847TIP3    H129956   2.747   4.576   5.493  1.2283 -0.9275  1.1286
 2847TIP3    H229957   2.657   4.570   5.614 -0.2933  1.0746  0.1585
 2848TIP3   OH229958   3.376   3.116  11.177 -0.4768 -0.3955  0.3484
 2848TIP3    H129959   3.393   3.202  11.216  0.6588  0.6075 -2.1444
 2848TIP3    H229960   3.308   3.133  11.111 -0.1330 -1.3664 -0.2705
 2849TIP3   OH229961   0.074   6.196  13.929  0.5716 -0.0135  0.1507
 2849TIP3    H129962   0.085   6.122  13.869 -0.6747 -0.1618  0.0818
 2849TIP3    H229963   0.154   6.195  13.982  0.0571 -2.1933  1.0091
 2850TIP3   OH229964   0.045   4.879   0.656  0.1661 -0.0166  0.0213
 2850TIP3    H129965   0.074   4.926   0.734  0.6900  1.5206 -1.0530
 2850TIP3    H229966  -0.047   4.902   0.646  0.4301  0.8557 -0.5217
 2851TIP3   OH229967   3.250   3.353  16.990  0.3641 -0.2139  0.1392
 2851TIP3    H129968   3.216   3.296  16.921 -1.6376 -0.7223  1.4652
 2851TIP3    H229969   3.218   3.440  16.966 -2.0554 -0.6826  1.3587
 2852TIP3   OH229970   2.988   5.441   0.738 -0.2497  0.3128  0.1024
 2852TIP3    H129971   2.905   5.488   0.749 -1.3580 -1.3098 -0.8291
 2852TIP3    H229972   3.040   5.500   0.683 -1.3047  0.8090 -0.4235
 2853TIP3   OH229973   6.230   5.136  14.190 -0.0795 -0.0854  0.5797
 2853TIP3    H129974   6.164   5.102  14.250 -0.5215 -0.0890  0.0960
 2853TIP3    H229975   6.188   5.134  14.104  1.3735 -2.4402 -0.1757
 2854TIP3   OH229976   1.046   5.243  15.818 -0.2025  0.6242 -0.0992
 2854TIP3    H129977   1.097   5.246  15.899 -0.0241 -2.0390 -0.0339
 2854TIP3    H229978   0.955   5.236  15.847 -0.0333 -2.2732  0.0330
 2855TIP3   OH229979   0.149   4.981   5.647  0.1300 -0.5620  0.3850
 2855TIP3    H129980   0.102   4.984   5.730 -0.9087 -1.0079 -0.1700
 2855TIP3    H229981   0.196   5.064   5.642 -1.0816  0.1567  0.6797
 2856TIP3   OH229982   6.216   6.085  12.445  0.1543 -0.2932 -0.7828
 2856TIP3    H129983   6.143   6.042  12.490  0.2306 -1.4647 -1.7093
 2856TIP3    H229984   6.292   6.028  12.463  0.4232 -0.1358 -1.3935
 2857TIP3   OH229985   2.073   5.500  11.929 -0.0548  0.1000 -0.5961
 2857TIP3    H129986   2.156   5.455  11.910  0.8284  0.7240  1.4694
 2857TIP3    H229987   2.100   5.587  11.960 -1.5081  0.4070 -0.1339
 2858TIP3   OH229988   3.305   2.294  11.392 -0.2626 -0.2915 -0.4199
 2858TIP3    H129989   3.222   2.257  11.360 -0.4842 -0.4963  0.3788
 2858TIP3    H229990   3.363   2.219  11.401 -0.9845 -0.6441  2.0515
 2859TIP3   OH229991   2.608   0.742   0.799  0.1011  0.0303 -0.4306
 2859TIP3    H129992   2.530   0.698   0.833 -1.0158  1.4561 -1.0005
 2859TIP3    H229993   2.575   0.826   0.767  2.0136  0.9692 -0.0531
 2860TIP3   OH229994   0.166   5.361   1.887  0.8097  0.1666 -0.3038
 2860TIP3    H129995   0.176   5.298   1.816 -0.2546  0.9051 -1.1511
 2860TIP3    H229996   0.094   5.418   1.859  0.9763  1.0522  0.9497
 2861TIP3   OH229997   1.983   4.108  13.335 -0.6332  0.3471  0.4251
 2861TIP3    H129998   1.900   4.063  13.324 -0.9012  0.5181  1.6094
 2861TIP3    H229999   2.004   4.142  13.247 -0.9888 -1.0623 -0.2321
 2862TIP3   OH230000   3.021   2.533   0.348 -0.2561  0.2016 -0.4307
 2862TIP3    H130001   2.958   2.472   0.312 -2.3538  0.8960  1.7413
 2862TIP3    H230002   2.975   2.617   0.349  1.1006  0.9717  0.2123
 2863TIP3   OH230003   6.046   2.919  14.790 -0.0771 -0.1358  0.4209
 2863TIP3    H130004   6.009   3.007  14.785 -0.1543 -0.2001 -0.3559
 2863TIP3    H230005   6.127   2.930  14.840 -1.9638 -0.2996  3.7350
 2864TIP3   OH230006   0.978   5.370  11.572 -0.7739 -0.2921 -0.0516
 2864TIP3    H130007   0.954   5.463  11.579  0.3546 -0.0010  0.0834
 2864TIP3    H230008   1.074   5.370  11.569 -0.7823 -1.3720 -1.2393
 2865TIP3   OH230009   2.925   6.086  13.824 -0.5688  0.2006  0.3987
 2865TIP3    H130010   2.979   6.077  13.902  2.5780 -1.1347 -1.7028
 2865TIP3    H230011   2.897   6.178  13.824 -1.3928  0.0387  3.4124
 2866TIP3   OH230012   2.031   5.220   5.802 -0.3297 -0.3097  0.0974
 2866TIP3    H130013   1.958   5.238   5.862  0.2668 -1.1548  1.1249
 2866TIP3    H230014   2.078   5.148   5.844  1.4325  0.5942 -0.2296
 2867TIP3   OH230015   5.597   4.076   3.911  0.2150 -0.2872 -0.0162
 2867TIP3    H130016   5.639   4.041   3.990  1.3084  1.0346  0.0387
 2867TIP3    H230017   5.527   4.014   3.891  1.1783 -1.7262  0.8420
 2868TIP3   OH230018   5.611   2.711  12.866  0.6657  0.1088 -0.1634
 2868TIP3    H130019   5.580   2.623  12.887  3.4057 -0.6508  1.2297
 2868TIP3    H230020   5.644   2.705  12.777  0.5269 -0.1909 -0.1924
 2869TIP3   OH230021   0.197   0.286   4.241 -0.6930  0.0473  0.5381
 2869TIP3    H130022   0.245   0.369   4.239 -1.3911  0.4433 -0.9297
 2869TIP3    H230023   0.133   0.296   4.311 -0.7265  0.7149  0.4146
 2870TIP3   OH230024   4.423   4.392  14.979 -0.0353 -0.4460 -0.2009
 2870TIP3    H130025   4.412   4.485  14.965 -0.7272 -0.6761 -1.2355
 2870TIP3    H230026   4.425   4.382  15.075  0.5286  0.6640 -0.0882
 2871TIP3   OH230027   1.499   3.947   2.648 -0.5738  0.2679 -0.0379
 2871TIP3    H130028   1.461   3.980   2.729 -0.1392 -2.0737  1.1975
 2871TIP3    H230029   1.593   3.946   2.663 -0.5999 -3.1015  0.7781
 2872TIP3   OH230030   2.669   3.024  15.477 -0.0866  0.8358 -0.0237
 2872TIP3    H130031   2.753   2.990  15.446  0.3184  0.6740  1.2257
 2872TIP3    H230032   2.644   2.966  15.549 -1.3917  0.7486 -0.5189
 2873TIP3   OH230033   0.375   3.039   0.911  0.3189  0.0078  0.1988
 2873TIP3    H130034   0.439   2.973   0.937  1.1496  1.2715  1.5183
 2873TIP3    H230035   0.427   3.114   0.884 -0.5376  1.3072  1.9365
 2874TIP3   OH230036   1.691   1.429  11.815  0.0241 -0.3685 -0.3679
 2874TIP3    H130037   1.646   1.346  11.827  0.2297 -0.5147 -0.5872
 2874TIP3    H230038   1.623   1.490  11.788 -0.3576 -0.1538  1.0203
 2875TIP3   OH230039   4.960   1.368   0.539 -0.0956  0.0318  0.3449
 2875TIP3    H130040   4.917   1.283   0.525 -0.2928  0.0502  0.8304
 2875TIP3    H230041   4.948   1.386   0.632 -0.5288  0.8576  0.1346
 2876TIP3   OH230042   2.520   5.781  14.865  0.5671  0.5044 -0.1108
 2876TIP3    H130043   2.550   5.700  14.906  1.9360  1.1207  0.1734
 2876TIP3    H230044   2.478   5.830  14.935  0.0046  0.1871 -0.2153
 2877TIP3   OH230045   3.038   1.229   2.396  0.9431  0.5507  0.0709
 2877TIP3    H130046   3.060   1.308   2.445 -0.8648  1.5490 -0.6222
 2877TIP3    H230047   3.007   1.167   2.462 -0.2874  1.4431  0.3663
 2878TIP3   OH230048   4.654   3.199   4.806  0.2825 -0.4535 -0.4551
 2878TIP3    H130049   4.732   3.153   4.775  0.5876  0.0700 -0.4714
 2878TIP3    H230050   4.648   3.175   4.899 -1.1078 -2.7012 -1.0515
 2879TIP3   OH230051   3.517   2.986   2.168  0.7406 -0.4499 -0.1422
 2879TIP3    H130052   3.470   2.925   2.112  2.1211 -0.7435 -1.0125
 2879TIP3    H230053   3.466   2.987   2.250 -1.1879 -0.1593 -1.2773
 2880TIP3   OH230054   3.938   2.545   1.680 -0.3509  0.6298 -0.0295
 2880TIP3    H130055   3.977   2.469   1.637 -0.7154  0.5491 -0.2205
 2880TIP3    H230056   4.013   2.598   1.707 -0.1128  0.6410 -0.6929
 2881TIP3   OH230057   0.486   1.055  13.243  0.2401 -0.2383  0.6019
 2881TIP3    H130058   0.521   1.145  13.243 -0.3246 -0.0136  0.8609
 2881TIP3    H230059   0.440   1.048  13.160  0.9647 -0.5689  0.2147
 2882TIP3   OH230060   3.585   2.302   1.981  0.1836  0.0205 -0.3957
 2882TIP3    H130061   3.533   2.380   1.999  0.5944 -0.1325  1.6808
 2882TIP3    H230062   3.642   2.328   1.909  1.6185  2.3308  1.4094
 2883TIP3   OH230063   1.030   6.309  12.415 -0.3204  0.1170 -0.2078
 2883TIP3    H130064   0.969   6.235  12.413  2.1626 -2.0232 -1.6440
 2883TIP3    H230065   1.061   6.312  12.506 -0.3790 -0.6694 -0.1563
 2884TIP3   OH230066   1.533   6.028   4.616 -0.3361  0.4176 -0.5119
 2884TIP3    H130067   1.476   6.083   4.561 -1.1532  0.7623  0.6344
 2884TIP3    H230068   1.507   5.939   4.595 -0.1752  0.5252 -1.1750
 2885TIP3   OH230069   1.760   1.187   2.888 -0.6778  0.5659  0.3117
 2885TIP3    H130070   1.821   1.139   2.944 -1.9221 -2.4471 -0.7180
 2885TIP3    H230071   1.674   1.161   2.920 -1.4102  1.6425 -0.7404
 2886TIP3   OH230072   6.331   6.124   3.477 -0.7620  0.2802  0.3918
 2886TIP3    H130073   6.324   6.218   3.461 -1.3660  0.2289  0.3371
 2886TIP3    H230074   6.261   6.085   3.424  0.3181 -0.3258 -0.6349
 2887TIP3   OH230075   6.357   6.798  11.473 -0.1189 -0.2852 -0.0587
 2887TIP3    H130076   6.281   6.741  11.457 -0.9859  0.4631  1.2400
 2887TIP3    H230077   6.319   6.885  11.486  1.0549  0.2730 -0.2455
 2888TIP3   OH230078   4.703   3.711   5.844  0.0260 -0.0849  0.6382
 2888TIP3    H130079   4.795   3.683   5.848  0.4518  1.1388 -0.0825
 2888TIP3    H230080   4.689   3.760   5.924  0.1704  0.2070  0.4855
 2889TIP3   OH230081   6.445   1.198  12.634 -0.2648  0.6136  0.2606
 2889TIP3    H130082   6.385   1.141  12.682 -0.8513  0.4231 -0.6685
 2889TIP3    H230083   6.434   1.284  12.674  0.0794  0.2349  1.1857
 2890TIP3   OH230084   1.508   6.607  11.375  0.3268 -0.2158  0.2147
 2890TIP3    H130085   1.473   6.679  11.321  2.4412 -0.3170 -1.4655
 2890TIP3    H230086   1.559   6.651  11.443 -1.4681 -0.1041  1.5282
 2891TIP3   OH230087   1.057   4.690   3.097  0.2745 -0.0132  0.3795
 2891TIP3    H130088   1.032   4.743   3.172  0.8816  0.4276  0.2751
 2891TIP3    H230089   1.041   4.745   3.021 -0.3921 -0.4789  0.1775
 2892TIP3   OH230090   6.026   6.476  17.016 -0.3219  0.4268 -0.0783
 2892TIP3    H130091   6.059   6.470  16.926  3.4901  0.8803  1.1139
 2892TIP3    H230092   6.008   6.385  17.041 -0.4863  0.2033 -0.9821
 2893TIP3   OH230093   3.954   1.183  14.578 -0.3971  0.2802 -0.5574
 2893TIP3    H130094   3.883   1.243  14.603 -0.3914  0.0750 -0.0274
 2893TIP3    H230095   3.988   1.150  14.662 -1.9071 -2.2576 -0.8505
 2894TIP3   OH230096   3.079   2.643  15.055 -0.0979 -0.3372  0.1668
 2894TIP3    H130097   3.066   2.732  15.021  1.0289 -0.5914 -0.9989
 2894TIP3    H230098   2.993   2.601  15.046 -0.1611  0.0423 -1.1106
 2895TIP3   OH230099   3.744   2.923   1.864  0.0172 -0.0078  0.5978
 2895TIP3    H130100   3.710   2.862   1.929  2.4690 -1.4606  0.6376
 2895TIP3    H230101   3.759   2.870   1.786  2.1351  0.4826  0.5946
 2896TIP3   OH230102   6.343   4.856   3.377 -0.3787 -0.1207  0.5127
 2896TIP3    H130103   6.364   4.902   3.458 -3.6640 -0.0227  1.4354
 2896TIP3    H230104   6.280   4.913   3.333 -1.9067 -2.1016  0.0159
 2897TIP3   OH230105   4.641   0.928   0.501 -0.9784  0.1714 -0.6439
 2897TIP3    H130106   4.626   0.949   0.409 -1.2090  0.0711 -0.6282
 2897TIP3    H230107   4.675   0.839   0.501  1.3417  0.9969 -0.8247
 2898TIP3   OH230108   6.677   0.221  16.341  0.0106  0.3325 -0.0905
 2898TIP3    H130109   6.701   0.159  16.410  0.2748  0.9388  0.3787
 2898TIP3    H230110   6.761   0.258  16.312 -0.0529 -0.2581 -1.0793
 2899TIP3   OH230111   2.180   0.483  12.799  0.0311  0.2704 -0.4008
 2899TIP3    H130112   2.133   0.541  12.860 -3.9838 -3.0371  0.1301
 2899TIP3    H230113   2.246   0.440  12.853  0.3202  1.3613  0.1543
 2900TIP3   OH230114   4.430   4.303  17.014  0.2318  0.1041 -0.4342
 2900TIP3    H130115   4.375   4.299  17.092  1.3761  1.9941  0.5535
 2900TIP3    H230116   4.501   4.363  17.038  1.1302  0.0111 -2.6244
 2901TIP3   OH230117   3.941   0.680  13.357  0.9838 -0.1976  0.2430
 2901TIP3    H130118   3.926   0.698  13.450  0.4945 -0.4508  0.2174
 2901TIP3    H230119   3.999   0.604  13.356 -0.2479 -1.1930  0.3624
 2902TIP3   OH230120   5.857   4.088  12.219 -0.4596 -0.5846  0.4771
 2902TIP3    H130121   5.803   4.167  12.225  0.1219  0.0421 -1.6590
 2902TIP3    H230122   5.943   4.115  12.250 -0.4580 -0.5786  0.4671
 2903TIP3   OH230123   0.948   2.486  15.061 -0.1771  0.1422 -0.3271
 2903TIP3    H130124   0.873   2.544  15.071 -0.8372 -0.8891  0.8774
 2903TIP3    H230125   1.010   2.515  15.129  0.7230  1.2296 -1.5475
 2904TIP3   OH230126   1.250   2.425  16.295 -0.2175 -0.1551 -0.0864
 2904TIP3    H130127   1.285   2.388  16.376 -0.2545  0.1512  0.0708
 2904TIP3    H230128   1.170   2.375  16.278 -0.8224  0.5301  0.6818
 2905TIP3   OH230129   0.075   5.370   0.961 -0.0498 -0.4539 -0.6121
 2905TIP3    H130130   0.045   5.317   1.034  0.1744  1.7459  1.1635
 2905TIP3    H230131   0.163   5.399   0.986 -0.2940  1.0190 -1.3399
 2906TIP3   OH230132   2.604   5.452   3.282 -0.2241  0.2117  0.2958
 2906TIP3    H130133   2.647   5.493   3.207 -0.9065 -1.3954 -1.0412
 2906TIP3    H230134   2.614   5.515   3.353  1.8314  1.1042 -0.7050
 2907TIP3   OH230135   1.279   2.561  10.971  0.2074  0.2660  0.1471
 2907TIP3    H130136   1.349   2.495  10.965 -0.1849 -0.1333 -0.1165
 2907TIP3    H230137   1.218   2.525  11.036 -0.1716  0.2141 -0.2335
 2908TIP3   OH230138   0.148   6.432  14.672 -0.3382 -0.3831  0.7783
 2908TIP3    H130139   0.222   6.380  14.703  0.7344  1.1700  0.9167
 2908TIP3    H230140   0.152   6.425  14.577 -0.5952 -1.0592  0.8109
 2909TIP3   OH230141   5.031   3.450   3.115 -0.1097 -0.0650 -0.2473
 2909TIP3    H130142   5.105   3.459   3.175 -0.0025  1.6303 -0.5680
 2909TIP3    H230143   4.985   3.372   3.145  2.0566 -1.4698 -0.3547
 2910TIP3   OH230144   0.739   4.151  11.125  0.7404 -0.4550  0.1283
 2910TIP3    H130145   0.725   4.085  11.193  0.0383 -1.2973 -0.7956
 2910TIP3    H230146   0.710   4.108  11.044  0.7803  0.8064 -0.5776
 2911TIP3   OH230147   3.208   6.709   5.370 -0.4763 -0.2081  0.1923
 2911TIP3    H130148   3.137   6.675   5.315  0.0842  0.2570 -0.8531
 2911TIP3    H230149   3.287   6.667   5.335 -0.2768 -1.1850  1.7269
 2912TIP3   OH230150   5.922   2.676   0.074  0.2632  0.2362  0.0496
 2912TIP3    H130151   5.840   2.661   0.121  0.2785  1.6706  0.5815
 2912TIP3    H230152   5.989   2.635   0.129 -0.0593 -0.8409 -0.3306
 2913TIP3   OH230153   6.726   1.807   3.609 -0.1069  0.1635 -0.4149
 2913TIP3    H130154   6.763   1.892   3.634  0.0762 -0.0762  0.1455
 2913TIP3    H230155   6.777   1.743   3.659 -0.9680 -0.2029  0.0041
 2914TIP3   OH230156   1.753   3.646  11.327  0.0530  0.6119 -0.8371
 2914TIP3    H130157   1.767   3.726  11.378 -0.8939  0.2298  0.0371
 2914TIP3    H230158   1.840   3.607  11.321  0.3883  1.3008 -0.6034
 2915TIP3   OH230159   3.787   5.655   1.492  0.4677  0.5231  0.0914
 2915TIP3    H130160   3.835   5.572   1.486  1.0966  0.8075  1.0617
 2915TIP3    H230161   3.799   5.684   1.582  2.7894  3.1792 -0.9253
 2916TIP3   OH230162   6.032   3.761   2.800 -0.2593  0.3600 -0.0308
 2916TIP3    H130163   6.127   3.773   2.801 -0.1871 -0.2035 -0.0281
 2916TIP3    H230164   6.007   3.774   2.709  0.2087 -2.3584 -0.6242
 2917TIP3   OH230165   1.546   5.512  12.798 -0.3487  0.3478  0.5306
 2917TIP3    H130166   1.535   5.507  12.893  1.4929  0.8925  0.7938
 2917TIP3    H230167   1.554   5.605  12.779  0.0574  0.1948 -0.0787
 2918TIP3   OH230168   4.045   0.358   5.041  0.3158 -0.2131  0.3303
 2918TIP3    H130169   4.093   0.440   5.051  0.3235 -0.2674  0.7539
 2918TIP3    H230170   3.953   0.385   5.030  0.4058 -0.1214 -0.1955
 2919TIP3   OH230171   2.717   2.337  11.180  0.0321  0.6049  0.4428
 2919TIP3    H130172   2.745   2.251  11.148  0.3940  0.2360  1.6910
 2919TIP3    H230173   2.709   2.326  11.274 -0.7066  1.7352  0.5349
 2920TIP3   OH230174   2.145   4.635  11.865 -0.1046  0.4859  0.1866
 2920TIP3    H130175   2.119   4.549  11.832  0.1644  0.5854 -0.2852
 2920TIP3    H230176   2.063   4.681  11.881 -0.2830 -0.1335  1.1950
 2921TIP3   OH230177   5.500   2.054   5.237 -0.0459  0.2589 -0.4336
 2921TIP3    H130178   5.591   2.029   5.249  0.1327  1.1014  0.0489
 2921TIP3    H230179   5.489   2.059   5.142  0.5777  0.6966 -0.4898
 2922TIP3   OH230180   4.098   2.747  12.537  0.8395 -0.1991  0.6753
 2922TIP3    H130181   4.139   2.733  12.623 -1.0358  1.5567  1.9392
 2922TIP3    H230182   4.092   2.842  12.528 -0.2978 -0.3704 -0.7543
 2923TIP3   OH230183   0.262   6.301  11.557  0.1137 -0.0305  0.0732
 2923TIP3    H130184   0.311   6.311  11.638  0.6719  2.0912 -0.4509
 2923TIP3    H230185   0.290   6.376  11.503 -1.5402 -0.3965 -1.3814
 2924TIP3   OH230186   0.221   1.857   1.687  0.7051  0.0807 -0.1734
 2924TIP3    H130187   0.135   1.881   1.723  0.6770 -1.3354  0.7616
 2924TIP3    H230188   0.249   1.783   1.740  2.1255 -0.0279 -1.0446
 2925TIP3   OH230189   0.265   1.490   0.264  0.3358  0.2368 -0.7099
 2925TIP3    H130190   0.342   1.444   0.231  0.8208  0.5332 -0.0208
 2925TIP3    H230191   0.195   1.425   0.264  0.5433  0.0084 -1.4949
 2926TIP3   OH230192   1.127   5.649  14.141 -0.3069 -0.3322  0.0230
 2926TIP3    H130193   1.103   5.560  14.116  1.1252 -1.1274  1.3097
 2926TIP3    H230194   1.191   5.638  14.211 -0.5388  1.7291  0.6326
 2927TIP3   OH230195   6.402   1.066  11.362  0.1058  0.2800 -0.1368
 2927TIP3    H130196   6.335   1.072  11.430  0.1033 -0.9179 -0.0099
 2927TIP3    H230197   6.468   1.130  11.388  0.2512 -0.3631  1.1631
 2928TIP3   OH230198   3.662   6.459  10.486 -0.3287  0.3601  0.7091
 2928TIP3    H130199   3.731   6.477  10.549 -0.7811  0.4209  1.1919
 2928TIP3    H230200   3.671   6.529  10.421 -0.8009  1.1734  1.5020
 2929TIP3   OH230201   5.382   5.739  17.107  0.1248  0.0533  0.3830
 2929TIP3    H130202   5.462   5.789  17.091  1.4049 -2.5287 -2.1552
 2929TIP3    H230203   5.412   5.651  17.130 -1.8937 -1.1563 -1.2096
 2930TIP3   OH230204   3.552   0.066  16.211  0.0548 -0.5035  0.5028
 2930TIP3    H130205   3.544   0.095  16.302 -1.2899  1.8425 -0.2600
 2930TIP3    H230206   3.646   0.053  16.199  0.3855  0.2452  1.9314
 2931TIP3   OH230207   3.116   2.501   2.472  0.5407 -0.3028  0.7454
 2931TIP3    H130208   3.127   2.581   2.524 -0.9635 -0.3509  1.1940
 2931TIP3    H230209   3.165   2.517   2.392 -0.2214  1.3424  0.5592
 2932TIP3   OH230210   3.919   5.066  13.338 -0.9136  0.8212  0.9267
 2932TIP3    H130211   3.933   5.113  13.420 -1.2609  4.5815 -0.9243
 2932TIP3    H230212   3.828   5.084  13.315 -0.2612  1.7028 -1.2442
 2933TIP3   OH230213   5.445   2.613   5.532  0.2225  0.0078  0.2283
 2933TIP3    H130214   5.437   2.667   5.610 -0.5647  0.1139  0.0831
 2933TIP3    H230215   5.485   2.531   5.562  1.7569  0.7809  0.3904
 2934TIP3   OH230216   2.108   1.661  11.214 -0.0272  0.1262 -0.5982
 2934TIP3    H130217   2.066   1.622  11.138  1.4761  0.1388 -1.4828
 2934TIP3    H230218   2.151   1.739  11.180  2.4946 -1.0048 -0.2438
 2935TIP3   OH230219   5.019   1.963   3.591  0.2763  0.2622  0.4023
 2935TIP3    H130220   5.032   2.026   3.662 -0.8337 -0.8985  1.7120
 2935TIP3    H230221   4.963   1.896   3.629  0.8365 -1.1641 -1.1569
 2936TIP3   OH230222   3.480   5.709  16.313 -0.2305  0.7072  0.0960
 2936TIP3    H130223   3.501   5.616  16.306  0.8819  0.7296  2.2590
 2936TIP3    H230224   3.563   5.754  16.297 -0.9619  1.4449 -1.9731
 2937TIP3   OH230225   2.302   2.285   0.237  0.2387  0.2031  0.2059
 2937TIP3    H130226   2.397   2.278   0.249  0.2364  0.4723  0.4028
 2937TIP3    H230227   2.266   2.269   0.324 -0.0792 -2.7454 -0.3714
 2938TIP3   OH230228   4.140   2.435  12.918 -0.0004 -0.0226  0.8760
 2938TIP3    H130229   4.211   2.499  12.922 -0.3773  0.3728  1.2561
 2938TIP3    H230230   4.144   2.402  12.828  3.1232 -2.8453  1.8213
 2939TIP3   OH230231   5.567   2.056   0.997  0.3940 -0.2280  0.7341
 2939TIP3    H130232   5.531   1.972   0.967  0.2407  0.0285  0.1971
 2939TIP3    H230233   5.512   2.080   1.072 -1.6696  0.9614 -1.0379
 2940TIP3   OH230234   1.303   4.575  16.521 -0.7209 -0.3210  0.5587
 2940TIP3    H130235   1.350   4.561  16.604  0.6087 -0.0724 -0.1304
 2940TIP3    H230236   1.275   4.487  16.495  0.4343 -0.6669  0.3922
 2941TIP3   OH230237   2.903   0.808  13.347  0.6064 -0.3712 -0.5500
 2941TIP3    H130238   2.947   0.889  13.323 -0.2528  0.7575  1.4155
 2941TIP3    H230239   2.918   0.749  13.273  1.6045  1.4229 -1.8462
 2942TIP3   OH230240   6.074   5.448   1.087 -0.0957  0.2068  0.1959
 2942TIP3    H130241   6.084   5.356   1.063  0.3029  0.7361 -1.7993
 2942TIP3    H230242   6.162   5.477   1.109 -0.3727 -0.1198  1.9298
 2943TIP3   OH230243   6.372   6.349  12.739 -0.4665 -0.4691  0.3657
 2943TIP3    H130244   6.281   6.325  12.724 -1.5794  3.4931 -0.5806
 2943TIP3    H230245   6.374   6.380  12.830 -0.2619  0.1286  0.1613
 2944TIP3   OH230246   2.039   3.849  12.985 -0.4048  0.2638 -0.3648
 2944TIP3    H130247   2.025   3.829  12.892  1.9008 -0.9823 -0.5097
 2944TIP3    H230248   2.059   3.943  12.987  1.1456 -0.0063 -1.3950
 2945TIP3   OH230249   0.362   2.618   1.982 -0.0413 -0.1441 -0.4937
 2945TIP3    H130250   0.363   2.675   1.906  0.5183 -0.0143 -0.3962
 2945TIP3    H230251   0.306   2.663   2.045 -1.0762 -0.5919 -1.0733
 2946TIP3   OH230252   3.857   2.846   0.871  0.0485  0.4360  0.0143
 2946TIP3    H130253   3.945   2.869   0.842  0.0905  0.5280  0.2176
 2946TIP3    H230254   3.870   2.773   0.931 -0.1577 -0.8812 -1.4643
 2947TIP3   OH230255   2.532   5.090   6.120  0.1039  0.1042 -0.0211
 2947TIP3    H130256   2.491   5.107   6.036 -1.9200  0.8082  1.0568
 2947TIP3    H230257   2.603   5.028   6.100  0.4343  1.1472 -2.3695
 2948TIP3   OH230258   2.747   2.662   2.040  0.8112  0.7013 -0.1912
 2948TIP3    H130259   2.787   2.581   2.008 -0.9103 -0.1776 -0.2502
 2948TIP3    H230260   2.715   2.640   2.127 -1.2461  0.7317 -0.8901
 2949TIP3   OH230261   2.706   1.963  11.204 -0.4770 -0.3587 -0.5777
 2949TIP3    H130262   2.689   1.934  11.293  0.2786  0.8428 -0.0185
 2949TIP3    H230263   2.728   1.882  11.156  1.2412 -0.8046  0.8445
 2950TIP3   OH230264   2.825   0.954   3.467 -0.1199 -0.2495  0.2458
 2950TIP3    H130265   2.751   0.898   3.491 -2.0608  0.9641 -2.4200
 2950TIP3    H230266   2.838   0.939   3.374  0.7717  2.0472 -0.0713
 2951TIP3   OH230267   0.740   3.733   0.058  0.3159 -0.1610 -0.0880
 2951TIP3    H130268   0.727   3.643   0.028 -1.0393 -0.1882  0.4851
 2951TIP3    H230269   0.652   3.771   0.058  0.8570  1.1505 -0.2470
 2952TIP3   OH230270   1.378   1.059   0.197  0.0126  0.1142  0.1396
 2952TIP3    H130271   1.409   1.043   0.286 -0.4960  0.1849  0.3349
 2952TIP3    H230272   1.421   1.140   0.170 -2.1039  1.7748  1.4566
 2953TIP3   OH230273   3.356   1.932  11.984  0.5776  0.0662  0.3598
 2953TIP3    H130274   3.302   1.970  11.915  2.1515 -0.3143 -1.1588
 2953TIP3    H230275   3.383   2.006  12.037  0.9593  0.6527 -0.6339
 2954TIP3   OH230276   0.608   0.924   3.042  0.0185 -0.4572 -0.1818
 2954TIP3    H130277   0.581   0.934   3.134  0.0534 -2.0374  0.0361
 2954TIP3    H230278   0.527   0.905   2.995 -0.5326  3.3931 -1.1019
 2955TIP3   OH230279   5.828   0.407   1.716  0.3251 -0.3703 -0.1702
 2955TIP3    H130280   5.906   0.350   1.715  0.6708  0.1008 -0.6842
 2955TIP3    H230281   5.832   0.454   1.633 -1.0204 -1.0068 -0.6247
 2956TIP3   OH230282   6.690   0.472   1.122 -0.2127  0.1508  0.2334
 2956TIP3    H130283   6.759   0.530   1.091 -2.2494  2.6020 -0.0232
 2956TIP3    H230284   6.611   0.501   1.075 -1.2969 -3.2146 -0.3135
 2957TIP3   OH230285   0.049   5.481  16.006 -0.2601  0.0394  0.0537
 2957TIP3    H130286   0.027   5.573  16.022 -2.8253 -0.3421 -0.8194
 2957TIP3    H230287   0.055   5.442  16.093 -0.0133  0.8242  0.4058
 2958TIP3   OH230288   6.729   3.966   5.806  0.1435 -0.2608 -0.6123
 2958TIP3    H130289   6.770   3.882   5.829 -0.1098 -0.0031  0.8605
 2958TIP3    H230290   6.800   4.018   5.768  0.4798 -0.8667 -0.8301
 2959TIP3   OH230291   2.693   1.653   0.197 -0.1690  0.3341  0.3138
 2959TIP3    H130292   2.707   1.666   0.103  2.3404 -1.3317  0.3398
 2959TIP3    H230293   2.692   1.558   0.208  2.8440  0.3918  2.2654
 2960TIP3   OH230294   1.006   4.203   2.639 -0.2962  0.3968  0.5619
 2960TIP3    H130295   0.938   4.233   2.579 -1.8789  0.6342  2.3822
 2960TIP3    H230296   0.990   4.110   2.649 -0.8191  0.5856  1.5468
 2961TIP3   OH230297   3.029   5.237  17.059 -0.5454 -0.3320  0.0992
 2961TIP3    H130298   2.974   5.166  17.026 -0.8916 -1.0110  2.0099
 2961TIP3    H230299   3.108   5.233  17.005 -0.6749 -1.9816 -0.0081
 2962TIP3   OH230300   5.494   5.162   2.140  0.1537 -0.0125 -0.1093
 2962TIP3    H130301   5.422   5.224   2.150 -1.1859 -1.2778 -1.3382
 2962TIP3    H230302   5.514   5.133   2.229  0.9701  2.2759  0.5143
 2963TIP3   OH230303   6.328   0.091  11.203  0.4905 -0.2036 -0.0603
 2963TIP3    H130304   6.293   0.179  11.222 -0.0597 -0.4277 -0.0176
 2963TIP3    H230305   6.353   0.056  11.288  1.4938  0.2346 -0.1684
 2964TIP3   OH230306   2.322   5.774   3.092  0.2157  0.2187 -0.4950
 2964TIP3    H130307   2.235   5.738   3.074  0.7699 -1.4867  0.0166
 2964TIP3    H230308   2.341   5.746   3.182  1.1800  0.7892 -0.5081
 2965TIP3   OH230309   2.735   6.581  14.508  0.7576  0.3250 -0.1889
 2965TIP3    H130310   2.705   6.659  14.461  0.9695 -0.1933 -1.2225
 2965TIP3    H230311   2.830   6.586  14.506  0.7801  0.7533  1.0044
 2966TIP3   OH230312   6.088   1.181  12.134  0.3032  0.0283  0.3358
 2966TIP3    H130313   6.155   1.113  12.136 -0.5474 -0.8385  1.0572
 2966TIP3    H230314   6.093   1.223  12.219  0.1162  0.1334  0.2970
 2967TIP3   OH230315   1.547   3.694   5.718 -0.1672  1.1203 -0.3718
 2967TIP3    H130316   1.530   3.607   5.754 -3.2994  1.8294  0.1359
 2967TIP3    H230317   1.620   3.728   5.771 -0.4976 -0.2863  1.0455
 2968TIP3   OH230318   0.791   1.380  14.016 -0.6936 -0.0768  0.7659
 2968TIP3    H130319   0.883   1.361  14.000 -0.4351  1.8957 -0.3806
 2968TIP3    H230320   0.785   1.392  14.111 -0.3920 -2.9236  1.2391
 2969TIP3   OH230321   2.904   1.571  11.190 -0.4135 -0.3270 -0.1154
 2969TIP3    H130322   2.914   1.575  11.285  1.6940 -0.6163 -0.2811
 2969TIP3    H230323   2.872   1.483  11.173 -0.2622 -0.4653  0.2943
 2970TIP3   OH230324   4.709   2.771  15.336  0.5808 -0.0303 -0.0886
 2970TIP3    H130325   4.620   2.744  15.313  0.6238  0.5359 -0.9778
 2970TIP3    H230326   4.717   2.859  15.300  1.4754 -0.0354  0.0715
 2971TIP3   OH230327   6.556   0.112   1.002  0.0492 -0.3154 -0.2337
 2971TIP3    H130328   6.566   0.154   0.916  0.7528 -0.4331 -0.2137
 2971TIP3    H230329   6.645   0.090   1.029 -0.2186 -0.8534  0.2427
 2972TIP3   OH230330   5.316   5.421   0.235 -0.2965  0.2143  0.0443
 2972TIP3    H130331   5.303   5.329   0.258  0.4187  0.8585  3.6800
 2972TIP3    H230332   5.231   5.462   0.248  0.3700  0.8074  3.3100
 2973TIP3   OH230333   6.475   0.159  16.147  0.1793 -0.1227  0.3675
 2973TIP3    H130334   6.409   0.224  16.173  0.3614  0.4245 -0.5030
 2973TIP3    H230335   6.546   0.172  16.209  0.9211  1.6755 -0.7764
 2974TIP3   OH230336   4.841   0.162  12.450 -0.2372  0.8543  0.5582
 2974TIP3    H130337   4.882   0.238  12.408  1.8921  0.3278  1.5516
 2974TIP3    H230338   4.897   0.088  12.427 -0.7691  0.0358  1.7683
 2975TIP3   OH230339   4.433   4.995   5.781 -0.2477 -0.2721 -0.5131
 2975TIP3    H130340   4.424   4.985   5.876  0.7689 -3.6935 -0.6601
 2975TIP3    H230341   4.507   5.054   5.770  1.4763 -2.0488  0.9069
 2976TIP3   OH230342   2.818   1.807   5.484  0.8016 -0.2211  0.2433
 2976TIP3    H130343   2.800   1.747   5.411  0.6794  1.5042 -1.2290
 2976TIP3    H230344   2.747   1.871   5.479  2.0767  1.2629  0.3855
 2977TIP3   OH230345   2.641   2.684   4.350 -0.1973 -0.0291 -0.1988
 2977TIP3    H130346   2.621   2.757   4.292 -0.6456 -0.5309 -0.6992
 2977TIP3    H230347   2.733   2.663   4.332 -0.1504  0.2244 -0.2590
 2978TIP3   OH230348   5.067   5.159   4.206  0.4777  0.0202 -0.3482
 2978TIP3    H130349   5.064   5.213   4.285  0.4207  1.2636 -1.1716
 2978TIP3    H230350   5.084   5.222   4.135  1.0952 -1.1348 -1.2577
 2979TIP3   OH230351   3.727   6.552   2.041 -0.0635  0.5719  0.3178
 2979TIP3    H130352   3.634   6.531   2.037 -0.1490  0.7378  1.2116
 2979TIP3    H230353   3.739   6.622   1.978 -0.5417  0.5377  0.1901
 2980TIP3   OH230354   6.069   2.204   4.526  0.0824  0.4001 -0.1061
 2980TIP3    H130355   6.101   2.124   4.569 -0.2424 -0.9347 -2.1899
 2980TIP3    H230356   6.036   2.258   4.598 -0.7042 -1.8259  1.3217
 2981TIP3   OH230357   2.856   2.282  10.736 -0.0237 -0.6223 -0.5331
 2981TIP3    H130358   2.878   2.286  10.642  0.3577 -2.6093 -0.5758
 2981TIP3    H230359   2.941   2.277  10.780 -0.2020  0.3047 -0.0738
 2982TIP3   OH230360   2.288   1.148  13.881  0.3515 -1.0501  0.5417
 2982TIP3    H130361   2.338   1.067  13.891  0.1587 -1.6451 -2.4716
 2982TIP3    H230362   2.206   1.120  13.840  0.3069  0.6541 -0.6017
 2983TIP3   OH230363   6.149   3.871   2.025 -0.0924 -0.0909  0.7037
 2983TIP3    H130364   6.055   3.886   2.037 -0.0690 -0.2502  1.1234
 2983TIP3    H230365   6.165   3.887   1.932 -0.4814  0.2218  0.6894
 2984TIP3   OH230366   3.386   1.777  13.920 -0.1642  0.4973 -0.1018
 2984TIP3    H130367   3.351   1.826  13.994 -0.2910  1.3753 -0.7382
 2984TIP3    H230368   3.477   1.805  13.914  0.0854 -0.2029  0.2288
 2985TIP3   OH230369   1.273   4.059   5.167 -0.0181 -0.0437  0.6579
 2985TIP3    H130370   1.343   4.022   5.113  0.3024  2.2504 -0.6358
 2985TIP3    H230371   1.315   4.082   5.249  0.1353 -1.0292  0.8639
 2986TIP3   OH230372   0.446   1.623  16.195 -0.3128 -0.3860 -0.1625
 2986TIP3    H130373   0.372   1.657  16.146 -0.8368 -0.8107  0.3228
 2986TIP3    H230374   0.408   1.557  16.254  0.4668 -0.7219 -0.0212
 2987TIP3   OH230375   3.888   5.213   3.763 -0.2873  0.1515 -0.1268
 2987TIP3    H130376   3.854   5.200   3.852 -0.7861  0.9195 -0.1929
 2987TIP3    H230377   3.826   5.168   3.706  0.8753 -1.7201 -0.0141
 2988TIP3   OH230378   2.453   6.586   4.537  0.0426  0.1822 -0.0650
 2988TIP3    H130379   2.529   6.635   4.567 -0.6022  1.1937 -0.0172
 2988TIP3    H230380   2.382   6.650   4.538 -1.6074 -1.4366  3.1089
 2989TIP3   OH230381   0.516   5.472  13.388 -0.1284  0.0171 -0.0857
 2989TIP3    H130382   0.481   5.548  13.342 -0.1717 -0.2761 -0.5470
 2989TIP3    H230383   0.444   5.439  13.441  0.1796  0.9008  0.9216
 2990TIP3   OH230384   0.141   3.272  14.484 -0.2486  0.4904 -0.8237
 2990TIP3    H130385   0.176   3.190  14.519  3.9397  2.4530  0.3068
 2990TIP3    H230386   0.157   3.266  14.389 -0.7856 -0.3052 -0.8710
 2991TIP3   OH230387   4.182   3.540  12.702  0.2247  0.2683 -0.5779
 2991TIP3    H130388   4.118   3.563  12.769 -0.9114 -1.6817 -0.9314
 2991TIP3    H230389   4.181   3.614  12.642 -1.1055  0.6236 -0.1415
 2992TIP3   OH230390   5.673   2.624  16.336 -0.0808 -0.5008  0.0529
 2992TIP3    H130391   5.626   2.683  16.277 -1.5770 -0.5660  1.1076
 2992TIP3    H230392   5.671   2.668  16.421  1.0992 -0.8805  0.2920
 2993TIP3   OH230393   5.464   6.024   5.516 -0.2071  0.3326  0.1853
 2993TIP3    H130394   5.547   5.993   5.553  0.6996  3.1227  0.7462
 2993TIP3    H230395   5.414   6.054   5.592 -0.5530  1.2288 -0.3853
 2994TIP3   OH230396   3.940   0.731  12.424 -0.0944  0.2473 -0.3527
 2994TIP3    H130397   4.026   0.743  12.385  0.1816 -0.2011  0.0984
 2994TIP3    H230398   3.940   0.789  12.500 -0.7878  1.4398 -1.2309
 2995TIP3   OH230399   3.120   2.190   0.233  0.5914 -0.0764  0.1473
 2995TIP3    H130400   3.208   2.163   0.260  0.3213 -1.2701 -0.0945
 2995TIP3    H230401   3.110   2.153   0.145  0.3260  1.1781 -0.3687
 2996TIP3   OH230402   5.850   4.178   5.864  0.2793 -0.2063 -0.2039
 2996TIP3    H130403   5.879   4.092   5.894  0.5316 -1.1240 -2.8575
 2996TIP3    H230404   5.930   4.230   5.861  0.8520 -1.1096 -2.3102
 2997TIP3   OH230405   4.011   0.585   4.083 -0.3900  0.2429  0.2346
 2997TIP3    H130406   4.083   0.593   4.145  1.2489  0.7935 -1.6092
 2997TIP3    H230407   3.967   0.670   4.087 -1.3004 -0.2754  1.7451
 2998TIP3   OH230408   5.824   3.358  12.968  0.9328  0.1019 -0.5235
 2998TIP3    H130409   5.787   3.271  12.984  0.9718 -0.2490 -2.1938
 2998TIP3    H230410   5.918   3.342  12.960  1.1660  0.5825  0.8640
 2999TIP3   OH230411   0.061   2.712   4.474  0.2489 -0.5476  0.1431
 2999TIP3    H130412   0.049   2.700   4.380  0.5376  0.7298 -0.0750
 2999TIP3    H230413   0.110   2.794   4.482  1.0929 -1.1436  1.3733
 3000TIP3   OH230414   0.843   1.176  13.581 -0.6065 -0.4498  0.0934
 3000TIP3    H130415   0.795   1.259  13.578 -0.6633 -0.4307  1.0683
 3000TIP3    H230416   0.803   1.128  13.653  0.7324 -0.4859  0.8430
 3001TIP3   OH230417   0.213   1.917   2.518 -0.1796 -0.1494 -0.3632
 3001TIP3    H130418   0.129   1.899   2.476  0.3124 -0.2189 -1.3219
 3001TIP3    H230419   0.194   1.907   2.612 -1.2316 -0.1935 -0.5609
 3002TIP3   OH230420   3.377   4.656   0.768  0.2659 -0.3744 -0.1254
 3002TIP3    H130421   3.384   4.570   0.810 -1.8491 -0.6126 -0.1538
 3002TIP3    H230422   3.287   4.660   0.734  0.1029  2.0545  0.3536
 3003TIP3   OH230423   2.469   4.933   4.713  0.8076 -0.2907  0.1908
 3003TIP3    H130424   2.470   5.027   4.732 -1.0211  0.6160 -3.4206
 3003TIP3    H230425   2.380   4.905   4.735  0.7151 -0.6900 -0.6662
 3004TIP3   OH230426   4.046   3.884   3.979 -0.0808 -0.7687  0.2113
 3004TIP3    H130427   4.017   3.929   4.059  1.1207 -0.8925  0.7333
 3004TIP3    H230428   4.139   3.902   3.974 -0.1763 -0.5774 -1.3100
 3005TIP3   OH230429   3.520   3.323  14.518  0.1865 -0.1185  0.6443
 3005TIP3    H130430   3.537   3.363  14.432  1.3289  0.0214  0.9148
 3005TIP3    H230431   3.483   3.237  14.497 -0.2121  0.1976  0.0209
 3006TIP3   OH230432   5.034   1.124   1.834 -0.1499 -0.2978  0.1477
 3006TIP3    H130433   5.027   1.135   1.929 -2.4033  0.2162 -0.0392
 3006TIP3    H230434   5.129   1.122   1.817  0.3549 -2.4001  2.6006
 3007TIP3   OH230435   1.855   4.619   2.243 -0.6719 -0.4371  0.2749
 3007TIP3    H130436   1.877   4.706   2.211 -0.5951 -0.8690 -0.8855
 3007TIP3    H230437   1.887   4.618   2.333  0.1252  0.4354  0.0188
 3008TIP3   OH230438   4.609   6.183  16.764 -0.4611 -0.6028  0.1342
 3008TIP3    H130439   4.651   6.219  16.843 -0.4574 -0.7722  0.2096
 3008TIP3    H230440   4.646   6.095  16.756  0.3217 -0.2175 -0.6414
 3009TIP3   OH230441   5.664   4.181  13.137  0.3612  0.5593 -0.2744
 3009TIP3    H130442   5.581   4.185  13.091  0.3885 -0.9909 -0.5085
 3009TIP3    H230443   5.641   4.158  13.227  0.5596 -0.5196 -0.4885
 3010TIP3   OH230444   3.858   1.035  15.260 -0.1149 -0.1111  0.5705
 3010TIP3    H130445   3.934   1.071  15.215 -0.8730  1.3067  0.3558
 3010TIP3    H230446   3.793   1.106  15.257 -1.5438 -1.3659  0.4768
 3011TIP3   OH230447   0.186   6.791  15.450 -0.0113 -0.6123 -0.2843
 3011TIP3    H130448   0.172   6.697  15.440  0.1852 -0.6613 -0.1011
 3011TIP3    H230449   0.234   6.799  15.533  1.3782 -0.4658 -1.0802
 3012TIP3   OH230450   6.167   6.539   4.937 -0.2144 -0.0072 -0.5203
 3012TIP3    H130451   6.248   6.563   4.892  0.5699  0.6496  1.1844
 3012TIP3    H230452   6.195   6.487   5.012 -1.6486 -3.2819 -2.0390
 3013TIP3   OH230453   1.219   0.597  16.868  0.3677  0.0542  0.4553
 3013TIP3    H130454   1.201   0.550  16.950  1.0568  0.8719  1.0933
 3013TIP3    H230455   1.141   0.582  16.815 -0.9892  1.1722  2.0322
 3014TIP3   OH230456   0.401   0.344   3.508 -0.2264 -0.3792  0.0331
 3014TIP3    H130457   0.429   0.424   3.464  1.2961  0.7033  2.7227
 3014TIP3    H230458   0.325   0.371   3.560 -0.9385 -1.2024 -0.5546
 3015TIP3   OH230459   6.791   3.942   2.884  0.1274  0.6817  0.6706
 3015TIP3    H130460   6.806   3.852   2.914 -2.3630 -0.2461 -0.6342
 3015TIP3    H230461   6.878   3.972   2.856  0.6354 -2.3731 -1.5556
 3016TIP3   OH230462   1.374   0.396  11.923 -0.3151  0.1314  0.1502
 3016TIP3    H130463   1.459   0.394  11.967  2.0476  0.2891 -3.9327
 3016TIP3    H230464   1.326   0.323  11.961  2.6715 -1.6219  0.8846
 3017TIP3   OH230465   4.311   3.276  11.028 -0.2855  0.7091 -0.0961
 3017TIP3    H130466   4.338   3.351  10.975  2.4112  0.5685  0.9091
 3017TIP3    H230467   4.329   3.302  11.118 -1.2540 -0.4047  0.4407
 3018TIP3   OH230468   5.228   4.360  12.026  0.0594  0.7101  0.0262
 3018TIP3    H130469   5.319   4.388  12.037  0.2728 -0.3018  1.0743
 3018TIP3    H230470   5.234   4.264  12.016 -0.9367  0.5315  0.9775
 3019TIP3   OH230471   5.821   5.592   1.127 -0.0618  0.1258 -0.3522
 3019TIP3    H130472   5.843   5.677   1.091  0.8764 -1.0708 -2.7791
 3019TIP3    H230473   5.905   5.547   1.136 -0.7672 -1.7479 -2.4065
 3020TIP3   OH230474   5.505   0.511  12.230 -0.1729  0.0632 -0.1650
 3020TIP3    H130475   5.510   0.503  12.325 -0.0499 -2.7484 -0.3290
 3020TIP3    H230476   5.414   0.490  12.209  0.1469 -0.8536 -0.7206
 3021TIP3   OH230477   5.481   1.808   2.331 -0.0298  0.3622 -0.6305
 3021TIP3    H130478   5.519   1.769   2.409 -1.3533  0.6860  0.2106
 3021TIP3    H230479   5.487   1.903   2.347 -0.5121  0.4251 -0.8073
 3022TIP3   OH230480   3.912   6.210  16.483 -0.1559  0.5351  0.0010
 3022TIP3    H130481   3.936   6.250  16.399 -0.8565  0.7731 -0.0946
 3022TIP3    H230482   3.905   6.284  16.544  0.5399  0.3449  0.3255
 3023TIP3   OH230483   6.066   5.946   5.703  0.2835 -0.0367  0.6452
 3023TIP3    H130484   6.097   6.021   5.652 -0.5070 -0.6344 -0.7800
 3023TIP3    H230485   6.060   5.979   5.793  0.9130  1.3061  0.2255
 3024TIP3   OH230486   5.528   3.983  13.638 -0.1187 -0.1410 -0.0676
 3024TIP3    H130487   5.432   3.977  13.639 -0.2285  1.2777 -0.9059
 3024TIP3    H230488   5.553   3.969  13.730 -1.0351 -1.5027  0.0160
 3025TIP3   OH230489   0.158   0.279   3.085 -1.1550 -0.3483  0.6609
 3025TIP3    H130490   0.116   0.210   3.035 -2.5307  1.8277 -1.4049
 3025TIP3    H230491   0.157   0.247   3.175 -0.1564 -3.6768 -0.3507
 3026TIP3   OH230492   2.174   2.320  11.858 -0.4124 -0.5126 -0.9048
 3026TIP3    H130493   2.186   2.404  11.814  0.5290  0.4036  0.9678
 3026TIP3    H230494   2.225   2.258  11.806  0.0514  0.3562 -1.5150
 3027TIP3   OH230495   2.585   3.373  10.869  0.7156 -0.3249  0.2381
 3027TIP3    H130496   2.678   3.371  10.845  0.0302 -1.1052 -2.8708
 3027TIP3    H230497   2.564   3.284  10.896  0.4182 -0.8339 -1.5045
 3028TIP3   OH230498   3.606   0.100  16.861 -0.4493 -0.2709 -0.9006
 3028TIP3    H130499   3.614   0.094  16.766 -0.8795  1.8513 -1.1245
 3028TIP3    H230500   3.668   0.035  16.895 -1.3864 -2.1332 -2.5984
 3029TIP3   OH230501   2.776   0.457  17.009 -0.8660  0.1654 -0.3053
 3029TIP3    H130502   2.703   0.397  17.023 -0.3629 -0.4205 -0.1485
 3029TIP3    H230503   2.800   0.445  16.918  0.3703 -1.1948  0.1659
 3030TIP3   OH230504   3.668   5.118   1.929 -0.3882 -0.8829 -0.1496
 3030TIP3    H130505   3.642   5.026   1.937 -0.2715 -1.0247 -1.2026
 3030TIP3    H230506   3.589   5.162   1.898 -0.5617 -0.5410  0.7398
 3031TIP3   OH230507   5.091   5.691   0.490  0.1479  0.3233 -0.1609
 3031TIP3    H130508   5.021   5.752   0.467 -0.7236 -1.2928 -2.1692
 3031TIP3    H230509   5.136   5.732   0.563 -1.3506  2.5977 -0.4192
 3032TIP3   OH230510   3.491   0.686   0.612  0.2719  0.3459 -0.3859
 3032TIP3    H130511   3.443   0.743   0.671  0.1858 -0.9007  0.7801
 3032TIP3    H230512   3.516   0.743   0.539 -1.3787  1.4318 -0.1456
 3033TIP3   OH230513   3.514   4.388   2.000 -1.0493 -0.7522 -0.0732
 3033TIP3    H130514   3.562   4.305   1.992  0.6565  0.1366  0.2928
 3033TIP3    H230515   3.509   4.422   1.910  2.8015  1.0741  0.1920
 3034TIP3   OH230516   5.792   0.900  15.971 -0.0619 -0.5038 -0.3356
 3034TIP3    H130517   5.732   0.854  15.912  1.6042 -2.3759 -0.6844
 3034TIP3    H230518   5.877   0.893  15.928  0.5926  1.3849  0.5258
 3035TIP3   OH230519   1.904   1.616   2.465  0.2410 -0.2453 -0.1842
 3035TIP3    H130520   1.897   1.689   2.526  0.8313 -1.5509  1.5315
 3035TIP3    H230521   1.973   1.561   2.501 -0.6129 -1.9743 -1.0461
 3036TIP3   OH230522   0.095   4.023  15.874 -0.0128  0.3631  0.1429
 3036TIP3    H130523   0.146   3.954  15.832 -0.8035 -0.3929  0.4137
 3036TIP3    H230524   0.128   4.027  15.963 -1.1114 -0.8463  0.6289
 3037TIP3   OH230525   5.811   6.401  14.734  0.1801 -0.4424 -0.1018
 3037TIP3    H130526   5.752   6.360  14.671  0.3692 -3.7979  1.6876
 3037TIP3    H230527   5.896   6.402  14.690 -0.4476  1.3164 -1.4186
 3038TIP3   OH230528   5.605   0.012   4.099 -0.9363 -0.0728  0.3941
 3038TIP3    H130529   5.527  -0.042   4.112 -0.1100 -1.7121 -1.0336
 3038TIP3    H230530   5.608   0.026   4.004  1.1504 -1.1246  0.2490
 3039TIP3   OH230531   5.168   1.350  12.690  0.0484 -0.4542 -0.2176
 3039TIP3    H130532   5.113   1.293  12.636  0.6017 -1.4450  0.2477
 3039TIP3    H230533   5.178   1.429  12.637 -0.7496 -0.7675 -0.8652
 3040TIP3   OH230534   0.237   1.245  12.764  0.2313  0.4090 -0.0265
 3040TIP3    H130535   0.156   1.197  12.749  0.1271  0.8109 -0.8306
 3040TIP3    H230536   0.297   1.213  12.697  0.4853  0.6645  0.0739
 3041TIP3   OH230537   2.298   1.777   0.667  0.5113 -0.1044  0.4355
 3041TIP3    H130538   2.279   1.784   0.574  0.8831  2.3460  0.4930
 3041TIP3    H230539   2.383   1.734   0.672  0.3700 -0.4774 -0.3275
 3042TIP3   OH230540   4.168   2.217  16.451  0.5413  0.2535 -0.0523
 3042TIP3    H130541   4.155   2.309  16.430 -1.1212  0.4147  1.4475
 3042TIP3    H230542   4.263   2.208  16.461  0.7576  1.7029 -0.6110
 3043TIP3   OH230543   3.228   0.922   4.056 -0.0837 -0.7747 -0.2191
 3043TIP3    H130544   3.322   0.904   4.055 -0.1791 -1.3118  0.2070
 3043TIP3    H230545   3.196   0.890   3.972  0.4391  1.2793 -1.2788
 3044TIP3   OH230546   4.844   6.087   2.786  0.0214  0.4364 -0.0533
 3044TIP3    H130547   4.869   6.124   2.701  0.6341  0.8655  0.3049
 3044TIP3    H230548   4.874   6.152   2.850  3.7667 -1.8591  0.8486
 3045TIP3   OH230549   5.653   2.505  13.509 -0.7932 -0.2708  0.5484
 3045TIP3    H130550   5.559   2.519  13.521 -0.7796  0.1268  0.2096
 3045TIP3    H230551   5.661   2.473  13.419 -0.6560 -0.8391  0.7616
 3046TIP3   OH230552   6.419   6.242   2.301 -0.1398 -0.3260  0.0623
 3046TIP3    H130553   6.474   6.221   2.226 -0.7028 -2.6112  0.2129
 3046TIP3    H230554   6.331   6.252   2.265  0.0259  1.4745  0.0716
 3047TIP3   OH230555   6.653   0.445  15.834 -0.3027 -0.3115  0.1730
 3047TIP3    H130556   6.741   0.430  15.799 -0.3924 -3.1276  0.8855
 3047TIP3    H230557   6.611   0.504  15.771  1.9101  0.7114 -0.4253
 3048TIP3   OH230558   5.691   3.537  16.431 -0.1973  0.3470 -0.5333
 3048TIP3    H130559   5.773   3.488  16.432 -0.3747 -0.0054  1.9346
 3048TIP3    H230560   5.711   3.618  16.478 -0.7927  1.1839 -1.6538
 3049TIP3   OH230561   1.861   3.359   0.192  0.2928 -0.0996  0.0645
 3049TIP3    H130562   1.842   3.266   0.177 -1.9641  0.0999  1.2496
 3049TIP3    H230563   1.953   3.369   0.168  0.5165 -2.5795 -0.3594
 3050TIP3   OH230564   0.520   5.418  12.740 -0.0031 -0.0871  0.0039
 3050TIP3    H130565   0.534   5.369  12.659 -2.4053 -0.7473 -0.0845
 3050TIP3    H230566   0.492   5.505  12.711  0.6844  0.1836  0.1442
 3051TIP3   OH230567   2.416   3.908   5.985  0.6192 -0.7072  0.2549
 3051TIP3    H130568   2.493   3.898   5.929  0.0682 -0.9032 -0.4828
 3051TIP3    H230569   2.418   3.833   6.044  2.0629  0.3079  1.5911
 3052TIP3   OH230570   2.704   1.639   3.247 -0.9491  0.6285  0.0610
 3052TIP3    H130571   2.778   1.644   3.307 -0.2406 -0.0516 -0.7350
 3052TIP3    H230572   2.744   1.624   3.161 -2.0489 -0.6323 -0.2532
 3053TIP3   OH230573   6.522   1.456  16.892  0.1165 -0.4916 -0.2758
 3053TIP3    H130574   6.587   1.499  16.835  0.8042 -1.4116 -0.2022
 3053TIP3    H230575   6.457   1.420  16.831 -0.7678  1.0769 -0.3168
 3054TIP3   OH230576   2.604   5.155  12.432  0.1554  0.3640  0.7411
 3054TIP3    H130577   2.672   5.153  12.364  0.3258 -0.1410  0.9211
 3054TIP3    H230578   2.529   5.112  12.392  1.0983 -2.4852  1.7345
 3055TIP3   OH230579   0.205   4.655  14.476  0.8074 -0.0275 -0.2356
 3055TIP3    H130580   0.256   4.732  14.453  0.5839 -0.2219 -1.4384
 3055TIP3    H230581   0.246   4.584  14.427 -0.3170 -0.2689 -0.8518
 3056TIP3   OH230582   3.047   6.202   4.578  0.0869 -0.0391  0.1198
 3056TIP3    H130583   3.028   6.264   4.508  0.6237  2.4182  2.0122
 3056TIP3    H230584   2.991   6.126   4.560 -0.0666  0.6445 -2.6845
 3057TIP3   OH230585   1.784   2.495   6.324  0.2954  0.0441  0.1585
 3057TIP3    H130586   1.851   2.549   6.366 -0.7695  1.3746  0.2120
 3057TIP3    H230587   1.704   2.547   6.331 -0.7312 -1.4707  0.0273
 3058TIP3   OH230588   1.972   6.292   1.541  0.1982 -0.6884 -0.3356
 3058TIP3    H130589   1.976   6.306   1.636  0.5385  3.1621 -0.7783
 3058TIP3    H230590   1.892   6.335   1.513  1.2843  0.3615 -2.0328
 3059TIP3   OH230591   5.948   2.678  14.863  0.2378 -0.2561  0.0016
 3059TIP3    H130592   5.982   2.764  14.838  0.3543 -0.0627  0.8007
 3059TIP3    H230593   5.982   2.618  14.796  1.4333  0.0680  0.3071
 3060TIP3   OH230594   0.027   1.930  16.856 -0.5146 -0.0034 -0.5181
 3060TIP3    H130595   0.116   1.897  16.843  0.2727  1.7374  0.0158
 3060TIP3    H230596  -0.007   1.880  16.930  0.5072  0.1530  0.0732
 3061TIP3   OH230597   3.936   1.123   3.888  0.2238  0.2856  1.2186
 3061TIP3    H130598   3.845   1.136   3.916  0.0301  0.0823  0.7190
 3061TIP3    H230599   3.936   1.150   3.796 -0.0489 -2.4236  0.3337
 3062TIP3   OH230600   3.962   4.803   5.247 -0.0025 -0.3219 -0.7507
 3062TIP3    H130601   3.888   4.743   5.253 -1.6489  1.6759  0.3039
 3062TIP3    H230602   3.936   4.879   5.299  2.1107  1.1770 -1.7097
 3063TIP3   OH230603   6.423   6.813   3.281 -0.0775  0.2684  0.8575
 3063TIP3    H130604   6.380   6.861   3.352 -1.2492 -1.2175  1.2178
 3063TIP3    H230605   6.474   6.746   3.326 -1.0148 -0.8395  0.3269
 3064TIP3   OH230606   5.015   2.679   3.876 -0.1148 -0.5849  0.0510
 3064TIP3    H130607   4.992   2.755   3.822  0.6440  0.2251  0.8421
 3064TIP3    H230608   5.107   2.663   3.856 -0.0795 -0.8522  0.4272
 3065TIP3   OH230609   4.112   0.252  13.143 -0.4263 -0.2774 -0.0152
 3065TIP3    H130610   4.196   0.293  13.164 -1.6271  2.2768  0.1036
 3065TIP3    H230611   4.084   0.293  13.061 -1.5212 -1.1273 -0.0928
 3066TIP3   OH230612   1.961   4.976  16.271  0.0869  0.4749  0.5251
 3066TIP3    H130613   2.056   4.984  16.281  0.3682 -1.3338 -0.2845
 3066TIP3    H230614   1.947   4.978  16.176 -0.5005 -0.8964  0.5739
 3067TIP3   OH230615   2.389   5.124   1.264 -0.2811 -0.1795 -0.1702
 3067TIP3    H130616   2.376   5.030   1.251  1.2330 -0.2601 -1.4241
 3067TIP3    H230617   2.354   5.165   1.184  0.2638  0.1818 -0.2357
 3068TIP3   OH230618   2.702   3.154   5.525  0.1981 -0.1305  0.8746
 3068TIP3    H130619   2.738   3.094   5.460 -1.0901 -1.9122  1.7275
 3068TIP3    H230620   2.773   3.168   5.587  0.2859 -1.4214  1.0866
 3069TIP3   OH230621   0.745   6.111   2.377 -0.1553 -0.2948 -0.5131
 3069TIP3    H130622   0.799   6.152   2.445 -2.5585  1.1818  0.6432
 3069TIP3    H230623   0.803   6.105   2.301  1.1925  2.8043  0.0986
 3070TIP3   OH230624   4.378   0.485   0.571 -0.1170  0.6337  0.0793
 3070TIP3    H130625   4.459   0.440   0.548 -0.7830 -0.8543  0.4989
 3070TIP3    H230626   4.355   0.536   0.493  0.2220 -0.4366 -0.7336
 3071TIP3   OH230627   1.955   1.060  14.263 -0.3681  0.0040  0.0741
 3071TIP3    H130628   2.001   1.094  14.340  0.7063  1.0198 -0.9744
 3071TIP3    H230629   1.956   1.133  14.201 -1.0827 -0.8435 -0.9651
 3072TIP3   OH230630   6.029   4.724   1.043  0.2942 -0.0929  0.1492
 3072TIP3    H130631   6.065   4.636   1.054  0.4021 -0.2208 -1.1515
 3072TIP3    H230632   6.050   4.748   0.953 -1.4730  0.4724 -0.1550
 3073TIP3   OH230633   1.557   4.470   1.083 -0.2126 -0.0576  0.0803
 3073TIP3    H130634   1.505   4.391   1.068  1.4554 -1.1017 -0.4932
 3073TIP3    H230635   1.527   4.502   1.168 -3.4217  0.7740 -1.1995
 3074TIP3   OH230636   0.046   0.475  16.569  0.0980 -0.6970 -0.2318
 3074TIP3    H130637   0.023   0.564  16.597  0.0025 -0.5330 -0.8132
 3074TIP3    H230638   0.057   0.426  16.651 -0.9226 -0.4212  0.0805
 3075TIP3   OH230639   5.271   3.953  16.716 -0.5764 -0.2715  0.0112
 3075TIP3    H130640   5.323   3.887  16.761 -0.1080 -0.4550 -0.7745
 3075TIP3    H230641   5.335   4.016  16.683 -1.0058  0.4795  0.5854
 3076TIP3   OH230642   5.281   3.442  12.590  0.2484  0.0693  0.4874
 3076TIP3    H130643   5.266   3.369  12.651 -2.3404  0.0139 -0.1106
 3076TIP3    H230644   5.330   3.506  12.641  1.3298 -1.4437  1.4650
 3077TIP3   OH230645   0.126   5.014  15.497 -0.1310  0.5665 -0.1314
 3077TIP3    H130646   0.214   4.977  15.506 -0.3448 -0.5492 -2.0471
 3077TIP3    H230647   0.069   4.953  15.543 -0.3295 -0.9215 -2.2315
 3078TIP3   OH230648   1.665   5.417  14.614  0.4128 -0.4182 -0.4863
 3078TIP3    H130649   1.615   5.393  14.692  0.2047 -1.4211 -0.9142
 3078TIP3    H230650   1.755   5.423  14.644  0.0884  1.2210  0.2512
 3079TIP3   OH230651   6.416   6.788   4.797  0.2654 -0.4313  0.3799
 3079TIP3    H130652   6.419   6.702   4.840  3.0294 -0.8886 -0.5568
 3079TIP3    H230653   6.458   6.848   4.858 -0.2868 -0.0327  0.3807
 3080TIP3   OH230654   1.312   3.165  12.491  0.1051  0.4089 -0.1545
 3080TIP3    H130655   1.220   3.192  12.492  0.2560  0.9407  0.8736
 3080TIP3    H230656   1.314   3.091  12.432 -1.0088  0.3304 -0.1245
 3081TIP3   OH230657   6.206   4.154   3.814 -0.2237  0.3048  0.4727
 3081TIP3    H130658   6.223   4.126   3.903 -1.9798 -1.2838  0.3580
 3081TIP3    H230659   6.274   4.112   3.761  0.9022  1.3607  1.0239
 3082TIP3   OH230660   5.486   4.376   0.643  0.1845  0.6140 -0.6960
 3082TIP3    H130661   5.578   4.364   0.666  0.4432  2.2268 -0.7510
 3082TIP3    H230662   5.442   4.297   0.676  1.9884 -1.7657 -3.4573
 3083TIP3   OH230663   6.183   3.472   0.705  0.5711 -0.1665  0.2794
 3083TIP3    H130664   6.275   3.447   0.696  0.9119  1.3380 -0.8307
 3083TIP3    H230665   6.186   3.564   0.733 -0.5934  0.0163 -0.1647
 3084TIP3   OH230666   5.005   6.710   2.904  0.6165  0.0018 -0.9205
 3084TIP3    H130667   4.938   6.710   2.973 -0.6480  0.8027 -2.0807
 3084TIP3    H230668   5.063   6.638   2.926  0.7201  0.7117  1.3992
 3085TIP3   OH230669   5.858   6.807   2.443  0.2103  0.1367 -0.2351
 3085TIP3    H130670   5.819   6.828   2.527  2.5336 -0.3673  1.0475
 3085TIP3    H230671   5.898   6.889   2.414 -0.1592  0.1843 -0.6215
 3086TIP3   OH230672   6.621   0.677   5.647  0.3303  0.1946 -0.4070
 3086TIP3    H130673   6.638   0.659   5.554 -2.5882  0.2117 -1.0446
 3086TIP3    H230674   6.531   0.708   5.649  0.4515  0.6112  2.4208
 3087TIP3   OH230675   5.087   5.141   3.081 -0.0878  0.4886  0.1668
 3087TIP3    H130676   5.098   5.217   3.139 -0.5796  1.1082 -0.5248
 3087TIP3    H230677   4.999   5.110   3.100 -0.1068  0.4566  0.0236
 3088TIP3   OH230678   1.742   1.150   4.802 -0.3689 -0.2594  0.3688
 3088TIP3    H130679   1.767   1.233   4.842  0.1199 -0.1895 -0.0716
 3088TIP3    H230680   1.754   1.085   4.872 -0.2387 -0.0317  0.5573
 3089TIP3   OH230681   1.527   6.107   2.255  0.1246 -0.2279 -0.2413
 3089TIP3    H130682   1.510   6.091   2.162 -0.9586  0.5836 -0.2025
 3089TIP3    H230683   1.586   6.183   2.256 -0.5796  0.3266 -0.2534
 3090TIP3   OH230684   1.173   4.421  12.147 -0.5016  0.1769 -0.1211
 3090TIP3    H130685   1.196   4.498  12.095  2.4022  0.8153  1.8626
 3090TIP3    H230686   1.250   4.404  12.199 -1.8148 -2.8952  1.0325
 3091TIP3   OH230687   4.399   3.904  13.581 -0.4845  0.6473  0.5184
 3091TIP3    H130688   4.461   3.976  13.575 -0.6034  0.6615 -0.8277
 3091TIP3    H230689   4.313   3.944  13.566 -0.3733 -0.0228 -2.6642
 3092TIP3   OH230690   3.569   6.311  11.843 -0.3087 -0.4479 -0.0281
 3092TIP3    H130691   3.599   6.381  11.785 -0.6158  0.1531  0.5298
 3092TIP3    H230692   3.474   6.309  11.831 -0.8297  1.7820  2.6801
 3093TIP3   OH230693   5.936   3.770   4.530 -0.0612  0.4741  0.5182
 3093TIP3    H130694   5.884   3.772   4.450  0.6226  1.0268  0.0772
 3093TIP3    H230695   5.886   3.825   4.592  0.0418  1.1004  0.0612
 3094TIP3   OH230696   2.262   3.880  14.605  0.4151 -0.3854  0.1935
 3094TIP3    H130697   2.170   3.854  14.590 -0.0397 -1.1516  3.5091
 3094TIP3    H230698   2.256   3.954  14.666  2.0286  0.5854 -0.7639
 3095TIP3   OH230699   4.353   6.560   3.414  0.5095 -0.4751 -0.1626
 3095TIP3    H130700   4.259   6.576   3.423  0.6678 -0.0754  0.9709
 3095TIP3    H230701   4.392   6.610   3.485  1.6366 -0.1780 -0.9656
 3096TIP3   OH230702   5.173   0.933  15.828 -0.4682  0.1328 -0.5560
 3096TIP3    H130703   5.225   0.916  15.906 -1.9459 -0.0826  0.4168
 3096TIP3    H230704   5.227   0.992  15.775 -0.4188  2.3066  1.7500
 3097TIP3   OH230705   1.912   5.546   4.914 -0.1267 -0.6486  0.0829
 3097TIP3    H130706   1.873   5.523   4.830 -0.3129 -2.8931  0.7292
 3097TIP3    H230707   1.961   5.468   4.940  1.0260  0.4791  1.4445
 3098TIP3   OH230708   1.766   2.392   3.844 -0.2242  0.4547 -0.1203
 3098TIP3    H130709   1.737   2.464   3.789 -1.0419 -0.4413 -0.9126
 3098TIP3    H230710   1.862   2.393   3.838 -0.1066  2.3846  1.1220
 3099TIP3   OH230711   1.974   4.355  14.040  0.9196 -0.2217  0.3632
 3099TIP3    H130712   1.951   4.405  14.118  0.1394 -0.3195  0.1971
 3099TIP3    H230713   1.900   4.367  13.980  2.2548  1.3036 -1.0792
 3100TIP3   OH230714   0.820   6.078   5.518 -0.4012 -0.1485 -0.0420
 3100TIP3    H130715   0.877   6.004   5.541  0.6964  0.2533 -1.3272
 3100TIP3    H230716   0.845   6.099   5.427 -1.4160  1.1407 -0.0398
 3101TIP3   OH230717   0.130   1.210  13.274  0.2150  0.1883 -0.0009
 3101TIP3    H130718   0.081   1.137  13.237 -0.2863  0.7408 -0.4585
 3101TIP3    H230719   0.205   1.170  13.318 -0.7020 -0.6839  0.8023
 3102TIP3   OH230720   2.908   4.702  14.929 -0.1988 -0.4438 -0.6523
 3102TIP3    H130721   2.816   4.724  14.943  0.2288  1.7889 -1.0407
 3102TIP3    H230722   2.908   4.607  14.919 -2.5473 -0.4463 -1.2809
 3103TIP3   OH230723   1.342   1.267   6.093 -0.3988  0.1938  0.0158
 3103TIP3    H130724   1.427   1.230   6.066  0.5979  2.2754  0.0734
 3103TIP3    H230725   1.277   1.211   6.052  1.0337  0.4103 -2.8038
 3104TIP3   OH230726   4.657   3.384  15.866  0.2830  0.0958  0.0493
 3104TIP3    H130727   4.663   3.354  15.775  1.2031 -1.0961  0.4758
 3104TIP3    H230728   4.724   3.334  15.912  0.6105  1.5029  1.1842
 3105TIP3   OH230729   2.211   4.956   4.849 -0.3187  0.0384  0.0380
 3105TIP3    H130730   2.135   4.997   4.805  0.2144  0.6261 -0.3628
 3105TIP3    H230731   2.173   4.892   4.909 -1.0820 -1.0908 -1.5711
 3106TIP3   OH230732   2.797   3.905   1.314  0.3764  0.3695  0.2228
 3106TIP3    H130733   2.884   3.867   1.329  0.8102  1.8385  1.8174
 3106TIP3    H230734   2.736   3.840   1.350  0.9222  0.0440  0.5727
 3107TIP3   OH230735   5.235   5.773   5.541  0.1764 -0.7384 -0.1280
 3107TIP3    H130736   5.209   5.844   5.601  0.7426  0.1206 -0.8685
 3107TIP3    H230737   5.325   5.796   5.516  1.0058 -2.6327  0.9201
 3108TIP3   OH230738   6.812   4.496  10.821  0.3591  0.3502  0.5240
 3108TIP3    H130739   6.856   4.565  10.870 -0.6149  0.7480  0.8590
 3108TIP3    H230740   6.746   4.462  10.882  0.2484 -0.2825  0.0571
 3109TIP3   OH230741   2.835   2.721   5.891 -0.1666 -0.1433  0.1154
 3109TIP3    H130742   2.865   2.770   5.968 -0.5841 -1.5048  1.2004
 3109TIP3    H230743   2.770   2.660   5.926 -2.2420  0.8754 -1.7129
 3110TIP3   OH230744   4.256   0.201  13.650 -0.2686  0.2218  0.4723
 3110TIP3    H130745   4.225   0.168  13.734  0.0799  0.1843  0.5871
 3110TIP3    H230746   4.221   0.140  13.585 -0.2424  0.0464  0.6224
 3111TIP3   OH230747   3.227   3.990   2.990  0.0704  0.1364  0.2291
 3111TIP3    H130748   3.243   4.084   2.989  0.8078  0.0182 -0.0760
 3111TIP3    H230749   3.178   3.973   2.910  0.6267  0.1599 -0.1253
 3112TIP3   OH230750   6.338   4.036  16.857  0.3137 -0.5712 -0.4040
 3112TIP3    H130751   6.311   3.964  16.914  1.0493 -0.1433  0.5079
 3112TIP3    H230752   6.432   4.024  16.846  0.7448  1.1063  1.0470
 3113TIP3   OH230753   2.057   2.547  13.925 -0.4986  0.4343 -0.1179
 3113TIP3    H130754   1.961   2.547  13.925 -0.6247 -2.5183 -1.6671
 3113TIP3    H230755   2.080   2.518  13.837  1.7012 -1.7925  1.0822
 3114TIP3   OH230756   6.551   4.397   6.492  0.1128  0.0952  0.4194
 3114TIP3    H130757   6.596   4.479   6.513 -1.4229  0.8293  1.0567
 3114TIP3    H230758   6.599   4.361   6.417 -0.3473  2.6464 -1.2446
 3115TIP3   OH230759   1.881   4.302   2.972 -0.0191  0.5030 -0.6594
 3115TIP3    H130760   1.797   4.320   3.014  1.1776  1.7252  1.3730
 3115TIP3    H230761   1.886   4.364   2.900 -1.0724  0.0175 -1.1765
 3116TIP3   OH230762   4.033   0.151   5.249  0.2380  0.1346  0.1065
 3116TIP3    H130763   4.047   0.226   5.192  0.7338  0.2099  0.3213
 3116TIP3    H230764   4.121   0.115   5.263  0.0790 -0.0988  0.5248
 3117TIP3   OH230765   1.746   5.084   3.962  0.0701  0.3132  0.6489
 3117TIP3    H130766   1.739   4.996   3.999  1.5547 -0.6451 -1.1571
 3117TIP3    H230767   1.677   5.086   3.895 -1.3362  1.3354  2.0599
 3118TIP3   OH230768   1.162   4.526   2.058  0.2206  0.2793 -0.1010
 3118TIP3    H130769   1.242   4.496   2.014  0.2737  0.2034  0.0479
 3118TIP3    H230770   1.145   4.612   2.019 -1.3322 -0.9263 -2.3603
 3119TIP3   OH230771   5.339   0.306   4.974 -0.1907 -0.7342  0.1136
 3119TIP3    H130772   5.290   0.275   4.897 -0.3295  0.0886 -0.1336
 3119TIP3    H230773   5.282   0.370   5.015  0.6642  0.2631 -0.1969
 3120TIP3   OH230774   1.615   5.363   5.956  0.1395 -0.2970  0.0056
 3120TIP3    H130775   1.588   5.438   6.009  0.7940  1.1667 -1.6587
 3120TIP3    H230776   1.709   5.355   5.971 -0.0890 -1.5152  1.0040
 3121TIP3   OH230777   6.677   1.603  12.146  0.0798 -0.1209  0.0500
 3121TIP3    H130778   6.651   1.613  12.238 -1.2480  0.5729 -0.3734
 3121TIP3    H230779   6.690   1.509  12.135 -0.1195 -0.2549  0.8596
 3122TIP3   OH230780   0.762   3.879   3.133  0.1742 -0.4157 -0.3605
 3122TIP3    H130781   0.834   3.932   3.169 -1.0131  1.2554 -0.3095
 3122TIP3    H230782   0.692   3.888   3.198 -0.8757 -0.0467 -1.5122
 3123TIP3   OH230783   1.418   1.585   5.867 -0.4714 -0.2289 -0.7382
 3123TIP3    H130784   1.469   1.664   5.849  1.6549 -1.9879 -3.2789
 3123TIP3    H230785   1.436   1.564   5.959  0.7331  1.0274 -0.6662
 3124TIP3   OH230786   2.565   2.754  11.877 -0.9023  0.2692 -0.4947
 3124TIP3    H130787   2.571   2.847  11.855 -0.9509 -0.0727 -2.0559
 3124TIP3    H230788   2.483   2.725  11.837 -0.9609 -0.4165  0.1051
 3125TIP3   OH230789   0.820   4.949  15.521 -0.0032 -0.3774 -0.1924
 3125TIP3    H130790   0.891   5.010  15.544  0.8254 -1.0507 -0.8850
 3125TIP3    H230791   0.744   4.982  15.568  1.2629 -0.9040  2.4388
 3126TIP3   OH230792   3.697   6.372  11.256  0.2769  0.3978 -0.0053
 3126TIP3    H130793   3.777   6.379  11.204  0.8199 -0.6893  0.6448
 3126TIP3    H230794   3.629   6.413  11.203  0.8680 -0.4576 -1.4629
 3127TIP3   OH230795   1.271   1.833  16.405  0.0229  0.3700 -0.0607
 3127TIP3    H130796   1.198   1.890  16.429  0.3507  1.0656 -0.6661
 3127TIP3    H230797   1.230   1.749  16.383 -0.6673  0.9419 -1.0275
 3128TIP3   OH230798   3.062   4.537  15.179  0.6667 -0.0221  0.1302
 3128TIP3    H130799   3.028   4.456  15.142 -0.4489  0.4908 -0.0401
 3128TIP3    H230800   2.992   4.567  15.238  0.5919  1.3483 -0.6182
 3129TIP3   OH230801   1.001   4.879  13.766 -0.0819  0.4076  0.2333
 3129TIP3    H130802   0.937   4.940  13.729  1.5255  1.9657 -0.0898
 3129TIP3    H230803   0.984   4.797  13.720 -1.0658  1.0927 -0.7015
 3130TIP3   OH230804   1.643   3.355  16.547 -0.6765  0.3409  0.4534
 3130TIP3    H130805   1.647   3.445  16.578 -2.0806  0.1981  1.0843
 3130TIP3    H230806   1.562   3.349  16.497  0.3566 -0.0806 -1.2753
 3131TIP3   OH230807   2.061   3.775  16.869 -0.1291  0.1392 -0.2663
 3131TIP3    H130808   2.023   3.691  16.845  0.5247 -0.3986  0.5500
 3131TIP3    H230809   2.054   3.779  16.964  0.0088  0.9345 -0.2761
 3132TIP3   OH230810   0.778   0.394   0.068 -0.5960 -0.2343  0.1887
 3132TIP3    H130811   0.691   0.359   0.088 -1.6531  1.8571 -0.4766
 3132TIP3    H230812   0.780   0.401  -0.027 -0.5614  1.6571  0.2772
 3133TIP3   OH230813   5.141   2.475  11.410 -0.3752 -0.3168 -0.1745
 3133TIP3    H130814   5.059   2.440  11.443  0.0289 -1.2531 -0.1359
 3133TIP3    H230815   5.185   2.400  11.370  0.4336  0.1815 -0.2483
 3134TIP3   OH230816   2.723   0.761   4.759  0.1753 -0.1488 -0.0550
 3134TIP3    H130817   2.650   0.790   4.813 -0.0157  0.1097 -0.4403
 3134TIP3    H230818   2.754   0.680   4.800  2.0468  1.5965  2.2852
 3135TIP3   OH230819   0.195   2.939  12.075  0.5696 -0.3011 -0.2707
 3135TIP3    H130820   0.138   2.863  12.062  0.2870 -0.2573  0.6298
 3135TIP3    H230821   0.266   2.906  12.131  0.6400  0.0056 -0.1769
 3136TIP3   OH230822   5.406   4.847   6.088  0.4931 -0.4459  0.6395
 3136TIP3    H130823   5.413   4.876   6.179 -0.1223  0.6682  0.3536
 3136TIP3    H230824   5.375   4.757   6.094  0.1568 -0.2830  1.5271
 3137TIP3   OH230825   4.982   4.751   1.381 -0.3438 -0.0105  0.2157
 3137TIP3    H130826   5.071   4.781   1.400  0.0908 -0.6169 -0.8129
 3137TIP3    H230827   4.957   4.701   1.459  1.4395 -2.5259 -0.7058
 3138TIP3   OH230828   2.081   6.243   1.157 -0.0434  0.3396  0.2799
 3138TIP3    H130829   2.008   6.190   1.186 -2.2013  2.7958 -0.2839
 3138TIP3    H230830   2.088   6.225   1.063  2.4235 -2.3932  0.8258
 3139TIP3   OH230831   5.384   3.156  11.889 -0.0293  0.5499  0.2761
 3139TIP3    H130832   5.385   3.121  11.978 -0.2635  0.8599  0.4013
 3139TIP3    H230833   5.322   3.100  11.842 -0.2632  0.6818  0.4280
 3140TIP3   OH230834   3.241   5.410   3.331 -0.0841 -0.4259 -0.0333
 3140TIP3    H130835   3.277   5.437   3.246  0.3393  0.1594  0.3244
 3140TIP3    H230836   3.147   5.401   3.315 -0.2199  1.1149 -0.2233
 3141TIP3   OH230837   6.432   2.040   1.591  0.2952 -0.0422  0.3336
 3141TIP3    H130838   6.449   1.978   1.661 -0.1366  0.8767  1.2876
 3141TIP3    H230839   6.515   2.087   1.580  0.5168 -0.5452 -0.1378
 3142TIP3   OH230840   2.689   6.276  11.664  0.2910  0.6322  0.2794
 3142TIP3    H130841   2.723   6.187  11.665  0.7533  0.8090  0.5534
 3142TIP3    H230842   2.767   6.332  11.664  0.0107  1.0323 -0.3939
 3143TIP3   OH230843   3.169   4.408   0.521  0.1013  0.0140  0.4602
 3143TIP3    H130844   3.088   4.391   0.568 -0.3032  0.0194 -0.2118
 3143TIP3    H230845   3.202   4.322   0.496  1.5297 -0.1454  2.6882
 3144TIP3   OH230846   1.423   4.500   4.166  0.5234 -0.0055 -0.1985
 3144TIP3    H130847   1.495   4.491   4.104  0.3247 -1.4013 -0.2383
 3144TIP3    H230848   1.455   4.458   4.246  0.3667  0.8334  0.3245
 3145TIP3   OH230849   1.050   5.743  15.991  0.3423 -0.6322  0.3628
 3145TIP3    H130850   1.067   5.836  15.978 -1.0511 -0.5068 -0.9631
 3145TIP3    H230851   1.015   5.736  16.080  1.1320 -0.0016  0.7264
 3146TIP3   OH230852   2.254   1.236   0.849  0.0163 -0.4312 -0.2152
 3146TIP3    H130853   2.271   1.278   0.765  1.4168  0.5350  0.5104
 3146TIP3    H230854   2.229   1.146   0.828  2.0445 -0.7160 -1.5810
 3147TIP3   OH230855   3.373   5.813   3.853 -0.5848 -0.5718 -0.0220
 3147TIP3    H130856   3.438   5.789   3.919 -0.4698 -0.4140 -0.0770
 3147TIP3    H230857   3.401   5.899   3.821 -1.4814  0.0517  0.7992
 3148TIP3   OH230858   3.722   5.517   1.937  0.2981 -0.0276 -0.4082
 3148TIP3    H130859   3.745   5.426   1.957 -0.6121  0.1998  1.9640
 3148TIP3    H230860   3.632   5.527   1.967 -0.4322  1.1119 -2.7061
 3149TIP3   OH230861   2.115   6.405   4.850 -0.3230  0.1215 -0.2703
 3149TIP3    H130862   2.034   6.393   4.801 -0.1780  1.5561 -0.9147
 3149TIP3    H230863   2.184   6.376   4.791 -0.2789  0.1735 -0.2447
 3150TIP3   OH230864   3.024   3.969  13.362  0.2094 -0.6234  0.1666
 3150TIP3    H130865   3.110   3.964  13.321  0.7093 -1.5325  1.2691
 3150TIP3    H230866   3.010   4.062  13.379  0.3019 -0.3130 -1.3800
 3151TIP3   OH230867   2.131   0.731  13.122  0.0054  0.4212 -0.5457
 3151TIP3    H130868   2.146   0.823  13.145  1.3744  0.1504 -0.2829
 3151TIP3    H230869   2.216   0.690  13.133 -0.8567 -1.1509  0.5920
 3152TIP3   OH230870   1.145   5.763  12.966  0.0062  0.4675 -0.0165
 3152TIP3    H130871   1.129   5.733  12.877  0.6966  1.2366 -0.4196
 3152TIP3    H230872   1.211   5.702  13.000 -0.9167 -0.3789  0.3070
 3153TIP3   OH230873   4.625   4.284  11.455  0.5384  0.1645  0.4462
 3153TIP3    H130874   4.591   4.359  11.503  0.2073 -0.3577  1.0470
 3153TIP3    H230875   4.656   4.224  11.522  0.7193 -0.2747 -0.0182
 3154TIP3   OH230876   1.552   4.078  15.414  0.3201  0.3704  0.3771
 3154TIP3    H130877   1.502   4.153  15.445 -1.4498 -0.1136 -1.1501
 3154TIP3    H230878   1.487   4.009  15.401  0.9341  0.3507 -3.7288
 3155TIP3   OH230879   2.476   5.661   0.040  0.0594  0.4605 -0.0170
 3155TIP3    H130880   2.392   5.706   0.033  1.0576  2.2625 -1.1013
 3155TIP3    H230881   2.496   5.633  -0.049  0.7166  0.2610  0.1840
 3156TIP3   OH230882   5.432   3.573  14.318  0.1704 -0.6368 -0.6181
 3156TIP3    H130883   5.492   3.507  14.283  1.5936  0.6845 -0.7666
 3156TIP3    H230884   5.485   3.653  14.324 -1.6528  0.6529 -1.0042
 3157TIP3   OH230885   5.464   5.586   5.592 -0.2021 -0.5244  0.0481
 3157TIP3    H130886   5.529   5.614   5.528 -0.9073 -0.2187 -0.5550
 3157TIP3    H230887   5.432   5.502   5.560 -0.3106 -0.5351  0.1812
 3158TIP3   OH230888   1.032   5.895   3.088 -0.0109  0.6082 -0.0688
 3158TIP3    H130889   0.943   5.924   3.102  0.2844  1.4198  0.1708
 3158TIP3    H230890   1.037   5.879   2.993 -0.4458  0.4124 -0.0615
 3159TIP3   OH230891   5.844   6.116   1.188 -0.3290  0.0421 -0.1029
 3159TIP3    H130892   5.798   6.054   1.244  0.4875  0.6205  1.2569
 3159TIP3    H230893   5.903   6.162   1.247  0.6588  0.5957 -1.4788
 3160TIP3   OH230894   2.822   2.558  15.069  0.2855 -0.1455  0.1829
 3160TIP3    H130895   2.796   2.570  15.160 -0.7975 -1.3307  0.0442
 3160TIP3    H230896   2.802   2.642  15.028 -0.7007 -0.1165  0.6946
 3161TIP3   OH230897   0.194   4.896   3.556 -0.0337  0.1190 -0.0660
 3161TIP3    H130898   0.102   4.902   3.579  0.0555 -0.8420  0.5890
 3161TIP3    H230899   0.195   4.871   3.464 -0.4199  0.4171 -0.1532
 3162TIP3   OH230900   5.761   1.558  12.893 -0.1649  0.2912  0.2308
 3162TIP3    H130901   5.779   1.630  12.954 -0.1607  1.2926 -0.9094
 3162TIP3    H230902   5.667   1.563  12.876 -0.0597  0.4443 -0.3385
 3163TIP3   OH230903   0.102   3.005   0.891  0.1414 -0.5816 -0.3859
 3163TIP3    H130904   0.195   3.026   0.890  0.3080 -1.3005 -0.9331
 3163TIP3    H230905   0.058   3.089   0.880  0.7375 -0.3183 -0.7833
 3164TIP3   OH230906   4.659   5.610   0.701 -0.3349 -0.3656  0.0696
 3164TIP3    H130907   4.754   5.617   0.693 -0.3634  0.1075  0.0876
 3164TIP3    H230908   4.627   5.698   0.681 -0.6552 -0.1005  1.5822
 3165TIP3   OH230909   1.031   0.247  15.877 -0.5518 -0.3265 -0.3892
 3165TIP3    H130910   1.057   0.271  15.966  0.4720 -1.0468 -0.4753
 3165TIP3    H230911   0.999   0.157  15.884 -0.9455 -0.2130 -0.6721
 3166TIP3   OH230912   4.221   0.733  16.591 -0.6947  0.3471  0.4703
 3166TIP3    H130913   4.208   0.780  16.673 -0.3018  1.2703  0.0163
 3166TIP3    H230914   4.279   0.789  16.540 -1.0254 -0.1592 -0.4895
 3167TIP3   OH230915   0.888   6.680   0.640 -0.4097  0.0630 -0.4485
 3167TIP3    H130916   0.921   6.672   0.730 -0.9166 -0.4441 -0.3065
 3167TIP3    H230917   0.811   6.736   0.647 -1.2584 -1.0679 -0.3498
 3168TIP3   OH230918   6.811   3.381  12.332  0.4352  0.2925 -0.0992
 3168TIP3    H130919   6.789   3.293  12.303  1.1305  0.4794 -1.2279
 3168TIP3    H230920   6.785   3.438  12.260  3.1073  0.6764 -0.8408
 3169TIP3   OH230921   3.980   6.608   0.112 -0.6867  0.4666  0.2320
 3169TIP3    H130922   4.059   6.554   0.112 -0.5397  0.6829  0.3544
 3169TIP3    H230923   4.012   6.698   0.105 -0.9717  0.4791 -1.2289
 3170TIP3   OH230924   4.867   0.169   4.673  0.0436 -0.0264 -0.3771
 3170TIP3    H130925   4.799   0.110   4.638 -1.7293  0.7284  1.5719
 3170TIP3    H230926   4.875   0.237   4.607 -0.6531 -0.4604 -0.9323
 3171TIP3   OH230927   1.153   6.372   4.954  0.4839 -0.1511 -0.3329
 3171TIP3    H130928   1.207   6.439   4.997  1.7135 -1.0159 -0.4860
 3171TIP3    H230929   1.171   6.384   4.860  0.1034 -0.2037 -0.4157
 3172TIP3   OH230930   1.660   6.638   2.664 -0.0269 -0.6191 -0.4138
 3172TIP3    H130931   1.699   6.667   2.581  0.9221 -3.2765 -1.0174
 3172TIP3    H230932   1.708   6.557   2.685 -3.1569 -2.4202  0.4191
 3173TIP3   OH230933   3.753   0.864   3.139  0.0230  0.1728  0.1127
 3173TIP3    H130934   3.765   0.770   3.150  1.0420  0.2531 -0.2362
 3173TIP3    H230935   3.805   0.903   3.210 -1.8166  0.4542  1.3728
 3174TIP3   OH230936   3.514   4.024  14.260  0.2708 -0.2842 -0.2842
 3174TIP3    H130937   3.559   4.080  14.197  1.1147 -0.4638  0.1419
 3174TIP3    H230938   3.584   3.975  14.302 -0.5273 -2.5122 -1.4280
 3175TIP3   OH230939   1.504   2.792  11.274  0.4449 -0.5252 -0.5401
 3175TIP3    H130940   1.419   2.747  11.272  0.3925 -0.4411 -0.2353
 3175TIP3    H230941   1.566   2.727  11.240  0.2720 -0.6177 -0.6805
 3176TIP3   OH230942   4.858   5.175   3.919 -0.1542  0.3488 -0.2645
 3176TIP3    H130943   4.832   5.131   3.837 -1.5436  0.2238  0.2106
 3176TIP3    H230944   4.946   5.207   3.902 -1.0112  1.7698 -2.4246
 3177TIP3   OH230945   0.726   5.264  11.644 -0.1948 -0.3459  0.3635
 3177TIP3    H130946   0.804   5.257  11.589  1.0592 -0.9039  2.1654
 3177TIP3    H230947   0.676   5.336  11.604  0.4066 -1.0442 -1.7784
 3178TIP3   OH230948   4.704   3.842  12.217  0.1111  0.3534  0.9308
 3178TIP3    H130949   4.696   3.923  12.167 -2.4406  0.1538  0.9191
 3178TIP3    H230950   4.744   3.869  12.300 -1.2309  1.7571  1.1611
 3179TIP3   OH230951   1.731   2.604   2.845  0.6454 -0.5297 -0.3268
 3179TIP3    H130952   1.756   2.512   2.837 -0.1524 -0.7320 -0.6447
 3179TIP3    H230953   1.811   2.653   2.827  1.6395 -1.1737  2.0452
 3180TIP3   OH230954   3.189   5.566   0.610  0.4505  0.1239  0.1295
 3180TIP3    H130955   3.246   5.607   0.674  0.1481  0.9403 -0.1117
 3180TIP3    H230956   3.249   5.516   0.553  0.9596  1.1045 -0.2239
 3181TIP3   OH230957   0.528   0.196  12.664  0.0458  0.0796 -1.1123
 3181TIP3    H130958   0.523   0.282  12.705  1.0815 -0.4814  0.2681
 3181TIP3    H230959   0.609   0.198  12.614  1.0958 -0.7033  0.4877
 3182TIP3   OH230960   0.295   6.066   4.724  0.0887  0.4733 -0.2589
 3182TIP3    H130961   0.211   6.051   4.767 -0.2865  1.9199 -0.4402
 3182TIP3    H230962   0.286   6.025   4.638 -0.2177  0.1162 -0.0574
 3183TIP3   OH230963   3.250   1.586  15.242  0.0065  0.6701 -0.1825
 3183TIP3    H130964   3.248   1.492  15.261 -0.3654  0.5340 -0.8620
 3183TIP3    H230965   3.167   1.619  15.276  0.6449  0.9748  1.1206
 3184TIP3   OH230966   0.658   4.141  16.842  1.0021 -0.1317  0.8367
 3184TIP3    H130967   0.652   4.048  16.863  1.5222 -0.9985 -2.2855
 3184TIP3    H230968   0.752   4.159  16.840  1.0557 -0.3844 -1.4253
 3185TIP3   OH230969   5.211   6.135   2.924 -0.1782  0.1872  0.5180
 3185TIP3    H130970   5.223   6.198   2.994  1.9542 -1.0822  1.3955
 3185TIP3    H230971   5.142   6.077   2.955 -2.4295  2.1686 -0.4586
 3186TIP3   OH230972   0.584   0.989   0.532  0.0114 -0.0758 -0.0217
 3186TIP3    H130973   0.670   0.969   0.495  0.0409  1.1584 -0.6594
 3186TIP3    H230974   0.602   1.058   0.597 -0.4884  0.1417 -0.1131
 3187TIP3   OH230975   4.891   3.329  12.758 -0.7841 -0.3511  0.2928
 3187TIP3    H130976   4.800   3.327  12.729 -0.3923  0.4653 -1.0650
 3187TIP3    H230977   4.919   3.419  12.741  0.1191 -0.4426  1.2166
 3188TIP3   OH230978   6.211   2.199  15.944 -0.0730 -0.4461  0.1912
 3188TIP3    H130979   6.274   2.271  15.947  0.8064 -1.1837  0.0581
 3188TIP3    H230980   6.129   2.240  15.915  0.3685  0.5165  0.2570
 3189TIP3   OH230981   2.820   3.840   2.969  0.0949  0.5884  1.0956
 3189TIP3    H130982   2.908   3.861   2.940  0.2428  2.5470  2.7735
 3189TIP3    H230983   2.775   3.812   2.889  1.9751  0.3275  0.0666
 3190TIP3   OH230984   6.642   5.673  12.675 -0.4578  0.2676  0.2410
 3190TIP3    H130985   6.586   5.685  12.752  0.2852  0.2417  0.7977
 3190TIP3    H230986   6.629   5.582  12.648 -1.5240  0.5748 -0.3160
 3191TIP3   OH230987   1.539   4.830   5.617  0.1060 -0.3525  0.7156
 3191TIP3    H130988   1.530   4.745   5.659 -2.3784  0.2223  1.5075
 3191TIP3    H230989   1.614   4.870   5.660 -0.5417 -0.9811  2.5083
 3192TIP3   OH230990   6.116   6.183  16.642  0.4035  0.4269  0.1923
 3192TIP3    H130991   6.081   6.157  16.556 -1.1157 -0.5907  1.0800
 3192TIP3    H230992   6.172   6.110  16.668  0.9987  0.8097  0.0194
 3193TIP3   OH230993   4.580   5.175  15.817 -0.6072  0.0615 -0.1887
 3193TIP3    H130994   4.496   5.183  15.864  1.0858  0.3664  3.0855
 3193TIP3    H230995   4.636   5.127  15.877  1.7593  0.3191 -2.0560
 3194TIP3   OH230996   6.681   4.303   2.116 -0.1683 -0.4192  0.6430
 3194TIP3    H130997   6.696   4.226   2.171 -3.6857 -2.1849 -0.5362
 3194TIP3    H230998   6.750   4.299   2.049  1.5313 -0.7261  2.3439
 3195TIP3   OH230999   4.844   4.718   5.239  0.4461  0.4642 -0.5524
 3195TIP3    H131000   4.902   4.785   5.202  1.2389 -0.3317 -0.7871
 3195TIP3    H231001   4.799   4.681   5.162 -0.9500  1.5703 -0.3101
 3196TIP3   OH231002   5.104   2.630  14.478 -0.3229 -0.8456 -0.4361
 3196TIP3    H131003   5.123   2.572  14.552 -0.1395  4.0134  3.8282
 3196TIP3    H231004   5.009   2.632  14.473 -0.4018  0.1337  0.9836
 3197TIP3   OH231005   5.309   3.602  15.271 -0.7175  0.1832 -0.0298
 3197TIP3    H131006   5.344   3.539  15.333  1.4000  0.8721 -0.4235
 3197TIP3    H231007   5.265   3.549  15.205 -0.2690 -0.7747  0.4272
 3198TIP3   OH231008   0.365   0.801   3.437 -0.7563 -0.1175 -0.4845
 3198TIP3    H131009   0.281   0.776   3.400 -1.2973  1.2917 -0.2779
 3198TIP3    H231010   0.373   0.895   3.418 -1.2153  0.8158  3.1701
 3199TIP3   OH231011   0.409   5.276   3.641 -0.2365  0.7469 -0.2024
 3199TIP3    H131012   0.415   5.322   3.557 -0.0263 -0.6015 -0.9441
 3199TIP3    H231013   0.474   5.320   3.696  0.9354  0.4714 -1.3241
 3200TIP3   OH231014   3.348   2.867   2.722  0.4236 -0.0181 -0.4711
 3200TIP3    H131015   3.287   2.820   2.665 -0.5055 -1.8436  1.8312
 3200TIP3    H231016   3.407   2.913   2.663 -1.4083 -0.5340 -2.8314
 3201TIP3   OH231017   6.806   2.025  11.842  0.3530  0.1453  0.2704
 3201TIP3    H131018   6.849   1.963  11.900 -0.3013 -0.5608  0.0143
 3201TIP3    H231019   6.713   2.013  11.858  0.1736  0.1954 -0.6572
 3202TIP3   OH231020   0.443   2.072   1.120 -0.0385 -0.4454 -0.3550
 3202TIP3    H131021   0.388   2.005   1.078 -3.2117  1.7549 -0.0555
 3202TIP3    H231022   0.462   2.134   1.049  0.5359 -0.2370 -0.0231
 3203TIP3   OH231023   2.161   6.683   1.690  0.6209  1.1175  0.0109
 3203TIP3    H131024   2.132   6.656   1.602 -0.7609  0.8033  0.5294
 3203TIP3    H231025   2.256   6.692   1.683  0.8069 -1.0997 -0.9458
 3204TIP3   OH231026   1.435   1.378   0.540 -0.2749 -0.5558  0.3530
 3204TIP3    H131027   1.527   1.402   0.534 -0.1595 -1.0052  0.3358
 3204TIP3    H231028   1.429   1.323   0.618 -0.3253 -1.4285 -0.2482
 3205TIP3   OH231029   6.259   1.904  10.335  1.0867  0.0036  0.7182
 3205TIP3    H131030   6.195   1.837  10.358  1.0813 -0.6611 -1.0423
 3205TIP3    H231031   6.208   1.983  10.320  1.0276  0.2725  2.1972
 3206TIP3   OH231032   3.337   5.085  12.499  0.3143 -0.1018  0.1394
 3206TIP3    H131033   3.270   5.137  12.542  0.6369 -0.3954  1.0331
 3206TIP3    H231034   3.383   5.146  12.442 -1.2138 -0.0687 -1.1108
 3207TIP3   OH231035   6.321   5.994  16.655  0.2735  0.1981  0.7089
 3207TIP3    H131036   6.412   5.988  16.683  0.3448  2.6213  1.1928
 3207TIP3    H231037   6.325   6.005  16.560  0.5091  0.7143  0.7771
 3208TIP3   OH231038   6.076   4.170  16.458  0.1138 -0.0660  0.5794
 3208TIP3    H131039   6.117   4.255  16.468 -0.2868  0.0515  1.2568
 3208TIP3    H231040   6.096   4.144  16.368  1.0840  0.2898  0.6884
 3209TIP3   OH231041   1.024   0.043  14.773  0.0823 -0.0646  0.6109
 3209TIP3    H131042   1.043   0.048  14.679 -1.9685  1.6956  0.2316
 3209TIP3    H231043   1.109   0.025  14.813  0.5114 -4.8643 -1.7599
 3210TIP3   OH231044   2.477   2.399  15.614 -0.8789  0.3522  0.1113
 3210TIP3    H131045   2.481   2.442  15.529  1.5831 -1.5682 -0.8459
 3210TIP3    H231046   2.411   2.331  15.604 -1.0190  0.5119 -0.0545
 3211TIP3   OH231047   3.083   5.518   5.185  0.3232  0.4020  0.7172
 3211TIP3    H131048   3.096   5.458   5.258  0.6013 -0.0444  0.2998
 3211TIP3    H231049   3.108   5.604   5.220 -0.1837  0.3014  1.3471
 3212TIP3   OH231050   0.425   3.050   3.884  0.1034 -0.5568 -0.0766
 3212TIP3    H131051   0.466   3.134   3.902 -0.8902  0.0409 -0.5405
 3212TIP3    H231052   0.485   2.986   3.923 -0.1781  0.4509  2.2021
 3213TIP3   OH231053   4.412   6.513   5.792  0.3366 -0.2727 -0.2155
 3213TIP3    H131054   4.505   6.500   5.809 -0.1437 -0.5637  2.7391
 3213TIP3    H231055   4.409   6.563   5.710  2.9342 -2.4816 -1.8209
 3214TIP3   OH231056   0.789   1.821   3.988  0.1601 -0.1475  0.2337
 3214TIP3    H131057   0.732   1.757   3.946 -1.9127  0.2936  2.1526
 3214TIP3    H231058   0.875   1.806   3.950 -0.9499 -1.7865 -1.8109
 3215TIP3   OH231059   2.664   4.036  15.280 -0.0218  0.3564 -0.3871
 3215TIP3    H131060   2.716   4.019  15.202  2.5427 -0.3978  1.3670
 3215TIP3    H231061   2.707   4.111  15.321 -1.9666  1.4214 -0.1816
 3216TIP3   OH231062   6.672   6.105   4.073  0.5238  0.1345 -0.5556
 3216TIP3    H131063   6.733   6.173   4.100  1.4592 -0.6633 -0.6233
 3216TIP3    H231064   6.586   6.147   4.076  1.0797  1.2908 -0.5356
 3217TIP3   OH231065   0.073   6.758   2.757 -0.0406 -0.1539  0.2773
 3217TIP3    H131066   0.133   6.776   2.685 -0.1384  0.8689  0.4312
 3217TIP3    H231067   0.091   6.667   2.781  1.9019  0.3016  0.7388
 3218TIP3   OH231068   0.551   2.728  11.047  0.1651 -0.8823 -0.6644
 3218TIP3    H131069   0.572   2.818  11.023  1.0387 -0.5602  1.1022
 3218TIP3    H231070   0.572   2.676  10.970  0.8245  0.2899 -1.2890
 3219TIP3   OH231071   5.682   1.758   5.955  0.0276 -0.2521 -0.1204
 3219TIP3    H131072   5.744   1.815   6.001  0.8504 -0.7749 -0.5593
 3219TIP3    H231073   5.667   1.685   6.016  1.6284 -1.2811 -0.8957
 3220TIP3   OH231074   3.077   6.670   2.614  0.4335  0.1320  0.7265
 3220TIP3    H131075   3.129   6.716   2.548  1.3870 -1.4737  0.3125
 3220TIP3    H231076   3.136   6.659   2.689 -0.0980  0.4446  1.1997
 3221TIP3   OH231077   5.649   2.551   3.023  0.0473 -0.3559  0.0722
 3221TIP3    H131078   5.617   2.640   3.034  0.0402 -0.3452 -0.0388
 3221TIP3    H231079   5.690   2.550   2.937  1.5213 -0.0239  0.7452
 3222TIP3   OH231080   0.124   1.882  11.431 -0.5051 -0.0560  0.4817
 3222TIP3    H131081   0.104   1.803  11.482 -1.3102  0.1395  0.4719
 3222TIP3    H231082   0.095   1.954  11.487 -1.8667  0.1491 -0.4477
 3223TIP3   OH231083   5.385   3.773   0.533  0.0076 -0.3483  0.2491
 3223TIP3    H131084   5.414   3.805   0.618 -0.4615  0.1385  0.2339
 3223TIP3    H231085   5.448   3.808   0.470  1.0508 -1.7005  0.5093
 3224TIP3   OH231086   5.018   5.940  16.765  0.0497 -0.5504  0.2192
 3224TIP3    H131087   5.060   5.869  16.813  1.4065  0.6482  0.9170
 3224TIP3    H231088   5.051   5.930  16.675  0.4177 -0.6858  0.3638
 3225TIP3   OH231089   2.666   2.606  14.013  0.3294 -0.1479 -0.2959
 3225TIP3    H131090   2.673   2.620  14.107  2.4264 -1.1844 -0.2390
 3225TIP3    H231091   2.626   2.520  14.004 -1.9337  0.8498 -0.4493
 3226TIP3   OH231092   5.805   0.994  11.227 -0.6664  0.0046  0.5027
 3226TIP3    H131093   5.815   0.911  11.275 -0.8979  0.7989  1.9582
 3226TIP3    H231094   5.877   0.992  11.164  0.1855 -0.6948  1.4470
 3227TIP3   OH231095   2.881   6.676  11.035  0.0915  0.5875 -0.0212
 3227TIP3    H131096   2.926   6.678  10.950  4.9669  0.8374  2.2154
 3227TIP3    H231097   2.869   6.768  11.058 -0.8311  0.5217 -0.1985
 3228TIP3   OH231098   2.784   0.512  16.148  0.6631 -0.0313 -0.5383
 3228TIP3    H131099   2.786   0.423  16.112 -4.3415 -0.0828 -1.3270
 3228TIP3    H231100   2.705   0.516  16.200  1.1591  3.7625  0.2301
 3229TIP3   OH231101   0.716   3.474  17.055  0.2241 -0.5851 -0.3089
 3229TIP3    H131102   0.679   3.405  17.111  0.2468  0.0917  0.5600
 3229TIP3    H231103   0.658   3.476  16.978 -0.4100 -0.8456  0.1531
 3230TIP3   OH231104   4.742   6.194  11.273  0.3696 -0.1176  0.7463
 3230TIP3    H131105   4.831   6.207  11.240 -0.3022  1.1999 -0.6437
 3230TIP3    H231106   4.744   6.107  11.313  2.4628  0.1719  1.4170
 3231TIP3   OH231107   4.923   5.412   5.068 -0.5928  0.1721 -0.1929
 3231TIP3    H131108   4.922   5.352   5.143 -2.0154  0.7879  0.3107
 3231TIP3    H231109   4.952   5.357   4.995  3.0342  0.0441  1.1128
 3232TIP3   OH231110   5.081   6.084   0.579 -0.1876 -0.1857  0.1609
 3232TIP3    H131111   5.138   6.033   0.522  1.0673 -0.7127  1.8193
 3232TIP3    H231112   5.060   6.025   0.652 -0.3491  0.9859  1.1081
 3233TIP3   OH231113   6.492   1.967   4.241 -0.1248  0.1090 -0.2039
 3233TIP3    H131114   6.447   1.933   4.318  1.6396 -0.2809  0.6910
 3233TIP3    H231115   6.517   2.056   4.265  0.5495 -0.0604 -0.2605
 3234TIP3   OH231116   0.450   6.199  10.995 -0.1816 -0.5066  0.2755
 3234TIP3    H131117   0.384   6.267  10.978 -1.2464 -1.3468  0.8865
 3234TIP3    H231118   0.439   6.179  11.089 -0.3511 -1.9718 -0.0313
 3235TIP3   OH231119   6.070   2.156  13.185 -1.0212  0.4612 -0.0654
 3235TIP3    H131120   6.070   2.134  13.278  0.1507 -0.6267 -0.3085
 3235TIP3    H231121   6.063   2.072  13.140  1.6828  0.6446 -0.9812
 3236TIP3   OH231122   0.425   3.728   3.370 -0.3276  0.0339 -0.1715
 3236TIP3    H131123   0.482   3.659   3.336 -0.6604  0.1797 -1.0335
 3236TIP3    H231124   0.337   3.693   3.359 -0.4708  0.3735 -0.0937
 3237TIP3   OH231125   1.511   6.804   3.263 -0.1268  0.6564 -0.1807
 3237TIP3    H131126   1.543   6.715   3.273 -1.7344  0.0497 -0.0394
 3237TIP3    H231127   1.547   6.834   3.179  1.4097  0.3486  0.3402
 3238TIP3   OH231128   3.481   6.211   3.570 -0.2895  0.1768 -0.0840
 3238TIP3    H131129   3.535   6.263   3.629 -0.5185  1.1786 -0.7255
 3238TIP3    H231130   3.519   6.225   3.483  0.3003 -1.6090 -0.1513
 3239TIP3   OH231131   1.645   4.642  14.764  0.0809 -0.2720 -0.0093
 3239TIP3    H131132   1.603   4.609  14.684 -0.0203  1.7929 -0.8861
 3239TIP3    H231133   1.709   4.705  14.732  1.6490 -1.0473  1.4780
 3240TIP3   OH231134   0.607   0.235  15.712  0.3738 -0.7294 -0.4481
 3240TIP3    H131135   0.670   0.277  15.771 -0.3237  0.9302 -0.8242
 3240TIP3    H231136   0.645   0.246  15.625 -0.1390 -0.2567 -0.6165
 3241TIP3   OH231137   0.595   3.185  15.317 -0.1938  0.2544 -0.3578
 3241TIP3    H131138   0.690   3.199  15.313 -0.0001 -1.0004 -0.6769
 3241TIP3    H231139   0.573   3.196  15.409  0.4102 -0.3253 -0.1374
 3242TIP3   OH231140   6.379   3.078   5.153  0.3622  0.6412 -0.2489
 3242TIP3    H131141   6.436   3.117   5.087 -0.1395  1.2777 -0.3119
 3242TIP3    H231142   6.330   3.152   5.189  1.2967  0.4808  1.5144
 3243TIP3   OH231143   3.246   2.747   1.016  0.1268  0.1691  0.6229
 3243TIP3    H131144   3.335   2.780   1.027 -0.2180  0.5944  2.4890
 3243TIP3    H231145   3.194   2.824   0.995 -0.1377  0.3189  1.7462
 3244TIP3   OH231146   2.786   1.340  15.595 -0.4044  0.3518 -0.6280
 3244TIP3    H131147   2.792   1.382  15.681 -0.7444  1.9113 -1.3317
 3244TIP3    H231148   2.781   1.247  15.615 -1.7937  0.7324  1.1097
 3245TIP3   OH231149   0.606   5.910   5.905 -0.0765  0.5102 -0.4706
 3245TIP3    H131150   0.678   5.847   5.897 -1.4708 -1.2845  0.1978
 3245TIP3    H231151   0.637   5.973   5.970 -0.1503 -1.9118  2.0864
 3246TIP3   OH231152   4.779   3.611  12.960  0.2157  0.7141  0.1202
 3246TIP3    H131153   4.711   3.630  13.024  1.0768 -1.2004  1.7005
 3246TIP3    H231154   4.837   3.549  13.004  1.9284  0.8118 -1.8522
 3247TIP3   OH231155   2.447   4.753   2.681  0.0280  0.0151 -0.0268
 3247TIP3    H131156   2.504   4.677   2.674  1.7603  1.1439  1.1584
 3247TIP3    H231157   2.404   4.758   2.595 -0.6404 -2.6160  0.0538
 3248TIP3   OH231158   5.089   2.549   3.288  0.7927  1.0421  0.0654
 3248TIP3    H131159   5.065   2.456   3.293 -0.4087  1.3999  1.5638
 3248TIP3    H231160   5.185   2.549   3.291  0.8283 -0.1636 -0.4217
 3249TIP3   OH231161   1.512   2.862  11.850 -0.9717  0.1741 -0.2596
 3249TIP3    H131162   1.597   2.839  11.814 -0.4884 -1.1317  1.5775
 3249TIP3    H231163   1.454   2.866  11.774  0.0793 -1.9264 -1.2463
 3250TIP3   OH231164   5.566   2.253  13.647 -0.3234 -0.3158  0.7291
 3250TIP3    H131165   5.482   2.298  13.640 -1.0266 -1.5716  0.7493
 3250TIP3    H231166   5.630   2.323  13.655 -1.3781  0.6696  0.8522
 3251TIP3   OH231167   5.157   5.299   3.594 -0.3278 -0.3010 -0.3402
 3251TIP3    H131168   5.082   5.274   3.540 -0.9697  1.5637 -0.3782
 3251TIP3    H231169   5.134   5.271   3.682  0.1520 -2.1725 -0.7628
 3252TIP3   OH231170   0.593   5.615   1.029 -0.0479  0.5138 -0.0854
 3252TIP3    H131171   0.645   5.608   1.109  0.4295  0.0482 -0.4298
 3252TIP3    H231172   0.564   5.526   1.012 -0.3335  0.6493 -0.3089
 3253TIP3   OH231173   6.771   2.472   0.506 -0.0253 -0.2068  0.1058
 3253TIP3    H131174   6.676   2.469   0.492 -0.1844 -1.6791  1.2676
 3253TIP3    H231175   6.796   2.381   0.520  1.0651  0.4160  2.7278
 3254TIP3   OH231176   4.300   3.972   4.070  0.0621 -0.1415 -0.2355
 3254TIP3    H131177   4.389   4.008   4.068 -0.5265  1.3264 -1.0617
 3254TIP3    H231178   4.254   4.026   4.134 -0.5843 -0.0271 -0.7856
 3255TIP3   OH231179   1.840   3.522  12.059  0.0663 -0.2108  0.1680
 3255TIP3    H131180   1.888   3.455  12.010 -0.3513 -0.1388 -0.3372
 3255TIP3    H231181   1.798   3.473  12.130 -0.3083 -0.5021 -0.2495
 3256TIP3   OH231182   6.563   0.393   3.456 -0.3759 -0.4711  0.4538
 3256TIP3    H131183   6.641   0.339   3.469 -0.4696 -0.7604 -0.1283
 3256TIP3    H231184   6.533   0.370   3.368 -1.0447 -0.2667  0.6251
 3257TIP3   OH231185   3.474   2.568  16.435 -0.4416  0.2752 -0.0324
 3257TIP3    H131186   3.439   2.511  16.503  0.6297 -1.6288 -0.9849
 3257TIP3    H231187   3.559   2.597  16.469  0.5719 -1.5206 -0.9193
 3258TIP3   OH231188   2.171   4.258   5.035  0.0446  0.6474 -0.9219
 3258TIP3    H131189   2.185   4.291   4.947  0.0595  3.2569 -0.0228
 3258TIP3    H231190   2.109   4.319   5.074 -1.0754 -1.2498  0.4643
 3259TIP3   OH231191   4.623   3.217  11.337  0.2247 -0.0964 -0.3638
 3259TIP3    H131192   4.630   3.283  11.268 -0.3845  1.1862  0.7617
 3259TIP3    H231193   4.709   3.218  11.379 -0.3459  1.4063  0.8643
 3260TIP3   OH231194   2.445   5.537  14.633 -0.2539 -0.3160  0.1924
 3260TIP3    H131195   2.387   5.557  14.559  0.0091 -0.1399  0.0312
 3260TIP3    H231196   2.487   5.621  14.654 -1.4067 -0.0292  1.4945
 3261TIP3   OH231197   1.421   3.716   3.885 -0.0634  0.1963 -0.0196
 3261TIP3    H131198   1.440   3.650   3.952 -1.0448 -0.5123 -0.4072
 3261TIP3    H231199   1.434   3.670   3.802  1.3776  1.1419 -0.3392
 3262TIP3   OH231200   3.518   3.166  16.952 -0.2845 -0.3029 -0.5494
 3262TIP3    H131201   3.512   3.100  17.021 -0.0297 -0.8317 -1.0315
 3262TIP3    H231202   3.448   3.228  16.973 -0.1215 -0.3822  0.2608
 3263TIP3   OH231203   5.416   2.844  10.686 -0.4880 -0.2692 -0.2093
 3263TIP3    H131204   5.401   2.761  10.640  1.7130 -0.4756 -0.7103
 3263TIP3    H231205   5.511   2.856  10.681 -0.1223 -0.1174  4.0552
 3264TIP3   OH231206   1.869   4.037   3.059  0.0602  0.0868  0.2090
 3264TIP3    H131207   1.907   4.105   3.003  1.1885 -0.6420  0.0679
 3264TIP3    H231208   1.803   4.083   3.111  0.8866  1.3089  0.1943
 3265TIP3   OH231209   4.388   3.468  15.595  0.2825  0.1808 -0.0407
 3265TIP3    H131210   4.350   3.450  15.509  0.5956  0.4884 -0.2466
 3265TIP3    H231211   4.374   3.387  15.645  0.2852 -0.0725 -0.4490
 3266TIP3   OH231212   0.382   4.290  12.624 -0.4328 -0.4495 -0.1287
 3266TIP3    H131213   0.448   4.268  12.690  0.9439  1.4359 -0.7774
 3266TIP3    H231214   0.429   4.286  12.541 -1.3746  0.0355 -0.7028
 3267TIP3   OH231215   6.755   1.850  12.803  0.1300 -0.0199  0.0989
 3267TIP3    H131216   6.712   1.851  12.718  2.1940  3.0047 -1.0829
 3267TIP3    H231217   6.685   1.869  12.866 -0.7089  3.1492 -1.5742
 3268TIP3   OH231218   3.355   0.222   2.283 -0.2260 -0.0442  0.1909
 3268TIP3    H131219   3.436   0.182   2.252 -0.5564 -1.8663  1.4571
 3268TIP3    H231220   3.372   0.244   2.375 -2.0039 -3.4273  1.5159
 3269TIP3   OH231221   6.670   3.153   1.444  0.0453  0.6206  0.3784
 3269TIP3    H131222   6.693   3.137   1.352 -0.1474 -0.2380  0.4726
 3269TIP3    H231223   6.753   3.154   1.490  0.0974  0.4210  0.2891
 3270TIP3   OH231224   4.201   4.070   2.852 -0.3504 -0.3745  0.3193
 3270TIP3    H131225   4.246   3.996   2.892 -0.5973 -0.8971 -0.3485
 3270TIP3    H231226   4.156   4.032   2.776  0.1732  0.6087 -0.4967
 3271TIP3   OH231227   4.629   1.543   6.490 -0.1911  0.0201 -0.3999
 3271TIP3    H131228   4.671   1.473   6.442 -1.2409  0.4430 -2.0166
 3271TIP3    H231229   4.562   1.499   6.543  1.0931 -0.4641  0.9015
 3272TIP3   OH231230   5.895   0.890  12.057 -0.1375 -0.0412 -0.0616
 3272TIP3    H131231   5.917   0.929  12.141  0.6295  2.3691 -1.2823
 3272TIP3    H231232   5.976   0.847  12.028  0.8574  2.4003 -1.1867
 3273TIP3   OH231233   1.450   2.491  11.227  0.2627  0.1469 -0.4003
 3273TIP3    H131234   1.358   2.506  11.209  0.3035  1.3249  0.2479
 3273TIP3    H231235   1.480   2.433  11.157 -0.5092  1.3025 -1.7170
 3274TIP3   OH231236   4.289   2.322   3.557  0.2600  0.3385 -0.2256
 3274TIP3    H131237   4.237   2.318   3.638 -3.1539  1.6432 -2.1538
 3274TIP3    H231238   4.370   2.365   3.584 -1.2074  1.7907  2.3222
 3275TIP3   OH231239   1.206   3.823   2.829  0.4640 -0.1570  0.1543
 3275TIP3    H131240   1.226   3.789   2.916  0.0459 -1.2670 -0.1622
 3275TIP3    H231241   1.245   3.911   2.828  1.2270 -0.4606  1.1526
 3276TIP3   OH231242   6.119   0.513   0.775  0.1253 -0.4280  0.1043
 3276TIP3    H131243   6.082   0.524   0.863 -0.3207 -0.1362 -0.1146
 3276TIP3    H231244   6.169   0.432   0.780  0.5847 -0.1114  0.7946
 3277TIP3   OH231245   5.615   2.724   0.791  0.5693  0.1501 -0.1194
 3277TIP3    H131246   5.565   2.799   0.758 -0.8749 -1.3573 -1.5261
 3277TIP3    H231247   5.707   2.750   0.779  0.1217  1.9068 -0.0067
 3278TIP3   OH231248   2.386   5.026   3.058 -0.4378  0.8938  0.4386
 3278TIP3    H131249   2.334   4.991   2.986 -0.7640 -1.8634  1.8487
 3278TIP3    H231250   2.321   5.065   3.117 -0.8155 -0.9670  1.3471
 3279TIP3   OH231251   0.192   2.614  15.744  0.2033  0.3385 -0.1093
 3279TIP3    H131252   0.215   2.704  15.723 -0.4677  0.4738 -0.2870
 3279TIP3    H231253   0.175   2.573  15.659 -0.8948  0.4378  0.0491
 3280TIP3   OH231254   6.238   1.353  11.358 -0.0958 -0.2326 -0.0089
 3280TIP3    H131255   6.207   1.440  11.384  1.5247  0.2147  0.5587
 3280TIP3    H231256   6.165   1.295  11.378 -0.2838  0.6333  2.0979
 3281TIP3   OH231257   2.655   4.757  11.255  0.1411  0.4386 -0.3618
 3281TIP3    H131258   2.712   4.760  11.179 -0.5686  1.2889 -0.8836
 3281TIP3    H231259   2.696   4.694  11.314 -0.1187 -1.4467 -2.0788
 3282TIP3   OH231260   5.658   1.156  12.182  0.1128 -0.4104  0.7841
 3282TIP3    H131261   5.576   1.185  12.142  1.2825 -0.4318 -1.8682
 3282TIP3    H231262   5.634   1.126  12.269 -2.1702  2.6005  1.3265
 3283TIP3   OH231263   2.027   3.540   0.446  0.2086  0.5169  0.1872
 3283TIP3    H131264   2.004   3.603   0.377  0.1895  0.3520  0.0422
 3283TIP3    H231265   2.072   3.593   0.512  1.4391  0.4530 -0.5548
 3284TIP3   OH231266   6.233   4.653  15.541  0.4720  0.1480  0.1082
 3284TIP3    H131267   6.301   4.654  15.473  0.6035  0.3491  0.2419
 3284TIP3    H231268   6.280   4.671  15.622  0.4256 -0.7585  0.3558
 3285TIP3   OH231269   4.673   5.740   2.828  0.4303 -0.1395  0.0055
 3285TIP3    H131270   4.591   5.715   2.870  1.5879 -3.4286  0.6653
 3285TIP3    H231271   4.664   5.712   2.737  0.8444 -0.6740  0.1214
 3286TIP3   OH231272   3.239   0.955   4.329 -0.2604  0.6974 -0.4012
 3286TIP3    H131273   3.334   0.956   4.343 -0.1215  0.9316 -1.2871
 3286TIP3    H231274   3.230   0.945   4.234 -1.1205  0.9047 -0.3419
 3287TIP3   OH231275   3.062   4.404   5.437 -0.4565  0.3722 -0.7192
 3287TIP3    H131276   2.984   4.388   5.384 -0.9965 -1.2010  0.4674
 3287TIP3    H231277   3.069   4.500   5.442 -1.6827  0.5340 -1.7243
 3288TIP3   OH231278   3.783   5.633  16.484  0.3934 -0.1032 -0.0200
 3288TIP3    H131279   3.831   5.573  16.541  0.7523  2.6094  2.7815
 3288TIP3    H231280   3.851   5.685  16.441  0.0993 -1.7166 -2.6427
 3289TIP3   OH231281   3.521   0.520  16.476 -0.3219 -0.0501  0.4245
 3289TIP3    H131282   3.487   0.580  16.542 -2.3435  1.0219 -1.4415
 3289TIP3    H231283   3.584   0.572  16.427 -1.1863  0.2347 -0.4308
 3290TIP3   OH231284   3.248   6.779   2.835 -0.2423  0.1480 -0.0529
 3290TIP3    H131285   3.184   6.850   2.836  1.5958  1.9193 -0.5801
 3290TIP3    H231286   3.267   6.763   2.927 -0.7078  0.3194  0.0757
 3291TIP3   OH231287   0.521   0.939  11.432  0.0209 -0.6298 -0.2822
 3291TIP3    H131288   0.463   0.945  11.357 -1.5973  0.7237  0.9925
 3291TIP3    H231289   0.599   0.988  11.407 -0.0050 -1.1786 -1.4766
 3292TIP3   OH231290   4.506   5.638  15.869  0.2765 -0.0719  0.5535
 3292TIP3    H131291   4.582   5.691  15.890  0.7562 -0.7674  0.6134
 3292TIP3    H231292   4.431   5.694  15.889  0.7605  0.2252  1.5938
 3293TIP3   OH231293   2.044   0.541  13.938 -0.0646  0.1355 -0.2685
 3293TIP3    H131294   2.123   0.555  13.885  0.9476 -1.5544  0.7010
 3293TIP3    H231295   2.023   0.449  13.925 -0.6570  0.0624  1.1147
 3294TIP3   OH231296   3.378   6.612  11.675  0.1116  0.0552 -0.0040
 3294TIP3    H131297   3.368   6.699  11.715 -1.1921  0.1411 -0.4595
 3294TIP3    H231298   3.472   6.602  11.663  0.6091  0.0643  2.9828
 3295TIP3   OH231299   5.163   0.842  13.772 -0.1881  0.0785 -0.4174
 3295TIP3    H131300   5.218   0.765  13.780  0.1753  0.4580  0.9707
 3295TIP3    H231301   5.074   0.807  13.766 -0.0860 -0.4522  0.8422
 3296TIP3   OH231302   3.484   4.010  11.148  0.5304  0.4055 -0.3587
 3296TIP3    H131303   3.417   4.048  11.205 -1.5722 -2.2160 -0.8855
 3296TIP3    H231304   3.495   4.074  11.078 -1.4121  0.9782 -0.2050
 3297TIP3   OH231305   6.364   3.648   0.442  0.2400  0.0977 -0.2680
 3297TIP3    H131306   6.457   3.631   0.455  0.4756  1.3724 -0.0966
 3297TIP3    H231307   6.362   3.712   0.370 -0.5178 -0.1703 -0.4861
 3298TIP3   OH231308   4.236   5.092   5.570  0.4837 -0.1121 -0.4108
 3298TIP3    H131309   4.269   5.063   5.655  1.1458 -1.6783 -1.1549
 3298TIP3    H231310   4.304   5.151   5.537 -0.6116  1.9710  0.8766
 3299TIP3   OH231311   2.159   4.994   5.903 -0.1538  0.7092  0.0093
 3299TIP3    H131312   2.124   4.959   5.821  1.4055 -2.5131  0.5535
 3299TIP3    H231313   2.114   4.943   5.971  2.2803 -0.4439  0.8683
 3300TIP3   OH231314   6.211   4.896  16.855 -0.2571 -0.6843 -0.2781
 3300TIP3    H131315   6.255   4.915  16.938 -0.2262 -1.0570 -0.2097
 3300TIP3    H231316   6.270   4.837  16.808 -1.0004 -1.8033  0.1385
 3301TIP3   OH231317   1.980   3.030  14.287 -0.3958  0.0094  0.4162
 3301TIP3    H131318   1.976   2.977  14.367  1.4890 -0.3497  0.3019
 3301TIP3    H231319   1.944   2.974  14.219  0.0769 -0.5273  0.6015
 3302TIP3   OH231320   6.468   2.442  11.767  0.5981  0.0617 -0.7354
 3302TIP3    H131321   6.509   2.504  11.828  1.6178 -2.5750  1.4250
 3302TIP3    H231322   6.506   2.464  11.682  0.7945  2.4585 -0.1058
 3303TIP3   OH231323   2.317   2.678  15.955 -0.0883 -0.3446 -0.1701
 3303TIP3    H131324   2.352   2.764  15.931 -0.3041 -0.3016 -0.3333
 3303TIP3    H231325   2.313   2.630  15.873  0.5239 -0.6908  0.0006
 3304TIP3   OH231326   0.127   4.963  12.369  0.0637  0.2034 -0.1432
 3304TIP3    H131327   0.053   4.943  12.426  0.2094  0.9484  0.3315
 3304TIP3    H231328   0.195   4.900  12.393 -0.3754 -0.4076 -0.4998
 3305TIP3   OH231329   0.619   3.761  12.747  0.0221 -0.1889  0.5375
 3305TIP3    H131330   0.595   3.772  12.655  2.6215 -1.0594 -0.3215
 3305TIP3    H231331   0.714   3.765  12.748  0.0354  0.8540  3.3807
 3306TIP3   OH231332   4.804   6.261  14.344  0.1104  0.0989 -0.0175
 3306TIP3    H131333   4.886   6.213  14.333  0.4176  0.8784 -1.2668
 3306TIP3    H231334   4.756   6.245  14.263  0.8785  3.1093 -1.1948
 3307TIP3   OH231335   4.179   0.980   0.940  0.5019 -0.1998 -0.1872
 3307TIP3    H131336   4.250   1.008   0.883  1.5952 -0.3954  1.0193
 3307TIP3    H231337   4.215   0.906   0.989 -0.3975 -0.0607  0.7290
 3308TIP3   OH231338   6.050   4.344  13.214 -0.5501  0.4160  1.0108
 3308TIP3    H131339   6.128   4.360  13.268  0.5650 -1.1012 -0.0745
 3308TIP3    H231340   5.979   4.386  13.263  1.0222  2.4619  1.6860
 3309TIP3   OH231341   2.744   1.121   1.524  0.2743  0.2459 -0.2219
 3309TIP3    H131342   2.833   1.089   1.512  0.1265 -0.1524 -0.2475
 3309TIP3    H231343   2.688   1.047   1.500 -0.0555  0.2169  0.6213
 3310TIP3   OH231344   0.027   1.054  15.235  0.1442  0.1887 -0.1116
 3310TIP3    H131345   0.042   0.975  15.288 -2.9945 -1.0280 -0.8327
 3310TIP3    H231346   0.079   1.039  15.156  1.4108 -0.0133  0.7234
 3311TIP3   OH231347   0.236   0.602   0.591  0.0005  0.3150 -0.1327
 3311TIP3    H131348   0.273   0.690   0.596  0.6975 -0.0138  0.6660
 3311TIP3    H231349   0.298   0.553   0.536 -0.7465  0.4840 -1.1626
 3312TIP3   OH231350   4.808   6.596  11.904 -0.4993  0.5280 -0.0577
 3312TIP3    H131351   4.734   6.547  11.869  0.1924  0.6227 -1.7490
 3312TIP3    H231352   4.772   6.644  11.978 -2.4016  1.3352 -1.4237
 3313TIP3   OH231353   2.211   3.678  11.301 -0.2678 -0.0592 -0.0203
 3313TIP3    H131354   2.175   3.767  11.302  1.2061  0.5638  1.9384
 3313TIP3    H231355   2.286   3.683  11.241 -3.0557 -1.3333 -4.0206
 3314TIP3   OH231356   6.070   0.132   3.717  0.5075 -0.6166  0.5725
 3314TIP3    H131357   6.144   0.133   3.657  0.2762  0.2870  0.2785
 3314TIP3    H231358   5.993   0.127   3.659  0.0972  3.3727  0.4880
 3315TIP3   OH231359   2.899   2.137  11.058  0.7804  0.4434  0.2864
 3315TIP3    H131360   2.831   2.074  11.084 -0.4232  1.9995  1.1564
 3315TIP3    H231361   2.932   2.104  10.975  1.0102 -1.9173  1.2286
 3316TIP3   OH231362   4.761   2.025   4.019 -0.2296 -0.1224  0.0285
 3316TIP3    H131363   4.758   2.008   4.113 -0.1079  1.1758  0.2961
 3316TIP3    H231364   4.762   1.939   3.978 -0.7752 -0.7057  1.2031
 3317TIP3   OH231365   3.370   4.863   5.230 -0.2022 -0.0953  0.0006
 3317TIP3    H131366   3.416   4.795   5.182 -2.3880 -0.9484 -1.0445
 3317TIP3    H231367   3.332   4.919   5.162  0.2696  1.2645  0.8239
 3318TIP3   OH231368   1.226   6.786   4.785  0.6481  0.2582  0.4912
 3318TIP3    H131369   1.292   6.759   4.721  0.1882  0.3814 -0.0382
 3318TIP3    H231370   1.142   6.774   4.740  0.2091 -1.2552  1.6266
 3319TIP3   OH231371   3.712   1.043  16.110 -0.2796 -0.4391 -0.4491
 3319TIP3    H131372   3.702   1.098  16.188  2.3661 -3.1745  2.0644
 3319TIP3    H231373   3.776   1.090  16.056 -0.5570  0.4753 -0.0091
 3320TIP3   OH231374   1.657   3.261  15.288 -0.3514 -0.1970  0.3174
 3320TIP3    H131375   1.588   3.219  15.339  0.1249 -1.3685  0.0431
 3320TIP3    H231376   1.611   3.308  15.218 -0.9165  0.0036  0.8204
 3321TIP3   OH231377   5.488   1.487  13.937 -0.1413 -0.5280  0.0594
 3321TIP3    H131378   5.450   1.403  13.962 -2.0825  0.3683  0.3121
 3321TIP3    H231379   5.433   1.519  13.866 -0.6483  1.3539  1.2039
 3322TIP3   OH231380   3.366   2.977   4.265  0.6377  0.5418 -0.0033
 3322TIP3    H131381   3.395   2.920   4.337 -0.2825  1.7183  1.3602
 3322TIP3    H231382   3.438   3.038   4.253  0.8761  0.2199 -0.2143
 3323TIP3   OH231383   5.942   3.578   0.924 -0.0936  0.3359 -0.0617
 3323TIP3    H131384   5.993   3.657   0.940 -0.9603  0.7082  0.9516
 3323TIP3    H231385   6.004   3.506   0.936  0.3245  0.7996  0.5856
 3324TIP3   OH231386   3.799   0.220  12.785 -0.1188 -0.0973  0.1867
 3324TIP3    H131387   3.869   0.168  12.745  0.6092  0.5636  0.5579
 3324TIP3    H231388   3.842   0.303  12.807 -0.5189 -0.4026  2.2433
 3325TIP3   OH231389   4.768   1.409  11.003 -0.2600 -0.0498 -0.5592
 3325TIP3    H131390   4.696   1.387  11.062 -0.8193  2.0468 -0.3909
 3325TIP3    H231391   4.814   1.481  11.047  0.7475 -0.0306 -1.5915
 3326TIP3   OH231392   3.737   0.551   3.090  0.3728  0.0789  0.5906
 3326TIP3    H131393   3.756   0.564   2.997 -1.3917  0.7928  0.2864
 3326TIP3    H231394   3.727   0.457   3.100  0.2081  0.0296 -0.0300
 3327TIP3   OH231395   4.232   6.314   2.900 -0.0902 -0.1586  0.4704
 3327TIP3    H131396   4.277   6.306   2.984 -0.2329  0.2136  0.5845
 3327TIP3    H231397   4.156   6.370   2.918 -0.3711 -0.4440  0.1916
 3328TIP3   OH231398   3.130   3.281   4.699  0.6560  0.3028 -0.5393
 3328TIP3    H131399   3.161   3.213   4.639 -1.6534 -2.6626  1.3565
 3328TIP3    H231400   3.179   3.265   4.780 -0.5884  0.2677  0.2187
 3329TIP3   OH231401   5.139   3.533   2.884  0.1667 -0.3392  0.0460
 3329TIP3    H131402   5.093   3.497   2.960 -2.3058 -1.0796 -1.6529
 3329TIP3    H231403   5.189   3.460   2.849  0.7724 -0.1772  0.5596
 3330TIP3   OH231404   0.495   2.381   2.923  0.1544 -0.3440 -0.5516
 3330TIP3    H131405   0.460   2.399   3.010  0.3981 -1.5943 -0.1747
 3330TIP3    H231406   0.421   2.394   2.864  0.5706  3.0820 -0.5319
 3331TIP3   OH231407   1.081   3.265   3.796 -0.5587  0.0585 -0.0544
 3331TIP3    H131408   1.113   3.335   3.739  2.3297  0.1046  1.4459
 3331TIP3    H231409   1.072   3.306   3.882 -1.0706 -0.8977  0.3691
 3332TIP3   OH231410   6.626   4.829  11.176  0.7252 -0.0601  0.4154
 3332TIP3    H131411   6.715   4.847  11.147  0.9633  0.5259  1.4660
 3332TIP3    H231412   6.571   4.861  11.105  1.3198  0.3140  0.1144
 3333TIP3   OH231413   0.684   0.016  14.167  0.1489  0.7525 -0.0377
 3333TIP3    H131414   0.639   0.097  14.192 -0.8007  0.1766  0.1762
 3333TIP3    H231415   0.771   0.024  14.207 -0.1471  1.3928  0.5111
 3334TIP3   OH231416   1.782   2.163   0.613  0.4584 -0.0141  0.0450
 3334TIP3    H131417   1.704   2.172   0.558  0.9429  0.3526 -0.6026
 3334TIP3    H231418   1.748   2.145   0.701 -0.5285  3.3768  0.5060
 3335TIP3   OH231419   6.669   1.637   0.793  0.5800  0.1853 -0.3974
 3335TIP3    H131420   6.624   1.559   0.823  1.5423  0.0676  0.8394
 3335TIP3    H231421   6.629   1.658   0.709 -0.3592 -1.0613 -0.2784
 3336TIP3   OH231422   3.654   4.482   2.199  0.3670  0.1470  0.2253
 3336TIP3    H131423   3.648   4.577   2.189  0.3592  0.2272  0.9487
 3336TIP3    H231424   3.592   4.448   2.135  2.2176  0.5119 -1.9422
 3337TIP3   OH231425   5.403   4.632   0.645  0.2294  0.5116  0.1623
 3337TIP3    H131426   5.458   4.555   0.639  2.3941  1.9476  0.3142
 3337TIP3    H231427   5.349   4.630   0.565  1.3998 -0.3183 -0.6357
 3338TIP3   OH231428   2.030   0.622   0.713  0.5596 -0.7801  1.0395
 3338TIP3    H131429   1.959   0.572   0.754  0.3217 -0.6473  0.7983
 3338TIP3    H231430   2.048   0.694   0.773 -0.5656  0.0715  0.3985
 3339TIP3   OH231431   4.559   0.375   6.167  0.5853 -0.3639 -0.2665
 3339TIP3    H131432   4.624   0.309   6.190 -0.3783 -0.7232  1.6546
 3339TIP3    H231433   4.592   0.456   6.206  0.1305 -0.4552  0.3312
 3340TIP3   OH231434   4.137   1.801   5.574 -0.3760 -0.1216 -0.0522
 3340TIP3    H131435   4.216   1.765   5.614  0.6138  2.5272  0.5672
 3340TIP3    H231436   4.083   1.827   5.649 -0.3166  1.1550 -0.4300
 3341TIP3   OH231437   2.256   0.369  11.128  0.4693  0.1118 -0.0007
 3341TIP3    H131438   2.169   0.331  11.133 -1.0974  3.5638  1.8918
 3341TIP3    H231439   2.276   0.370  11.034 -1.8157 -0.1696 -0.5418
 3342TIP3   OH231440   4.226   4.916  11.333  0.3809 -0.4453  0.3515
 3342TIP3    H131441   4.312   4.934  11.373  1.0240 -1.0313 -0.7419
 3342TIP3    H231442   4.169   4.983  11.370  1.2345 -0.2299  1.3339
 3343TIP3   OH231443   2.354   1.185   5.068  0.1224  0.1074  0.2312
 3343TIP3    H131444   2.379   1.269   5.029  2.1865  0.8821  2.9398
 3343TIP3    H231445   2.431   1.130   5.058  0.0347 -0.2696  1.5506
 3344TIP3   OH231446   6.333   2.779   1.925  0.4344  0.2696  0.2297
 3344TIP3    H131447   6.376   2.709   1.974  1.1202  0.7448  0.3237
 3344TIP3    H231448   6.314   2.846   1.990  4.1808  2.3204 -0.4798
 3345TIP3   OH231449   4.429   4.752   5.615  0.0013 -0.4007  0.6186
 3345TIP3    H131450   4.436   4.842   5.648  0.2379 -0.0995 -0.2406
 3345TIP3    H231451   4.339   4.727   5.635 -0.7639  0.8289 -1.0917
 3346TIP3   OH231452   1.406   0.227  16.794  0.5156 -0.0350 -0.1951
 3346TIP3    H131453   1.454   0.307  16.818  1.3254 -0.1888 -1.2757
 3346TIP3    H231454   1.437   0.161  16.856 -1.4109  0.8153  1.8718
 3347TIP3   OH231455   0.231   1.684  15.945  0.3908  0.0208  0.2861
 3347TIP3    H131456   0.245   1.774  15.915  2.5316 -0.5398 -0.5747
 3347TIP3    H231457   0.186   1.641  15.873  0.2101  0.1677  0.3115
 3348TIP3   OH231458   0.446   2.196  13.352  0.6635 -0.0415  0.7984
 3348TIP3    H131459   0.353   2.217  13.360  0.7150  0.1874  0.7919
 3348TIP3    H231460   0.483   2.269  13.303  0.7963 -0.2651  0.5616
 3349TIP3   OH231461   0.199   1.730  14.546  0.2197  0.0477  0.2691
 3349TIP3    H131462   0.164   1.775  14.622 -1.0009  0.6102 -0.6048
 3349TIP3    H231463   0.271   1.677  14.581 -0.6996 -0.1858  1.9109
 3350TIP3   OH231464   4.340   0.292   3.185  0.1609  0.3517 -0.0373
 3350TIP3    H131465   4.342   0.340   3.268 -0.3032  2.3441 -1.1380
 3350TIP3    H231466   4.419   0.320   3.139 -0.1067  0.0590 -0.6908
 3351TIP3   OH231467   2.364   4.513  15.388 -0.2944  0.8990  0.0423
 3351TIP3    H131468   2.425   4.569  15.340  0.7325 -0.1141  0.1254
 3351TIP3    H231469   2.400   4.424  15.378 -1.4416  0.3541  0.5779
 3352TIP3   OH231470   6.715   1.524  16.681 -0.1814 -0.3822 -0.8171
 3352TIP3    H131471   6.744   1.610  16.649 -0.6091 -0.2912 -0.9598
 3352TIP3    H231472   6.797   1.478  16.703 -0.0048  0.6875  0.9312
 3353TIP3   OH231473   4.358   5.186  15.986 -0.6444 -0.5685 -0.4440
 3353TIP3    H131474   4.337   5.184  16.080  0.7605  1.8490 -0.0033
 3353TIP3    H231475   4.273   5.200  15.943 -0.9910  1.0042  0.6759
 3354TIP3   OH231476   3.425   3.800  10.771  0.1535  0.1707 -0.3913
 3354TIP3    H131477   3.343   3.847  10.757  0.2158  0.0991 -0.9957
 3354TIP3    H231478   3.490   3.868  10.782 -0.1305  0.2422  1.0324
 3355TIP3   OH231479   4.335   6.588  11.999 -0.3204 -0.4868 -1.3514
 3355TIP3    H131480   4.241   6.583  11.982 -0.7443  2.3900 -0.3927
 3355TIP3    H231481   4.349   6.531  12.075 -1.1987 -1.1783 -1.6915
 3356TIP3   OH231482   3.376   5.568   4.837 -0.1078 -0.5233  0.0954
 3356TIP3    H131483   3.307   5.635   4.834 -1.8275 -2.1935  0.4879
 3356TIP3    H231484   3.408   5.572   4.928 -0.0718 -0.1274  0.0689
 3357TIP3   OH231485   6.412   5.373  14.451 -0.7471 -0.7587 -0.3624
 3357TIP3    H131486   6.368   5.291  14.474 -1.3840 -1.2949 -3.1677
 3357TIP3    H231487   6.504   5.348  14.438 -0.0404 -0.1720  2.6762
 3358TIP3   OH231488   4.984   2.984   5.848 -0.6446 -0.3498  0.4230
 3358TIP3    H131489   4.894   3.014   5.858 -0.8330 -0.6135 -0.4079
 3358TIP3    H231490   5.034   3.040   5.907 -1.4586 -0.8169  1.6004
 3359TIP3   OH231491   6.056   0.989   0.992  0.5849 -0.4716  0.2480
 3359TIP3    H131492   6.119   1.059   1.010 -0.1043  0.1530  0.3104
 3359TIP3    H231493   6.106   0.909   0.997  1.2575 -0.0217  0.8531
 3360TIP3   OH231494   6.534   6.201  15.037  0.6558  0.5039 -0.0484
 3360TIP3    H131495   6.529   6.292  15.009  1.0239  0.8152  0.8588
 3360TIP3    H231496   6.515   6.150  14.958 -1.9393  1.3704 -0.0786
 3361TIP3   OH231497   2.772   6.211   4.906 -0.8435 -0.1815  0.2791
 3361TIP3    H131498   2.832   6.209   4.981 -0.4266  1.5959  0.0303
 3361TIP3    H231499   2.799   6.136   4.853  0.8283  0.2462  0.4483
 3362TIP3   OH231500   1.321   5.137   0.920 -0.4635  0.1671  0.0995
 3362TIP3    H131501   1.304   5.226   0.890 -0.1052 -0.2338 -1.3393
 3362TIP3    H231502   1.360   5.148   1.006 -1.0703  1.3700  0.2454
 3363TIP3   OH231503   0.496   0.667  14.015  0.4675 -0.2850  0.1858
 3363TIP3    H131504   0.540   0.601  14.069 -0.4028 -0.6311  0.4889
 3363TIP3    H231505   0.511   0.637  13.925 -0.3716 -1.2022  0.3375
 3364TIP3   OH231506   3.830   5.027   5.351  0.2348 -0.2734  0.4649
 3364TIP3    H131507   3.757   5.054   5.295  1.1419  1.1061 -0.0975
 3364TIP3    H231508   3.791   5.017   5.438 -0.5585  0.8279  0.2538
 3365TIP3   OH231509   4.465   3.098   4.578  0.0997  0.3011  0.0693
 3365TIP3    H131510   4.497   3.064   4.662 -1.5889 -0.4528  0.4536
 3365TIP3    H231511   4.373   3.119   4.594 -0.5315 -0.7389 -1.8074
 3366TIP3   OH231512   5.545   4.736   4.793 -0.2035  0.3349  0.1820
 3366TIP3    H131513   5.455   4.743   4.760 -0.2031  1.0917  0.3186
 3366TIP3    H231514   5.536   4.707   4.883 -0.3968  1.8505  0.6700
 3367TIP3   OH231515   5.221   3.732   3.298  0.1893  0.4042  0.9221
 3367TIP3    H131516   5.284   3.804   3.302 -1.0482  1.7386 -1.5688
 3367TIP3    H231517   5.156   3.760   3.234 -2.1940 -1.5239  2.3214
 3368TIP3   OH231518   0.506   1.917  13.152 -0.4736  0.3727  0.0995
 3368TIP3    H131519   0.493   1.822  13.154 -0.6383  0.3906 -0.0933
 3368TIP3    H231520   0.445   1.948  13.085  1.2193  0.3537 -1.5116
 3369TIP3   OH231521   6.691   0.713  13.155  0.4050  0.0675  0.0106
 3369TIP3    H131522   6.600   0.741  13.158 -0.1035 -1.5712  0.7023
 3369TIP3    H231523   6.725   0.748  13.072  0.0274  3.1910  1.0405
 3370TIP3   OH231524   1.581   2.460   1.467 -0.3041  0.0481 -0.0433
 3370TIP3    H131525   1.545   2.384   1.422  2.7516 -1.0539 -0.8418
 3370TIP3    H231526   1.531   2.534   1.432 -3.9996 -1.5057  1.4443
 3371TIP3   OH231527   5.603   3.764  16.175  0.2742  0.2515  0.0144
 3371TIP3    H131528   5.513   3.733  16.163  0.3219  0.1589 -0.1085
 3371TIP3    H231529   5.604   3.800  16.263  0.6173 -1.5392  0.7893
 3372TIP3   OH231530   3.157   6.101  12.360  0.4570  0.5520 -0.0635
 3372TIP3    H131531   3.222   6.153  12.407 -1.1299  2.4691  0.1368
 3372TIP3    H231532   3.097   6.165  12.322 -1.6739 -1.0980  0.2585
 3373TIP3   OH231533   1.560   1.495  13.538 -0.5910 -0.0858  0.0663
 3373TIP3    H131534   1.475   1.465  13.568 -0.5145  1.3048  1.8097
 3373TIP3    H231535   1.550   1.589  13.526  0.7737  0.1488  0.5736
 3374TIP3   OH231536   1.462   4.549   3.491  0.0366 -0.1723 -0.5701
 3374TIP3    H131537   1.378   4.532   3.447 -1.6893  1.4119  1.8532
 3374TIP3    H231538   1.491   4.632   3.454  0.6071 -0.7565 -1.4620
 3375TIP3   OH231539   2.973   6.558   4.880 -0.4869  0.0759  0.2765
 3375TIP3    H131540   3.043   6.558   4.815 -0.2686 -3.1098  0.3431
 3375TIP3    H231541   2.912   6.491   4.849 -2.3368  1.1217  1.4457
 3376TIP3   OH231542   3.751   5.475  15.332  0.6336  0.3778  0.4070
 3376TIP3    H131543   3.710   5.553  15.371  1.3278  1.2150 -0.4724
 3376TIP3    H231544   3.702   5.461  15.251 -0.3847 -0.9579  1.2212
 3377TIP3   OH231545   4.534   4.296   6.447 -0.1062  0.1738 -0.3391
 3377TIP3    H131546   4.512   4.247   6.526 -1.6027  0.5459 -0.5034
 3377TIP3    H231547   4.450   4.315   6.405  0.6565 -0.2838 -2.2010
 3378TIP3   OH231548   1.374   4.048   2.870 -0.1419  0.4072  0.4644
 3378TIP3    H131549   1.374   4.142   2.852  1.5546  0.4125  0.3276
 3378TIP3    H231550   1.421   4.039   2.953  0.2712 -0.3484  0.1668
 3379TIP3   OH231551   3.313   4.671   5.714 -0.4475  0.1763  0.3863
 3379TIP3    H131552   3.334   4.595   5.767 -1.0368 -1.0892 -1.1008
 3379TIP3    H231553   3.225   4.696   5.742 -1.4959 -1.5733 -1.0778
 3380TIP3   OH231554   6.275   3.583  15.553  0.5772 -1.0321 -0.0176
 3380TIP3    H131555   6.193   3.565  15.507 -0.0903 -0.7972  1.0461
 3380TIP3    H231556   6.305   3.666  15.517 -0.5313 -0.2695  0.7462
 3381TIP3   OH231557   4.240   1.933   2.448  0.1752  0.5982  0.7188
 3381TIP3    H131558   4.329   1.923   2.414 -0.6645  0.2254 -1.5632
 3381TIP3    H231559   4.245   2.009   2.506  1.6609  1.6241 -0.6571
 3382TIP3   OH231560   5.032   1.772   6.145  0.5623 -0.1370 -0.3789
 3382TIP3    H131561   5.120   1.804   6.124  0.0799  0.3872 -1.7093
 3382TIP3    H231562   4.998   1.836   6.208  0.2124  1.1430 -1.7936
 3383TIP3   OH231563   6.202   1.031  14.272  0.1765 -0.1066  0.5693
 3383TIP3    H131564   6.226   0.952  14.224  2.3421  0.4903  0.5200
 3383TIP3    H231565   6.177   1.001  14.359  0.1237 -0.9125  0.2786
 3384TIP3   OH231566   3.421   4.940  14.049 -0.2883 -0.2686 -0.3265
 3384TIP3    H131567   3.378   4.854  14.042  0.4736 -0.6506 -0.4253
 3384TIP3    H231568   3.515   4.920  14.045  0.1607  0.1052  3.8021
 3385TIP3   OH231569   5.444   4.256   5.146 -0.3919  0.0486  0.2889
 3385TIP3    H131570   5.490   4.172   5.159  1.4577  0.8958 -0.4077
 3385TIP3    H231571   5.431   4.290   5.234  1.5186  0.3544  0.5006
 3386TIP3   OH231572   0.333   1.582   3.344 -0.3558 -0.1430  0.2997
 3386TIP3    H131573   0.398   1.528   3.389 -1.4270 -1.7276  0.0324
 3386TIP3    H231574   0.259   1.585   3.405  0.2046  2.3921  1.0037
 3387TIP3   OH231575   6.543   0.617   4.112  0.3427 -0.3281  0.7544
 3387TIP3    H131576   6.542   0.694   4.055  0.0907 -1.5524 -0.9438
 3387TIP3    H231577   6.454   0.582   4.107  0.4564 -0.7576  1.5048
 3388TIP3   OH231578   4.348   0.414   5.889  0.4659  0.3370 -0.2910
 3388TIP3    H131579   4.361   0.354   5.962 -1.0457  0.4563  0.0976
 3388TIP3    H231580   4.411   0.485   5.905  0.4533  0.1453  0.6650
 3389TIP3   OH231581   5.948   4.413   5.597 -0.4264  0.1359 -0.2093
 3389TIP3    H131582   6.013   4.441   5.661 -0.3669 -0.0593 -0.1843
 3389TIP3    H231583   5.991   4.424   5.512  0.9889 -3.2862 -0.1080
 3390TIP3   OH231584   2.663   2.077  16.246 -0.7415  0.2652 -0.6413
 3390TIP3    H131585   2.735   2.137  16.228 -0.0700 -0.1883  0.4817
 3390TIP3    H231586   2.660   2.020  16.169 -2.2538  2.5085 -2.3713
 3391TIP3   OH231587   5.244   0.801  12.287 -0.3257  0.7943 -0.0885
 3391TIP3    H131588   5.333   0.806  12.251 -0.3161  0.6739 -0.0815
 3391TIP3    H231589   5.234   0.882  12.337  0.5382 -0.1281  1.6617
 3392TIP3   OH231590   2.160   5.126  15.225 -0.0786  0.5094 -0.4202
 3392TIP3    H131591   2.168   5.142  15.131 -0.2059 -1.0447 -0.7137
 3392TIP3    H231592   2.200   5.040  15.239 -1.5430 -0.0525  0.6679
 3393TIP3   OH231593   4.875   3.865  12.422 -0.0881 -0.0653  0.6142
 3393TIP3    H131594   4.907   3.775  12.428 -1.0930 -0.4888  0.0561
 3393TIP3    H231595   4.823   3.877  12.501  1.7404  0.7660  1.7306
 3394TIP3   OH231596   4.589   3.918   1.803  0.2718 -0.3070  0.1899
 3394TIP3    H131597   4.594   3.994   1.745 -1.3255  0.6138  1.2206
 3394TIP3    H231598   4.600   3.953   1.891  1.8756 -1.5945  0.5559
 3395TIP3   OH231599   6.742   2.372  14.296 -0.1106 -0.5331  0.3322
 3395TIP3    H131600   6.727   2.311  14.368  1.2125  0.4689  1.5249
 3395TIP3    H231601   6.810   2.431  14.329 -0.9048  1.2027 -1.0049
 3396TIP3   OH231602   5.035   6.070  14.327 -0.3229 -0.4983 -0.1395
 3396TIP3    H131603   5.009   6.002  14.264 -0.5632 -0.6335  0.1035
 3396TIP3    H231604   5.124   6.094  14.300 -0.7864  0.1743 -1.1593
 3397TIP3   OH231605   2.193   2.354  15.443 -0.2807  0.0639  0.8639
 3397TIP3    H131606   2.099   2.347  15.427 -0.3810 -1.6051  1.9387
 3397TIP3    H231607   2.214   2.446  15.429 -1.8770  0.2626 -0.3899
 3398TIP3   OH231608   2.010   2.902   3.862 -0.0614  0.5761  0.2633
 3398TIP3    H131609   1.981   2.843   3.931  1.6633 -0.2982  0.3026
 3398TIP3    H231610   2.044   2.844   3.794  0.5972  1.4913 -0.2043
 3399TIP3   OH231611   6.727   5.355  11.988 -0.2317 -0.4264  0.0754
 3399TIP3    H131612   6.685   5.429  11.944 -0.5084 -0.0893  0.8902
 3399TIP3    H231613   6.712   5.371  12.081  2.2075  0.0368  0.4536
 3400TIP3   OH231614   0.993   0.027  16.228 -0.6364  0.6064  0.0252
 3400TIP3    H131615   1.040   0.081  16.290  0.4681  0.4277 -0.6349
 3400TIP3    H231616   1.060  -0.026  16.185 -1.7046 -1.6941  1.0115
 3401TIP3   OH231617   5.153   2.192  15.353  0.1111 -0.3006 -0.0494
 3401TIP3    H131618   5.106   2.110  15.341  1.0473 -0.7230 -0.9693
 3401TIP3    H231619   5.194   2.184  15.439 -2.2702  0.5002  1.2399
 3402TIP3   OH231620   2.346   5.365   0.617 -0.6415 -0.1972  0.9748
 3402TIP3    H131621   2.428   5.370   0.665 -0.7268 -0.3275  1.1351
 3402TIP3    H231622   2.314   5.455   0.615 -0.5436 -0.1620  0.9973
 3403TIP3   OH231623   5.100   3.816   6.479  0.6210 -0.4570 -0.3068
 3403TIP3    H131624   5.038   3.888   6.495 -0.5299 -1.5680  0.3685
 3403TIP3    H231625   5.055   3.760   6.416  0.7187 -1.5462  0.5762
 3404TIP3   OH231626   4.847   3.264  16.004 -0.2011  0.7951 -0.0945
 3404TIP3    H131627   4.870   3.331  16.069 -0.4747  0.8910 -0.0948
 3404TIP3    H231628   4.912   3.195  16.016 -0.3899  0.7077  0.4405
 3405TIP3   OH231629   0.001   2.822   3.771 -0.0267 -0.5156 -0.1098
 3405TIP3    H131630   0.073   2.816   3.834  0.5416 -2.3021 -0.8372
 3405TIP3    H231631   0.039   2.868   3.696 -0.4481  0.8456  0.4857
 3406TIP3   OH231632   0.758   3.540  15.952  0.7826 -0.9861 -0.2291
 3406TIP3    H131633   0.819   3.565  15.883 -0.6626  1.1579 -0.8149
 3406TIP3    H231634   0.773   3.604  16.022  0.2471 -1.3537  0.2340
 3407TIP3   OH231635   0.089   1.139  16.864 -0.4631  0.8808  0.0736
 3407TIP3    H131636   0.048   1.204  16.921 -1.0050  1.2634 -0.7343
 3407TIP3    H231637   0.181   1.164  16.860 -0.3819  0.7349  0.9227
 3408TIP3   OH231638   1.974   0.243   0.922 -0.5765 -0.1167 -0.0675
 3408TIP3    H131639   2.043   0.196   0.876 -0.9293 -0.5759 -0.1389
 3408TIP3    H231640   1.893   0.208   0.885 -0.9090 -1.3732  1.6775
 3409TIP3   OH231641   2.250   5.583  16.546 -0.4490  0.1637 -0.1912
 3409TIP3    H131642   2.262   5.640  16.622  0.9652 -1.0409  0.5335
 3409TIP3    H231643   2.221   5.642  16.476  0.5447  1.7005  0.6371
 3410TIP3   OH231644   6.455   5.041   5.056  0.1878  0.1767 -0.3312
 3410TIP3    H131645   6.408   5.120   5.030  1.0727  0.5862 -0.6968
 3410TIP3    H231646   6.438   4.978   4.986  0.0699  0.2709 -0.3872
 3411TIP3   OH231647   4.574   1.161  12.301 -0.3475 -0.6203 -0.4542
 3411TIP3    H131648   4.513   1.211  12.247  0.4321  0.1119 -0.6896
 3411TIP3    H231649   4.520   1.123  12.370 -1.1095 -0.2480 -0.8334
 3412TIP3   OH231650   5.704   4.529  16.146  0.3028  0.1686  0.6533
 3412TIP3    H131651   5.780   4.548  16.091 -1.0165  2.0591 -0.6567
 3412TIP3    H231652   5.723   4.444  16.185  3.2146  0.7221  0.6649
 3413TIP3   OH231653   0.126   5.948   4.089 -0.2743  0.1601 -0.0135
 3413TIP3    H131654   0.142   6.041   4.072 -1.1121  0.0948 -1.3816
 3413TIP3    H231655   0.050   5.947   4.147  0.6120  0.3435  1.1664
 3414TIP3   OH231656   5.378   2.581   3.329  0.1918 -0.7934  0.0928
 3414TIP3    H131657   5.447   2.517   3.348 -0.2337 -1.0682  0.7330
 3414TIP3    H231658   5.325   2.584   3.408 -1.1652 -1.3762 -0.7683
 3415TIP3   OH231659   4.628   1.892  15.939  0.0997 -0.2341 -0.5076
 3415TIP3    H131660   4.559   1.884  16.005  0.4508  0.3223 -0.0637
 3415TIP3    H231661   4.639   1.804  15.905  1.3590 -0.9848  1.6727
 3416TIP3   OH231662   4.838   5.366  14.393 -0.1712 -0.3831 -0.0630
 3416TIP3    H131663   4.845   5.351  14.299 -1.1509  0.5208 -0.2899
 3416TIP3    H231664   4.921   5.408  14.417  0.3985 -1.2961 -0.3620
 3417TIP3   OH231665   3.149   5.944   3.227  0.6750 -0.0128 -0.0835
 3417TIP3    H131666   3.071   5.919   3.276  1.4921  1.9685  2.4932
 3417TIP3    H231667   3.220   5.892   3.267  0.8547 -1.2707 -1.9114
 3418TIP3   OH231668   3.002   6.466   2.177 -0.4164 -0.3487 -0.3592
 3418TIP3    H131669   2.933   6.481   2.113  0.7756  2.4660 -1.1804
 3418TIP3    H231670   3.076   6.435   2.125  0.5155  1.8220 -0.4578
 3419TIP3   OH231671   3.868   0.862  15.034  0.1069  0.1449  0.9538
 3419TIP3    H131672   3.870   0.945  14.985  2.3642 -0.4905 -0.1516
 3419TIP3    H231673   3.777   0.832  15.027 -0.2958  1.5495 -0.3201
 3420TIP3   OH231674   5.440   4.930  14.509  0.4408 -0.0956  0.5177
 3420TIP3    H131675   5.484   4.999  14.460 -0.2184 -0.0442 -0.0143
 3420TIP3    H231676   5.482   4.849  14.479  2.1793  0.1263  2.1459
 3421TIP3   OH231677   6.570   0.404  12.630  0.2159  0.4851  0.0514
 3421TIP3    H131678   6.558   0.314  12.601  0.0633 -0.6389  3.2717
 3421TIP3    H231679   6.660   0.407  12.664  0.0607  1.4211  0.4181
 3422TIP3   OH231680   6.600   3.133   1.766  0.5781  0.2866  0.1283
 3422TIP3    H131681   6.642   3.052   1.737 -0.6954 -0.2490 -0.3062
 3422TIP3    H231682   6.660   3.202   1.740  1.1036 -0.4368 -0.6305
 3423TIP3   OH231683   3.864   6.432  16.622  0.2853  0.5082  0.0012
 3423TIP3    H131684   3.905   6.428  16.709  1.5217  0.7053 -0.5521
 3423TIP3    H231685   3.917   6.496  16.574 -0.5087  0.5483 -0.8365
 3424TIP3   OH231686   1.146   0.767  11.104 -0.2885 -0.1441  0.0724
 3424TIP3    H131687   1.074   0.760  11.041  0.8776  1.4610 -1.5578
 3424TIP3    H231688   1.185   0.680  11.106 -2.1443 -1.0077  0.9022
 3425TIP3   OH231689   6.635   0.052  15.931 -0.0549 -0.5289 -0.1739
 3425TIP3    H131690   6.600   0.088  15.850  1.4210 -0.7355 -0.9381
 3425TIP3    H231691   6.584   0.094  16.000  0.0344  1.2258 -1.1188
 3426TIP3   OH231692   6.498   5.179  12.946  0.4094 -0.3512 -0.3230
 3426TIP3    H131693   6.424   5.155  13.001  0.5625  0.1459  0.1011
 3426TIP3    H231694   6.500   5.274  12.948  1.1980 -0.3670 -0.1497
 3427TIP3   OH231695   2.179   4.999  14.417 -0.1386  0.4209  0.1192
 3427TIP3    H131696   2.245   4.991  14.349  0.3004  1.8370  0.3350
 3427TIP3    H231697   2.213   4.948  14.491 -0.5475 -0.9954 -0.6363
 3428TIP3   OH231698   4.428   3.050  14.584 -0.2589 -0.3956  0.4461
 3428TIP3    H131699   4.477   3.082  14.508  1.1551 -3.7817 -0.2548
 3428TIP3    H231700   4.488   3.064  14.658 -0.5751  0.5253  0.5437
 3429TIP3   OH231701   0.326   4.272  14.855 -0.3307 -0.2113  0.5486
 3429TIP3    H131702   0.264   4.291  14.925 -1.6887  1.0267 -0.9060
 3429TIP3    H231703   0.358   4.358  14.827 -0.7219 -0.5554 -1.0950
 3430TIP3   OH231704   5.034   5.385  11.435  0.1599 -0.1009  0.0324
 3430TIP3    H131705   5.080   5.307  11.467 -2.0690 -1.0300  1.2000
 3430TIP3    H231706   4.959   5.349  11.386 -1.3067  1.2569  1.1841
 3431TIP3   OH231707   1.315   1.855   5.719 -0.9206  0.7875 -0.3479
 3431TIP3    H131708   1.406   1.850   5.689 -0.5241  1.7818  0.6472
 3431TIP3    H231709   1.321   1.855   5.814 -2.1261 -1.6575 -0.2059
 3432TIP3   OH231710   4.361   5.508  13.767 -0.0908 -0.3226 -0.0479
 3432TIP3    H131711   4.380   5.551  13.850  0.8759  0.4059 -0.6226
 3432TIP3    H231712   4.399   5.421  13.776  2.9865  0.7982 -0.8346
 3433TIP3   OH231713   2.500   5.973  17.094  0.2919 -0.6070 -0.2282
 3433TIP3    H131714   2.550   6.044  17.135 -0.1423 -0.3353 -0.1622
 3433TIP3    H231715   2.479   6.005  17.007 -0.9297 -0.1512  0.2147
 3434TIP3   OH231716   2.190   4.106   2.835  0.3883 -0.1791 -0.0311
 3434TIP3    H131717   2.191   4.073   2.925 -2.1246  0.3135  0.2572
 3434TIP3    H231718   2.255   4.176   2.834  1.0281 -0.7296  1.1680
 3435TIP3   OH231719   3.988   1.838   1.427  0.0154  0.1816 -0.0405
 3435TIP3    H131720   3.909   1.792   1.456 -1.2955  1.4020 -1.4904
 3435TIP3    H231721   3.957   1.899   1.360  2.2011  0.7424 -0.6195
 3436TIP3   OH231722   0.307   5.050   3.776 -0.1209 -0.0243  0.0924
 3436TIP3    H131723   0.339   5.134   3.743  1.6775 -0.9935 -0.8675
 3436TIP3    H231724   0.273   5.005   3.698  0.0176 -0.6166  0.3639
 3437TIP3   OH231725   3.034   3.293  12.273 -0.2673 -0.5892 -0.0056
 3437TIP3    H131726   3.054   3.201  12.259 -1.0217 -0.6439 -0.8938
 3437TIP3    H231727   2.978   3.295  12.350 -2.0136 -1.1465 -1.1919
 3438TIP3   OH231728   2.897   4.664   5.413  0.0453 -0.0549  0.2897
 3438TIP3    H131729   2.851   4.641   5.332  0.8436  0.0758 -0.2105
 3438TIP3    H231730   2.887   4.759   5.420  1.6231  0.2204 -0.7127
 3439TIP3   OH231731   2.614   1.741   3.758  0.6783 -0.2005 -0.5538
 3439TIP3    H131732   2.607   1.817   3.700  0.2468 -0.0500 -0.3064
 3439TIP3    H231733   2.528   1.699   3.752  0.4922  0.0388  0.2821
 3440TIP3   OH231734   4.066   5.337  17.099 -0.1428 -0.0777  0.1794
 3440TIP3    H131735   4.061   5.270  17.031 -1.2671 -0.9728  1.1221
 3440TIP3    H231736   4.076   5.419  17.050  1.5945 -0.9095 -0.9871
 3441TIP3   OH231737   5.377   4.576  16.201 -0.4001  0.0260  0.4394
 3441TIP3    H131738   5.359   4.635  16.128  0.0040  0.1907  0.4694
 3441TIP3    H231739   5.437   4.510  16.165  0.0998  0.3242  0.7166
 3442TIP3   OH231740   4.080   4.468  10.809 -0.1580  0.2834  0.8451
 3442TIP3    H131741   4.028   4.390  10.827  1.8829 -1.3768 -0.0128
 3442TIP3    H231742   4.159   4.457  10.862  1.0268  0.7742 -0.7336
 3443TIP3   OH231743   4.589   4.716  16.579  0.2400  0.7498  0.2607
 3443TIP3    H131744   4.515   4.740  16.523  1.4417  0.5738 -1.4975
 3443TIP3    H231745   4.643   4.660  16.524  1.7907  1.0199  1.4282
 3444TIP3   OH231746   5.342   0.248  13.663 -0.0740 -0.0614  0.4153
 3444TIP3    H131747   5.291   0.257  13.583  0.7200 -0.9564 -0.2015
 3444TIP3    H231748   5.308   0.169  13.705  0.5819 -0.4664  0.1765
 3445TIP3   OH231749   0.704   2.135  15.358  0.3227  0.0958  0.3027
 3445TIP3    H131750   0.696   2.081  15.437 -0.6959 -0.1225  0.0619
 3445TIP3    H231751   0.674   2.222  15.384  1.0727  0.3183  0.4450
 3446TIP3   OH231752   0.201   4.912   0.010  0.7370  0.1224 -0.2911
 3446TIP3    H131753   0.224   4.895  -0.081  1.4165 -0.3511 -0.0352
 3446TIP3    H231754   0.240   4.840   0.059 -1.0239 -0.5644  0.2060
 3447TIP3   OH231755   0.604   2.722  13.135  0.2272 -0.3076 -0.0304
 3447TIP3    H131756   0.599   2.629  13.114  1.0744 -0.1456 -1.0228
 3447TIP3    H231757   0.512   2.751  13.137  0.0281 -0.7087 -1.8958
 3448TIP3   OH231758   0.895   6.519   3.799  0.3673  0.1234  0.0323
 3448TIP3    H131759   0.875   6.612   3.788  0.6609  0.1509 -0.2637
 3448TIP3    H231760   0.986   6.511   3.772  0.4332 -0.1989  0.3426
 3449TIP3   OH231761   2.721   0.390   5.933 -0.4197 -0.9450  0.3621
 3449TIP3    H131762   2.700   0.468   5.984  1.7363 -0.2068  0.2546
 3449TIP3    H231763   2.649   0.381   5.871 -3.0298 -1.7465  3.2637
 3450TIP3   OH231764   5.555   0.176   1.585  0.2935  0.4631  0.2004
 3450TIP3    H131765   5.515   0.147   1.503 -3.1544  1.6004  1.2960
 3450TIP3    H231766   5.596   0.260   1.564  0.8231 -0.0118 -0.6797
 3451TIP3   OH231767   3.306   3.952  13.642  0.9221 -0.2569 -0.3156
 3451TIP3    H131768   3.266   3.983  13.723 -2.0397 -0.0148 -1.7225
 3451TIP3    H231769   3.399   3.945  13.662  0.5630  1.4845  2.5428
 3452TIP3   OH231770   2.361   0.367  11.615  0.0858  0.0893  1.1664
 3452TIP3    H131771   2.388   0.301  11.679 -3.0417 -1.6695  0.8766
 3452TIP3    H231772   2.303   0.425  11.663 -2.1917 -1.1684  0.0809
 3453TIP3   OH231773   3.702   2.850   6.243  0.3157 -0.2364 -0.3769
 3453TIP3    H131774   3.762   2.899   6.188  1.2081  0.3495  1.0554
 3453TIP3    H231775   3.703   2.897   6.327  0.0906 -1.8782  0.5886
 3454TIP3   OH231776   5.568   1.201   0.840  0.3556  0.1157 -0.1488
 3454TIP3    H131777   5.595   1.284   0.800 -0.7029  0.7988  0.5013
 3454TIP3    H231778   5.650   1.153   0.854  0.8922  0.5975 -1.5051
 3455TIP3   OH231779   2.160   2.791  15.702  0.2220 -0.2062  0.6926
 3455TIP3    H131780   2.123   2.799  15.614 -0.2035 -3.2286  0.5100
 3455TIP3    H231781   2.142   2.876  15.743 -1.0763  0.6886 -1.5544
 3456TIP3   OH231782   4.444   2.518   1.210  0.1951 -0.3591  0.3649
 3456TIP3    H131783   4.481   2.603   1.232  0.5773 -0.9401  2.0813
 3456TIP3    H231784   4.518   2.457   1.214 -0.1637 -0.8594 -0.3579
 3457TIP3   OH231785   5.673   5.291  11.450  0.0681  0.5035  0.4045
 3457TIP3    H131786   5.578   5.289  11.446  0.1114  0.3479 -1.8678
 3457TIP3    H231787   5.696   5.384  11.446  0.0170  0.5448  1.0399
 3458TIP3   OH231788   2.807   3.261  15.238 -0.1271 -0.3383  0.1342
 3458TIP3    H131789   2.713   3.241  15.240 -0.0327 -0.9067 -0.7121
 3458TIP3    H231790   2.811   3.357  15.230 -0.6557 -0.4107 -1.1088
 3459TIP3   OH231791   3.181   3.547   3.964 -0.0481 -0.6600  0.4298
 3459TIP3    H131792   3.209   3.598   4.040 -0.1174 -0.5982  0.4146
 3459TIP3    H231793   3.226   3.588   3.890  0.3193 -0.9576  0.4832
 3460TIP3   OH231794   6.505   4.200  11.687  0.0780 -0.0980 -0.3216
 3460TIP3    H131795   6.504   4.143  11.764  0.6004  1.0164  0.5384
 3460TIP3    H231796   6.598   4.215  11.669 -0.0489  0.1692 -0.7663
 3461TIP3   OH231797   0.972   1.980  11.369  0.1477  0.1175 -0.0100
 3461TIP3    H131798   1.016   1.919  11.427  0.5955  1.2983  0.9400
 3461TIP3    H231799   1.036   1.998  11.300  0.9349  1.3029  0.9965
 3462TIP3   OH231800   0.652   1.172  14.964 -0.0084 -0.4941 -0.4902
 3462TIP3    H131801   0.639   1.120  14.884 -1.3659 -1.1891  0.1438
 3462TIP3    H231802   0.715   1.120  15.015  0.0007 -0.6133 -0.6193
 3463TIP3   OH231803   0.195   4.070   0.971 -0.0152 -0.0440  0.0182
 3463TIP3    H131804   0.211   4.118   0.890  0.3135 -1.5739 -0.8609
 3463TIP3    H231805   0.195   4.138   1.039  0.6160  1.1638 -1.1292
 3464TIP3   OH231806   6.548   6.054   3.650  0.5040 -0.3904 -0.1113
 3464TIP3    H131807   6.470   6.066   3.596  1.4912  1.5960 -1.2041
 3464TIP3    H231808   6.588   6.141   3.654  0.7963 -0.5398  3.4158
 3465TIP3   OH231809   5.335   5.743  11.145 -0.0043 -0.3961  0.4738
 3465TIP3    H131810   5.420   5.704  11.126 -0.2065 -1.3321  1.4184
 3465TIP3    H231811   5.297   5.687  11.213 -0.8444  0.7286  0.9612
 3466TIP3   OH231812   6.349   0.626  16.484  0.4108 -0.7611  0.0232
 3466TIP3    H131813   6.422   0.661  16.535 -0.0168 -1.3115  1.0406
 3466TIP3    H231814   6.376   0.636  16.393  0.6880  1.3759  0.2936
 3467TIP3   OH231815   0.102   0.236  12.350  0.1206  1.3285  0.4797
 3467TIP3    H131816   0.124   0.318  12.307  1.2058  0.5217 -0.5739
 3467TIP3    H231817   0.175   0.218  12.408  0.8026  0.2281 -0.6592
 3468TIP3   OH231818   3.519   1.897  16.674 -0.2176 -0.4948 -0.2399
 3468TIP3    H131819   3.519   1.988  16.646 -0.0125 -0.6998 -0.9276
 3468TIP3    H231820   3.610   1.877  16.694 -0.0888 -0.8580 -1.1483
 3469TIP3   OH231821   4.112   3.318  13.663 -0.2799  0.5454  0.4428
 3469TIP3    H131822   4.187   3.356  13.710 -0.5028  1.9566 -0.2948
 3469TIP3    H231823   4.080   3.250  13.722  2.2702 -0.9394  0.2886
 3470TIP3   OH231824   2.321   6.121   5.802 -0.4896 -0.5254  0.3375
 3470TIP3    H131825   2.244   6.171   5.772 -1.0014 -0.4511  1.7070
 3470TIP3    H231826   2.394   6.182   5.792 -0.8186 -0.1308  0.2742
 3471TIP3   OH231827   2.154   5.146   2.289  0.0937 -0.2085  0.3698
 3471TIP3    H131828   2.195   5.110   2.211  1.7028 -2.4137  2.0809
 3471TIP3    H231829   2.061   5.123   2.281 -0.0346  0.7479 -1.4154
 3472TIP3   OH231830   6.255   3.280   5.824  0.2343 -0.5787  0.4198
 3472TIP3    H131831   6.205   3.326   5.891 -0.8957 -1.2526  0.0773
 3472TIP3    H231832   6.268   3.192   5.860 -1.6687 -1.4219 -0.7840
 3473TIP3   OH231833   1.098   0.244  12.080 -0.1093 -0.0528  0.2109
 3473TIP3    H131834   1.153   0.200  12.145 -0.3269 -0.1736  0.3116
 3473TIP3    H231835   1.121   0.202  11.997 -1.7588 -1.7615  0.5751
 3474TIP3   OH231836   0.996   0.935   4.190 -0.4538 -0.3253 -0.4516
 3474TIP3    H131837   0.962   1.023   4.206 -2.4066 -1.3551  1.8540
 3474TIP3    H231838   0.957   0.908   4.107  0.3547  1.0143 -1.2979
 3475TIP3   OH231839   6.402   1.948  17.044  0.4285  0.2183  0.3912
 3475TIP3    H131840   6.309   1.968  17.038  0.3006 -0.1655  1.0309
 3475TIP3    H231841   6.416   1.924  17.135  0.9880 -0.5394  0.1205
 3476TIP3   OH231842   2.612   1.237   6.303  0.0441  0.2307  0.1064
 3476TIP3    H131843   2.704   1.244   6.329  0.4992 -1.4021 -0.9298
 3476TIP3    H231844   2.581   1.328   6.299  1.0355  0.7374  2.3212
 3477TIP3   OH231845   0.860   5.126   3.723 -0.3523  0.2659 -0.1813
 3477TIP3    H131846   0.793   5.194   3.732 -1.1814 -0.3110 -1.6968
 3477TIP3    H231847   0.813   5.049   3.693  0.4291 -1.3253  2.4188
 3478TIP3   OH231848   1.845   4.401   5.260 -0.4573 -0.0225  0.3961
 3478TIP3    H131849   1.934   4.437   5.258 -0.0465 -1.0056 -0.6713
 3478TIP3    H231850   1.792   4.464   5.211 -0.1514  0.1272  0.2547
 3479TIP3   OH231851   0.238   4.416  15.802  0.0639 -0.1202  0.5475
 3479TIP3    H131852   0.328   4.431  15.831  0.2682  0.3293 -0.3088
 3479TIP3    H231853   0.245   4.343  15.740 -0.5444 -1.9705  2.5216
 3480TIP3   OH231854   3.604   2.992  15.934  0.2459  0.6385  0.1591
 3480TIP3    H131855   3.671   2.997  15.866  0.7807  4.3030  0.7615
 3480TIP3    H231856   3.530   3.041  15.898  0.4267  2.3718  1.9905
 3481TIP3   OH231857   2.915   2.110   5.915 -0.5177 -0.0404 -0.1893
 3481TIP3    H131858   2.979   2.105   5.985 -0.7394 -1.2958 -0.0566
 3481TIP3    H231859   2.916   2.023   5.874 -0.4035  0.6509 -1.7404
 3482TIP3   OH231860   1.027   5.028  14.256  0.0864 -0.4202 -0.1848
 3482TIP3    H131861   0.949   5.077  14.227 -0.7397 -1.8699 -0.5031
 3482TIP3    H231862   0.992   4.946  14.291  1.4196 -0.6688  0.6324
 3483TIP3   OH231863   1.932   1.199   5.685 -0.1726 -0.1552  0.4652
 3483TIP3    H131864   1.886   1.217   5.767  0.6440 -1.7663  1.3244
 3483TIP3    H231865   2.005   1.142   5.710  0.2577 -0.4701 -1.3488
 3484TIP3   OH231866   0.151   0.130   2.212  0.0854  0.4934  0.0642
 3484TIP3    H131867   0.094   0.171   2.277 -0.4584  0.3098 -0.2942
 3484TIP3    H231868   0.100   0.131   2.131 -0.1497 -1.3551  0.1563
 3485TIP3   OH231869   2.545   1.756  16.737  0.1189  0.1337  0.3470
 3485TIP3    H131870   2.622   1.706  16.764 -0.0956 -0.7695 -0.6436
 3485TIP3    H231871   2.538   1.740  16.643  1.3196  3.8093 -0.5098
 3486TIP3   OH231872   4.536   6.150  17.083 -0.3855  0.2234 -0.4590
 3486TIP3    H131873   4.623   6.177  17.052 -1.5592  3.4276 -1.3471
 3486TIP3    H231874   4.518   6.208  17.156 -0.9994 -1.8451  1.1159
 3487TIP3   OH231875   3.892   2.915   4.601  0.3109  0.2012 -0.4439
 3487TIP3    H131876   3.927   2.928   4.689 -0.1046 -1.8144  0.0874
 3487TIP3    H231877   3.962   2.943   4.542  0.7329  1.2250  0.5191
 3488TIP3   OH231878   3.480   3.546  14.956  0.1426 -0.5431 -0.9212
 3488TIP3    H131879   3.549   3.511  15.012 -0.2384 -0.9397 -0.6975
 3488TIP3    H231880   3.486   3.495  14.875  1.7068  1.0608 -1.8718
 3489TIP3   OH231881   4.443   5.246  11.910 -0.2810  0.3634 -0.3898
 3489TIP3    H131882   4.438   5.335  11.876  0.9337  0.3970 -0.5308
 3489TIP3    H231883   4.474   5.193  11.836  0.8932  0.1738  0.2049
 3490TIP3   OH231884   0.713   3.502   1.484  0.4573 -0.2687 -0.9463
 3490TIP3    H131885   0.742   3.446   1.556  1.8136  0.6877 -0.7090
 3490TIP3    H231886   0.622   3.524   1.506  0.7796 -0.1625  0.3844
 3491TIP3   OH231887   5.645   1.755  11.504  0.0577 -0.2781  0.2537
 3491TIP3    H131888   5.722   1.753  11.561  0.7853  0.6631 -0.6458
 3491TIP3    H231889   5.672   1.810  11.430 -0.8630 -1.4207 -0.9796
 3492TIP3   OH231890   6.472   2.346   1.259  0.3851 -0.7489  0.4157
 3492TIP3    H131891   6.549   2.297   1.290  2.6025  0.8369 -2.1480
 3492TIP3    H231892   6.457   2.411   1.327  2.2470 -0.1962  0.3527
 3493TIP3   OH231893   3.472   3.641   3.354 -0.6751 -0.1031 -0.1848
 3493TIP3    H131894   3.527   3.652   3.277 -0.5429  2.8349  0.2345
 3493TIP3    H231895   3.389   3.609   3.319  0.0240 -0.8069 -1.2731
 3494TIP3   OH231896   3.030   2.903   5.220 -0.1438 -0.1675  0.1658
 3494TIP3    H131897   3.071   2.819   5.199  2.7659  1.4215 -1.1086
 3494TIP3    H231898   3.084   2.939   5.291 -1.6951  0.4300  1.1005
 3495TIP3   OH231899   3.822   1.697   3.828  0.5629 -0.2856 -0.0620
 3495TIP3    H131900   3.834   1.772   3.886  1.1913  0.8162 -1.5758
 3495TIP3    H231901   3.735   1.709   3.791  1.9028  1.6288 -2.8871
 3496TIP3   OH231902   1.031   1.867   2.212  0.0479  0.9293  0.2713
 3496TIP3    H131903   0.982   1.789   2.189  1.2665  0.0866  0.4306
 3496TIP3    H231904   0.970   1.920   2.263 -0.5754 -0.2464  0.7774
 3497TIP3   OH231905   0.187   1.720  14.112 -1.1733 -0.2155  1.1225
 3497TIP3    H131906   0.195   1.781  14.038 -0.2141  1.3330  2.4180
 3497TIP3    H231907   0.181   1.634  14.071 -1.0856  0.6090 -0.7662
 3498TIP3   OH231908   3.260   3.508   3.180  0.3883 -0.5109  0.6513
 3498TIP3    H131909   3.302   3.506   3.094  0.6881  1.6577  0.6753
 3498TIP3    H231910   3.261   3.418   3.210  0.5860 -1.2754 -1.4719
 3499TIP3   OH231911   2.271   1.678   5.357  0.7616 -0.0645  0.7409
 3499TIP3    H131912   2.267   1.684   5.262  1.6592  0.2246  0.7185
 3499TIP3    H231913   2.182   1.699   5.386  0.6966  0.7149  0.0102
 3500TIP3   OH231914   1.399   5.320  12.642 -0.0423 -0.2174 -0.1274
 3500TIP3    H131915   1.430   5.382  12.708 -0.3927  1.5934 -1.5806
 3500TIP3    H231916   1.464   5.326  12.572 -0.8775 -0.3811 -0.9311
 3501TIP3   OH231917   4.258   1.635   2.432  0.2803  0.2512  0.2270
 3501TIP3    H131918   4.248   1.730   2.432 -0.5889  0.1651  0.0631
 3501TIP3    H231919   4.233   1.609   2.521  0.9829  0.2093  0.4244
 3502TIP3   OH231920   3.852   6.132   0.170 -0.5127  0.2132  0.1294
 3502TIP3    H131921   3.868   6.218   0.209  0.0102 -0.1347  0.6935
 3502TIP3    H231922   3.931   6.081   0.189  0.6802  0.6138 -3.1213
 3503TIP3   OH231923   4.237   3.539  11.991  0.3495  0.2738 -0.5226
 3503TIP3    H131924   4.231   3.457  11.942  0.6706 -0.3594  0.4888
 3503TIP3    H231925   4.251   3.513  12.081 -0.8435  1.4104  0.0289
 3504TIP3   OH231926   6.704   5.668   4.242  0.3423  1.0311 -0.3214
 3504TIP3    H131927   6.629   5.728   4.247 -0.2409  0.3533 -0.7331
 3504TIP3    H231928   6.695   5.626   4.156  0.3899 -0.0991  0.2088
 3505TIP3   OH231929   6.491   4.059  12.355  0.3207  0.3007  1.1156
 3505TIP3    H131930   6.408   4.021  12.381  0.2349 -0.9078 -0.7705
 3505TIP3    H231931   6.468   4.128  12.292  0.7521 -1.6299 -1.2997
 3506TIP3   OH231932   4.722   0.906   5.573  0.1801 -0.6351  0.1815
 3506TIP3    H131933   4.783   0.917   5.501  0.1185 -2.0165 -0.1036
 3506TIP3    H231934   4.639   0.941   5.540  0.3472 -0.5204 -0.1186
 3507TIP3   OH231935   4.205   4.019  12.748  0.1358 -0.4423 -0.3093
 3507TIP3    H131936   4.275   4.037  12.811  0.0254 -3.0025  0.6547
 3507TIP3    H231937   4.243   4.042  12.663  2.0401 -1.3799  0.2314
 3508TIP3   OH231938   0.158   5.208   1.677 -0.1172 -0.3923  0.2422
 3508TIP3    H131939   0.065   5.220   1.656 -0.4406 -1.5927  0.8971
 3508TIP3    H231940   0.199   5.192   1.592 -0.5315 -0.0201 -0.0331
 3509TIP3   OH231941   5.340   2.606   4.594 -0.1456 -0.4869 -0.0622
 3509TIP3    H131942   5.406   2.537   4.583  2.3647  1.9263 -1.6476
 3509TIP3    H231943   5.387   2.676   4.639 -2.5974  0.2813  1.5174
 3510TIP3   OH231944   4.655   3.449   4.726  0.3867 -0.2958 -0.1708
 3510TIP3    H131945   4.603   3.496   4.791 -0.1621 -1.4418  0.2449
 3510TIP3    H231946   4.645   3.357   4.749  0.5672 -0.6976 -1.5943
 3511TIP3   OH231947   1.067   3.184  16.989  0.3123 -0.6667  0.1040
 3511TIP3    H131948   1.061   3.269  16.946 -0.5744 -0.8121 -0.0939
 3511TIP3    H231949   1.055   3.203  17.082 -1.3831 -0.6851 -0.0621
 3512TIP3   OH231950   5.339   4.172   6.481 -0.2069 -0.1156  0.4695
 3512TIP3    H131951   5.415   4.216   6.519  0.6692 -0.4029 -0.8869
 3512TIP3    H231952   5.327   4.214   6.396  0.7555 -2.5316 -0.9541
 3513TIP3   OH231953   1.536   0.870  15.125 -0.5013  0.3872  0.3451
 3513TIP3    H131954   1.629   0.859  15.142 -0.9932 -1.1819  2.3725
 3513TIP3    H231955   1.528   0.864  15.030  1.2677 -1.1476  0.2536
 3514TIP3   OH231956   5.608   3.450   3.664  0.3899 -0.3634 -0.4473
 3514TIP3    H131957   5.577   3.365   3.695  3.0425 -0.9334  0.9415
 3514TIP3    H231958   5.704   3.440   3.659  0.5685  1.5883 -3.2758
 3515TIP3   OH231959   1.952   2.684   0.467  0.5405 -0.2339 -0.4490
 3515TIP3    H131960   1.890   2.617   0.496  1.5133 -1.8453 -1.9131
 3515TIP3    H231961   2.017   2.687   0.537  0.1128 -0.2850 -0.0416
 3516TIP3   OH231962   5.849   1.892   6.110  0.5508  0.2664  0.4649
 3516TIP3    H131963   5.934   1.930   6.087  0.8232 -0.0464  0.9452
 3516TIP3    H231964   5.860   1.863   6.200  0.2342 -0.6356  0.2216
 3517TIP3   OH231965   0.975   5.913  16.687 -0.1648  0.5339 -0.5213
 3517TIP3    H131966   0.977   5.863  16.769 -0.1322  2.4708  0.7299
 3517TIP3    H231967   1.033   5.865  16.628 -1.4782 -1.8333 -0.0092
 3518TIP3   OH231968   2.429   1.209   5.588 -0.2258 -0.4944 -0.0716
 3518TIP3    H131969   2.434   1.138   5.524 -0.4932 -0.3787 -0.2231
 3518TIP3    H231970   2.425   1.166   5.673 -0.6053 -0.6655 -0.1754
 3519TIP3   OH231971   4.054   4.782   5.866 -0.1612 -0.1718  0.2641
 3519TIP3    H131972   3.959   4.776   5.856 -0.0303 -1.2594 -0.5985
 3519TIP3    H231973   4.083   4.830   5.789 -0.0358  0.5514  0.7515
 3520TIP3   OH231974   4.893   4.646  13.952 -0.6132 -0.2949 -0.3529
 3520TIP3    H131975   4.881   4.718  14.015 -0.4676 -0.0616 -0.5905
 3520TIP3    H231976   4.979   4.663  13.913 -0.7529 -0.3848 -0.6948
 3521TIP3   OH231977   6.714   6.583  15.793  0.0719 -0.3909 -0.3182
 3521TIP3    H131978   6.668   6.638  15.856 -0.0466 -1.6309  0.7289
 3521TIP3    H231979   6.806   6.604  15.804 -0.0006 -0.1265 -0.2079
 3522TIP3   OH231980   0.953   5.599   2.387 -0.2560 -0.6341  0.6316
 3522TIP3    H131981   0.921   5.640   2.306  1.1684 -1.2989 -0.3135
 3522TIP3    H231982   0.880   5.545   2.417 -0.0430 -2.3215 -1.5933
 3523TIP3   OH231983   0.953   4.634  13.923  0.4352  0.2309  0.7313
 3523TIP3    H131984   0.975   4.550  13.963  0.4747  0.2852  0.8216
 3523TIP3    H231985   0.973   4.621  13.830 -2.0909 -0.7827  0.2349
 3524TIP3   OH231986   5.398   3.341   2.484 -0.0301  0.2753  0.0128
 3524TIP3    H131987   5.416   3.405   2.553 -0.0150  1.1304 -0.7650
 3524TIP3    H231988   5.341   3.387   2.422 -2.2635 -1.2910  0.7449
 3525TIP3   OH231989   3.570   5.855   1.701 -0.2771 -0.3852 -0.4041
 3525TIP3    H131990   3.664   5.841   1.716 -0.3561  0.1558  0.7284
 3525TIP3    H231991   3.566   5.935   1.648 -0.0749 -1.0417 -1.4452
 3526TIP3   OH231992   5.542   1.332  17.029  0.2716  0.5881 -0.3461
 3526TIP3    H131993   5.625   1.285  17.032  1.3018  2.2811 -0.5866
 3526TIP3    H231994   5.513   1.335  17.120  0.6557  0.2617 -0.2109
 3527TIP3   OH231995   0.167   3.473   6.102 -0.1107 -0.0840  1.0817
 3527TIP3    H131996   0.224   3.409   6.144 -1.1678 -0.3442  2.1620
 3527TIP3    H231997   0.195   3.557   6.138  0.7079 -0.0142  0.3120
 3528TIP3   OH231998   5.293   3.847   2.677  0.0969 -0.1969  0.1680
 3528TIP3    H131999   5.213   3.812   2.716 -0.5815  0.6222 -0.4557
 3528TIP3    H232000   5.312   3.926   2.728  0.8364 -0.6877  0.6727
 3529TIP3   OH232001   5.629   5.208  14.032 -0.2613  0.2907  0.2426
 3529TIP3    H132002   5.673   5.246  14.108 -0.5725 -1.3739  1.3165
 3529TIP3    H232003   5.611   5.118  14.058 -0.0615 -0.4412 -1.9675
 3530TIP3   OH232004   5.958   1.851  11.415 -0.3752  0.2752 -0.0022
 3530TIP3    H132005   5.915   1.936  11.417 -0.3906  0.2890 -0.6742
 3530TIP3    H232006   5.996   1.841  11.502 -0.0383  1.1468 -0.0422
 3531TIP3   OH232007   3.741   0.617  13.818  0.2909 -0.2210 -0.3475
 3531TIP3    H132008   3.718   0.532  13.854  0.7876 -0.4927 -0.6603
 3531TIP3    H232009   3.688   0.625  13.738 -2.6019  1.3771  1.5306
 3532TIP3   OH232010   1.538   5.785  12.759 -0.0676 -0.8666 -0.4185
 3532TIP3    H132011   1.557   5.865  12.807  0.5706 -0.6819 -0.9499
 3532TIP3    H232012   1.459   5.805  12.709 -1.4320 -1.4653  1.4358
 3533TIP3   OH232013   5.662   3.577   4.123 -0.4425 -0.8741  0.1537
 3533TIP3    H132014   5.598   3.641   4.155  1.7197  1.5008  0.0789
 3533TIP3    H232015   5.701   3.540   4.202  2.0568  2.0182  0.4531
 3534TIP3   OH232016   0.531   0.440   3.896 -0.3692  0.3476 -0.1290
 3534TIP3    H132017   0.512   0.365   3.840 -0.0936 -0.8366  1.2908
 3534TIP3    H232018   0.454   0.496   3.888 -1.1605 -0.7155 -0.2316
 3535TIP3   OH232019   6.592   5.621   5.840 -0.0313 -0.0415 -0.1375
 3535TIP3    H132020   6.650   5.692   5.869 -0.9987  0.5687  0.3496
 3535TIP3    H232021   6.644   5.541   5.852  1.8849  0.6833 -2.7142
 3536TIP3   OH232022   1.910   0.069   5.071 -0.2213  0.2240  0.4929
 3536TIP3    H132023   1.959   0.042   5.149 -0.3289  1.1334  0.8897
 3536TIP3    H232024   1.930   0.002   5.006 -1.7492 -1.6756  1.8833
 3537TIP3   OH232025   5.243   1.125   3.789  0.0593  0.0912  0.2834
 3537TIP3    H132026   5.196   1.208   3.785 -1.0480 -0.5422 -2.2179
 3537TIP3    H232027   5.313   1.134   3.724  0.6062 -0.5739  0.7607
 3538TIP3   OH232028   0.430   3.738   2.611 -0.5360 -0.1724 -0.1037
 3538TIP3    H132029   0.428   3.662   2.553 -0.3464 -0.7541  0.6331
 3538TIP3    H232030   0.347   3.733   2.660 -0.6503  0.2550 -0.2446
 3539TIP3   OH232031   4.741   5.764   5.514 -0.1669 -0.0311 -0.3048
 3539TIP3    H132032   4.811   5.782   5.577 -1.2873 -0.3171  1.0784
 3539TIP3    H232033   4.671   5.726   5.566 -0.6076 -1.6971 -1.9861
 3540TIP3   OH232034   2.694   5.695  15.585 -0.5498  0.1279 -0.1353
 3540TIP3    H132035   2.674   5.746  15.507 -0.6396  0.9779  0.4276
 3540TIP3    H232036   2.618   5.706  15.642 -1.7335 -2.7174 -0.9794
 3541TIP3   OH232037   6.467   4.852   4.443 -0.2917  0.1882 -0.0547
 3541TIP3    H132038   6.508   4.932   4.412  1.5459 -0.4182  0.6760
 3541TIP3    H232039   6.382   4.880   4.477  0.9842  2.1567  1.7745
 3542TIP3   OH232040   6.695   1.299  12.160  0.3060 -0.4608 -0.5786
 3542TIP3    H132041   6.684   1.217  12.111  3.3535 -0.2627 -1.7611
 3542TIP3    H232042   6.767   1.282  12.220 -0.5303  0.7042  0.8417
 3543TIP3   OH232043   5.652   0.386   0.658 -0.8544 -0.1346 -0.2994
 3543TIP3    H132044   5.586   0.363   0.722  0.2690 -0.9594  0.5973
 3543TIP3    H232045   5.626   0.338   0.579 -1.0919 -0.7889  0.1662
 3544TIP3   OH232046   2.110   4.467   1.126 -0.2995 -0.2128  0.0999
 3544TIP3    H132047   2.040   4.424   1.077 -0.7872 -0.7016  1.1853
 3544TIP3    H232048   2.070   4.546   1.161  0.5937  1.1883 -1.8775
 3545TIP3   OH232049   1.018   1.100  12.764 -0.1867 -0.5625  0.2401
 3545TIP3    H132050   0.972   1.017  12.750  1.3171 -1.5188  0.6992
 3545TIP3    H232051   1.098   1.092  12.712  0.3411  0.3004  0.8974
 3546TIP3   OH232052   3.310   6.634  12.967 -0.0738 -0.3085 -0.3745
 3546TIP3    H132053   3.344   6.646  12.879 -0.9962 -0.3608 -0.7522
 3546TIP3    H232054   3.352   6.701  13.020  1.4824 -1.0950 -0.5619
 3547TIP3   OH232055   0.638   3.066  12.935 -0.6284  0.1022  0.0103
 3547TIP3    H132056   0.712   3.127  12.934 -0.0321 -0.6059 -0.0360
 3547TIP3    H232057   0.603   3.072  13.024 -0.7527  0.7127 -0.0742
 3548TIP3   OH232058   3.362   3.380   1.177  0.4176 -0.2995  0.6713
 3548TIP3    H132059   3.371   3.328   1.097 -0.9375 -0.0305  0.3278
 3548TIP3    H232060   3.409   3.330   1.243  3.9151  0.7195 -0.7786
 3549TIP3   OH232061   4.510   4.206  13.294 -0.0492  0.2742 -0.1405
 3549TIP3    H132062   4.479   4.117  13.282  0.4169  0.1494 -0.4138
 3549TIP3    H232063   4.600   4.197  13.325 -0.2986  0.6347  0.7400
 3550TIP3   OH232064   2.987   5.223  16.572  0.1468 -0.1973  0.0678
 3550TIP3    H132065   2.914   5.232  16.632  1.2518 -0.0343  1.4440
 3550TIP3    H232066   3.014   5.131  16.581  0.5988 -0.0579  0.1832
 3551TIP3   OH232067   3.560   0.951   6.188  0.1651  0.7498  0.0678
 3551TIP3    H132068   3.598   0.885   6.130  0.8861  3.0264 -2.2287
 3551TIP3    H232069   3.616   0.950   6.266  1.3878  0.0477 -0.7859
 3552TIP3   OH232070   2.638   1.852   0.650 -0.0560 -0.2154  0.3363
 3552TIP3    H132071   2.695   1.839   0.574  1.1643 -0.2330  1.2223
 3552TIP3    H232072   2.564   1.792   0.635  0.0977 -0.1262 -0.8774
 3553TIP3   OH232073   6.680   1.767  13.335  0.1242 -0.6297 -0.4860
 3553TIP3    H132074   6.690   1.824  13.259 -0.7895  0.6449  0.3026
 3553TIP3    H232075   6.691   1.826  13.410 -1.6700 -1.3195  0.3648
 3554TIP3   OH232076   2.380   1.078   3.788  0.5392  0.8063  0.5597
 3554TIP3    H132077   2.408   0.987   3.781  0.1466  0.4516  2.6833
 3554TIP3    H232078   2.445   1.128   3.739  0.4317 -0.6517 -1.1394
 3555TIP3   OH232079   1.213   0.525  11.734  0.1679 -0.4456  0.0725
 3555TIP3    H132080   1.277   0.488  11.796 -0.7923 -0.8649  0.8321
 3555TIP3    H232081   1.267   0.557  11.661  1.2094 -1.2970  0.4336
 3556TIP3   OH232082   3.544   0.211   0.738  0.1318  0.0531 -0.0779
 3556TIP3    H132083   3.572   0.272   0.669  1.0302  0.6318  0.7608
 3556TIP3    H232084   3.517   0.132   0.691  2.9506 -0.4717 -1.0403
 3557TIP3   OH232085   4.717   5.982   1.110 -0.1605 -0.7018  0.4281
 3557TIP3    H132086   4.738   5.890   1.121  1.4753 -0.2762  1.2364
 3557TIP3    H232087   4.684   5.990   1.021 -1.5065 -2.2447  0.7532
 3558TIP3   OH232088   2.355   0.745   6.036  0.0466  0.6005  0.0530
 3558TIP3    H132089   2.313   0.808   5.977 -0.4045  0.0493 -0.2202
 3558TIP3    H232090   2.346   0.661   5.991  0.4365  0.3043  0.5276
 3559TIP3   OH232091   3.277   3.941   4.626 -0.2077 -0.0367  0.1900
 3559TIP3    H132092   3.249   3.852   4.602 -0.7411  0.4440 -1.0367
 3559TIP3    H232093   3.217   3.966   4.696  0.0240 -0.6925  0.6302
 3560TIP3   OH232094   5.630   4.298   2.825  0.4579  0.2553 -0.1516
 3560TIP3    H132095   5.699   4.330   2.767  2.0800  3.3887  3.0984
 3560TIP3    H232096   5.677   4.260   2.899 -1.4626 -1.0091  0.4926
 3561TIP3   OH232097   3.841   6.212   2.347  0.4567  0.2862 -0.1582
 3561TIP3    H132098   3.902   6.209   2.421 -1.6356 -0.7817  1.6341
 3561TIP3    H232099   3.852   6.128   2.303 -1.2695 -0.9749  1.6115
 3562TIP3   OH232100   2.975   6.252  11.896  0.0843  0.5346  0.2202
 3562TIP3    H132101   3.023   6.247  11.978 -0.3781 -0.8338  0.4323
 3562TIP3    H232102   2.899   6.307  11.916 -0.5876 -0.6492  1.0132
 3563TIP3   OH232103   0.054   2.051  14.725  0.6091  0.2368 -0.4182
 3563TIP3    H132104  -0.028   2.100  14.728  0.0420 -0.5216 -2.1615
 3563TIP3    H232105   0.106   2.097  14.658  1.3738  0.3356  0.2233
 3564TIP3   OH232106   3.342   2.283  12.378  0.5550  0.2491 -0.2368
 3564TIP3    H132107   3.285   2.359  12.372 -1.3625 -0.9136  1.7291
 3564TIP3    H232108   3.296   2.223  12.436  3.1239 -1.4113  0.2659
 3565TIP3   OH232109   3.672   3.361  15.642 -0.0696  0.3663 -0.2533
 3565TIP3    H132110   3.582   3.331  15.658 -0.7238  1.6539 -1.2850
 3565TIP3    H232111   3.713   3.362  15.728 -1.0093 -0.3490  0.2247
 3566TIP3   OH232112   1.415   0.211  14.818 -0.2456  0.0370 -0.3105
 3566TIP3    H132113   1.422   0.200  14.723  0.3633  0.1530 -0.2817
 3566TIP3    H232114   1.494   0.170  14.853  1.2703  2.8899 -0.0935
 3567TIP3   OH232115   3.949   1.202  13.297 -0.0053  0.2197 -0.0089
 3567TIP3    H132116   3.952   1.242  13.384  0.5476  1.0365 -0.3811
 3567TIP3    H232117   3.925   1.111  13.312  0.1943  0.3292  1.0098
 3568TIP3   OH232118   6.214   0.742  11.750 -0.3216 -0.1777  1.2118
 3568TIP3    H132119   6.244   0.774  11.665 -1.3854 -0.1094  0.8469
 3568TIP3    H232120   6.273   0.670  11.771  0.8109  0.6880  1.0689
 3569TIP3   OH232121   5.889   0.454  15.452 -0.2015 -0.1336 -0.0708
 3569TIP3    H132122   5.972   0.497  15.470 -0.2746 -0.0185 -0.0117
 3569TIP3    H232123   5.893   0.432  15.358  0.0796 -0.5259  0.0281
 3570TIP3   OH232124   2.441   1.969   3.684  0.8301 -0.3574  0.0928
 3570TIP3    H132125   2.509   2.036   3.681  1.1282 -0.6247  0.7545
 3570TIP3    H232126   2.430   1.950   3.777  1.2931 -1.7743 -0.1263
 3571TIP3   OH232127   4.458   0.242  12.469  0.1270 -0.8518 -0.0697
 3571TIP3    H132128   4.430   0.322  12.423  2.3430  0.2501  0.3472
 3571TIP3    H232129   4.540   0.267  12.512  0.0833 -2.9434  1.3678
 3572TIP3   OH232130   3.821   2.406   0.565 -0.2066 -0.0427  0.7168
 3572TIP3    H132131   3.766   2.470   0.520 -0.0779  0.4075  1.1979
 3572TIP3    H232132   3.783   2.321   0.540 -1.5918  0.2758  1.6321
 3573TIP3   OH232133   1.343   4.872  15.019  0.0176  0.8547 -0.0559
 3573TIP3    H132134   1.367   4.814  14.946 -1.0621  0.6002 -0.2281
 3573TIP3    H232135   1.247   4.876  15.016 -0.0079  1.3463  0.9730
 3574TIP3   OH232136   1.984   6.680  15.998 -0.2848  0.6350  0.4343
 3574TIP3    H132137   2.040   6.705  16.071  0.4698  2.2871 -0.6479
 3574TIP3    H232138   2.035   6.702  15.920 -1.5879  0.1570 -0.5941
 3575TIP3   OH232139   6.518   0.178  11.024  0.0608  0.3969 -0.0524
 3575TIP3    H132140   6.452   0.145  11.085  1.3298 -2.8177 -0.1726
 3575TIP3    H232141   6.481   0.160  10.937  0.3530  0.1541 -0.1311
 3576TIP3   OH232142   2.922   0.898  12.382  0.2807  0.6606  0.0245
 3576TIP3    H132143   2.960   0.859  12.461 -0.3346 -0.3871 -0.1779
 3576TIP3    H232144   2.986   0.878  12.313  0.7739  1.4960  0.2218
 3577TIP3   OH232145   0.361   5.395   4.403  0.4965 -0.5303 -0.3946
 3577TIP3    H132146   0.387   5.480   4.438 -0.8764 -0.3641  0.2841
 3577TIP3    H232147   0.296   5.415   4.336 -0.7269 -1.0682  0.5932
 3578TIP3   OH232148   4.734   2.609  16.556  0.1043 -0.0313  0.0949
 3578TIP3    H132149   4.751   2.700  16.532 -2.5743  0.4524 -0.3107
 3578TIP3    H232150   4.670   2.615  16.628  0.4841 -1.6009  0.6037
 3579TIP3   OH232151   2.862   0.073   3.743  0.9111  0.1040  0.1732
 3579TIP3    H132152   2.772   0.042   3.752  0.8389  0.4246  0.6047
 3579TIP3    H232153   2.868   0.103   3.652  0.3842  0.6869  0.3237
 3580TIP3   OH232154   5.556   0.778   2.261  0.5597 -0.3135 -0.4048
 3580TIP3    H132155   5.566   0.836   2.337 -1.4359 -0.2227 -0.1703
 3580TIP3    H232156   5.643   0.739   2.250  1.0240  0.0047  1.6518
 3581TIP3   OH232157   2.645   2.409  12.651  0.7589 -0.2148  0.0533
 3581TIP3    H132158   2.674   2.323  12.680  1.5195 -0.4920 -1.4794
 3581TIP3    H232159   2.572   2.392  12.592 -1.9088  0.4229  2.9166
 3582TIP3   OH232160   0.429   4.602  14.665 -0.5115 -0.1109 -0.1500
 3582TIP3    H132161   0.338   4.584  14.640 -0.4926  1.6259 -1.6729
 3582TIP3    H232162   0.482   4.557  14.599 -0.3326  0.6221 -0.5145
 3583TIP3   OH232163   0.534   0.612   6.383  0.0475  1.0688  0.2814
 3583TIP3    H132164   0.555   0.555   6.457 -1.3215  1.5165  1.0405
 3583TIP3    H232165   0.586   0.577   6.311  0.1660 -0.3792  1.0346
 3584TIP3   OH232166   3.485   5.961   2.682  0.2591  0.1636 -0.6170
 3584TIP3    H132167   3.489   6.056   2.668 -0.1067  0.5722  1.7245
 3584TIP3    H232168   3.402   5.946   2.727  0.2930 -1.2911 -0.9861
 3585TIP3   OH232169   0.358   0.094  13.084  0.1064 -0.4402  0.1664
 3585TIP3    H132170   0.387   0.057  13.001 -2.7859  0.8513 -1.5664
 3585TIP3    H232171   0.414   0.052  13.150  4.1580  0.1705 -2.5086
 3586TIP3   OH232172   2.836   3.997   0.403 -0.5924 -0.0169 -0.3885
 3586TIP3    H132173   2.880   4.048   0.335  0.3722 -0.1194  0.1469
 3586TIP3    H232174   2.842   3.907   0.373 -3.0977  0.1784 -1.7935
 3587TIP3   OH232175   2.327   2.412   3.641 -0.1749 -0.3835 -0.2217
 3587TIP3    H132176   2.374   2.483   3.596 -0.0451 -0.8204 -0.7880
 3587TIP3    H232177   2.362   2.413   3.730  1.9849 -1.6183 -0.9843
 3588TIP3   OH232178   1.712   4.895  12.131  0.2617 -0.7455 -0.1344
 3588TIP3    H132179   1.707   4.922  12.222 -0.2661 -0.2381 -0.3022
 3588TIP3    H232180   1.728   4.976  12.083 -3.9768 -0.1125 -0.9076
 3589TIP3   OH232181   1.727   4.084   1.673 -0.6021 -0.8019  0.8314
 3589TIP3    H132182   1.799   4.098   1.735 -0.3753 -0.6000  0.5265
 3589TIP3    H232183   1.651   4.121   1.717 -0.5982 -1.3478  1.3137
 3590TIP3   OH232184   1.544   1.554   0.214  0.0604 -0.2753 -0.3243
 3590TIP3    H132185   1.633   1.584   0.231  0.4064 -2.0824  1.5267
 3590TIP3    H232186   1.493   1.588   0.288  0.3505 -3.4025  1.5090
 3591TIP3   OH232187   4.397   0.769  14.491 -0.0147 -0.5152  0.1663
 3591TIP3    H132188   4.336   0.836  14.522  1.1569 -0.8447  3.6322
 3591TIP3    H232189   4.347   0.687  14.495 -0.0183 -0.4867  0.8197
 3592TIP3   OH232190   4.362   1.052   1.866  0.4342  0.2019  0.4825
 3592TIP3    H132191   4.279   1.079   1.827 -0.3152  0.7153  2.2867
 3592TIP3    H232192   4.338   0.977   1.922  1.4705 -0.5853 -0.0839
 3593TIP3   OH232193   3.382   6.647  14.988  0.0600 -0.5428  0.2687
 3593TIP3    H132194   3.402   6.719  15.048 -1.2016 -0.1462  0.2491
 3593TIP3    H232195   3.375   6.570  15.046  1.4830 -0.6884  0.2794
 3594TIP3   OH232196   2.911   2.350  14.796  0.1967  0.0421  0.1041
 3594TIP3    H132197   2.897   2.353  14.891  0.4423  0.4919  0.1322
 3594TIP3    H232198   2.839   2.298  14.762  0.7017 -1.0436  0.6506
 3595TIP3   OH232199   6.453   2.707  13.023  0.3727  0.4092  0.3611
 3595TIP3    H132200   6.419   2.626  13.061  1.5290 -1.1702 -1.7397
 3595TIP3    H232201   6.375   2.761  13.007 -0.6133 -0.9680  0.3253
 3596TIP3   OH232202   2.316   6.690   0.561 -0.2965  0.0255 -0.0668
 3596TIP3    H132203   2.271   6.774   0.553  0.5943  0.4813 -0.5550
 3596TIP3    H232204   2.354   6.675   0.474  0.6376 -0.2268  0.3646
 3597TIP3   OH232205   4.223   1.224   3.523  0.2662 -0.3572 -0.2095
 3597TIP3    H132206   4.152   1.280   3.490  1.0863  0.9873  0.2375
 3597TIP3    H232207   4.191   1.191   3.607 -0.6266 -1.3870 -0.9380
 3598TIP3   OH232208   0.295   4.103   5.314  0.0870 -0.0200 -0.1785
 3598TIP3    H132209   0.239   4.103   5.236 -1.5547  0.0373  0.9422
 3598TIP3    H232210   0.255   4.168   5.372  0.1947 -1.3348  1.4404
 3599TIP3   OH232211   1.099   6.229   3.632  0.0642  0.5519 -0.0679
 3599TIP3    H132212   1.098   6.206   3.540  1.2838  1.8309 -0.4360
 3599TIP3    H232213   1.099   6.145   3.678 -2.7083 -0.1156 -1.1206
 3600TIP3   OH232214   0.960   4.565  14.819 -0.5595 -0.1370  0.1458
 3600TIP3    H132215   0.991   4.624  14.887  1.4809 -0.6172 -0.2688
 3600TIP3    H232216   0.953   4.480  14.862  0.8550 -0.4682 -0.1985
 3601TIP3   OH232217   3.572   0.199  14.989 -0.2212  0.4607  0.0663
 3601TIP3    H132218   3.514   0.129  15.016 -0.5163  0.0780 -1.4448
 3601TIP3    H232219   3.564   0.266  15.057  0.8451 -1.3439  2.0677
 3602TIP3   OH232220   1.834   4.080   6.169 -0.3997 -0.1366 -0.0537
 3602TIP3    H132221   1.805   4.032   6.092 -1.3634 -0.6553  0.6118
 3602TIP3    H232222   1.826   4.017   6.241 -0.6197  0.6756  0.6488
 3603TIP3   OH232223   0.850   0.779   2.425  0.7736  0.3647  0.2753
 3603TIP3    H132224   0.832   0.699   2.475 -0.3568 -0.2958 -1.0906
 3603TIP3    H232225   0.916   0.753   2.361  1.6078  0.9823  0.8679
 3604TIP3   OH232226   4.898   6.213  13.348 -0.4276 -0.0943  0.6378
 3604TIP3    H132227   4.857   6.299  13.361 -1.4547 -0.5028  0.1930
 3604TIP3    H232228   4.838   6.166  13.290  1.1843 -0.3591 -0.8745
 3605TIP3   OH232229   1.315   5.083  14.620 -0.2835 -0.0690  0.5968
 3605TIP3    H132230   1.370   5.029  14.677  3.1975  1.1156 -1.3442
 3605TIP3    H232231   1.285   5.154  14.676 -0.5501 -1.1713  1.9123
 3606TIP3   OH232232   1.815   0.917   1.175 -0.5275  1.0135  0.9557
 3606TIP3    H132233   1.846   0.992   1.123  0.4946  2.0904  2.9896
 3606TIP3    H232234   1.764   0.957   1.245 -1.3602 -0.3543  1.1428
 3607TIP3   OH232235   0.991   6.538   6.453  0.3085  0.0014 -0.2588
 3607TIP3    H132236   0.966   6.455   6.492  3.0654 -0.1001  1.4968
 3607TIP3    H232237   0.927   6.601   6.488 -0.3390 -0.9547  0.3286
 3608TIP3   OH232238   6.403   4.506   5.007  0.1674  0.0040 -0.3225
 3608TIP3    H132239   6.399   4.430   5.065  0.7549 -0.5254 -0.9545
 3608TIP3    H232240   6.489   4.500   4.965 -0.6509 -0.2763 -2.0799
 3609TIP3   OH232241   0.047   1.049   6.467 -0.6071  0.2346  0.0658
 3609TIP3    H132242   0.114   1.085   6.409  0.9241 -0.1370  1.5226
 3609TIP3    H232243   0.040   0.957   6.441 -0.3479  0.2076  0.0940
 3610TIP3   OH232244   1.857   2.268   5.678  0.6090 -0.5989  0.0046
 3610TIP3    H132245   1.951   2.259   5.696  0.5412  0.9771  1.3268
 3610TIP3    H232246   1.851   2.346   5.623 -0.0668  0.5782  1.6725
 3611TIP3   OH232247   3.793   2.192  15.293  0.5095  0.1485  0.1838
 3611TIP3    H132248   3.792   2.233  15.206 -0.1410  0.5065  0.3549
 3611TIP3    H232249   3.700   2.175  15.312  0.7694 -2.8068 -0.5414
 3612TIP3   OH232250   1.378   2.826  14.289 -0.3964  0.3322 -0.2212
 3612TIP3    H132251   1.433   2.904  14.294  0.8029 -0.3708 -1.7168
 3612TIP3    H232252   1.414   2.766  14.354  0.0960  0.1766 -0.6388
 3613TIP3   OH232253   3.117   6.168  13.629  0.1801 -0.0272 -0.2309
 3613TIP3    H132254   3.054   6.119  13.682  0.5653  0.6371  0.8857
 3613TIP3    H232255   3.074   6.253  13.615  0.7829  0.4136  0.5010
 3614TIP3   OH232256   5.747   0.131  12.005 -0.7049 -0.0533  0.2747
 3614TIP3    H132257   5.752   0.214  12.053  3.4004  0.9677 -1.4860
 3614TIP3    H232258   5.735   0.065  12.074 -1.8501  1.7767  1.9453
 3615TIP3   OH232259   2.355   5.413   4.096 -0.1561  0.1157 -0.3396
 3615TIP3    H132260   2.444   5.418   4.130 -0.9375 -2.4855  2.5613
 3615TIP3    H232261   2.343   5.321   4.072 -1.4326  0.8299 -2.7251
 3616TIP3   OH232262   6.807   5.684  11.806  0.2470  0.0456 -0.2923
 3616TIP3    H132263   6.798   5.590  11.791 -0.2641  0.3043 -1.7544
 3616TIP3    H232264   6.880   5.711  11.751  1.6627  0.2269  1.5601
 3617TIP3   OH232265   6.546   3.827  13.400 -0.1385 -0.1317 -0.0267
 3617TIP3    H132266   6.575   3.805  13.311  0.1029  0.2272 -0.0418
 3617TIP3    H232267   6.624   3.863  13.442  0.2194 -1.9007  0.9040
 3618TIP3   OH232268   1.065   5.539   5.355  0.0357 -0.5383  0.3091
 3618TIP3    H132269   0.994   5.577   5.303 -0.8861  0.3037  2.0792
 3618TIP3    H232270   1.129   5.610   5.363 -1.0829  0.3067  2.5220
 3619TIP3   OH232271   3.210   1.402   5.499 -1.1432  0.1221 -0.1448
 3619TIP3    H132272   3.122   1.434   5.518 -1.1659  0.5004 -0.8386
 3619TIP3    H232273   3.214   1.398   5.403 -1.2765 -2.3465 -0.1213
 3620TIP3   OH232274   4.847   4.109   1.153 -0.2967 -0.4158 -0.0299
 3620TIP3    H132275   4.912   4.044   1.181 -1.6045 -0.8459  2.2624
 3620TIP3    H232276   4.899   4.178   1.113  1.4533 -1.3977  0.4314
 3621TIP3   OH232277   0.067   3.582  15.879  0.2181  0.5460 -0.3437
 3621TIP3    H132278   0.153   3.621  15.895 -0.3253  2.0940 -0.9968
 3621TIP3    H232279   0.008   3.629  15.937 -0.2439 -0.3439 -0.0706
 3622TIP3   OH232280   4.105   2.211  14.520  0.5042 -0.6523 -0.4626
 3622TIP3    H132281   4.193   2.204  14.556 -0.9907  0.5120  3.9883
 3622TIP3    H232282   4.096   2.303  14.495  0.7137 -0.9410 -1.7077
 3623TIP3   OH232283   3.286   1.407  12.386  0.0114 -0.4618  0.6567
 3623TIP3    H132284   3.356   1.375  12.329  0.4258  0.7136  0.4766
 3623TIP3    H232285   3.330   1.426  12.469  0.1009  1.0500  0.2951
 3624TIP3   OH232286   1.368   5.515   0.387 -1.1683 -0.0321 -0.0580
 3624TIP3    H132287   1.371   5.467   0.469 -1.0640 -2.5633 -1.4233
 3624TIP3    H232288   1.406   5.455   0.323 -1.0118  1.9328 -1.9208
 3625TIP3   OH232289   3.887   5.457   2.506 -0.4759  0.3562  0.1067
 3625TIP3    H132290   3.967   5.496   2.472 -0.9475  2.7026  1.4657
 3625TIP3    H232291   3.848   5.412   2.431  0.4367  2.0238 -1.4471
 3626TIP3   OH232292   0.840   3.548   3.739 -0.1381 -0.1059 -0.1250
 3626TIP3    H132293   0.781   3.617   3.708 -0.2171  0.1036  0.4782
 3626TIP3    H232294   0.919   3.559   3.687 -0.4373 -0.0571 -0.5761
 3627TIP3   OH232295   0.028   0.464   5.083 -0.0047 -0.0498 -0.1574
 3627TIP3    H132296  -0.019   0.437   5.162 -1.1414 -0.6413 -0.9891
 3627TIP3    H232297   0.018   0.559   5.080  0.3899  0.0210  0.6060
 3628TIP3   OH232298   5.021   1.630  16.396  0.1609  0.2938  0.5490
 3628TIP3    H132299   5.108   1.590  16.393  0.1441  0.0762  2.1776
 3628TIP3    H232300   5.036   1.718  16.430 -0.3597 -0.1345  1.9386
 3629TIP3   OH232301   0.977   6.438  10.627  0.1576 -0.3421 -0.2477
 3629TIP3    H132302   0.937   6.438  10.540 -1.0576  2.7023  0.1989
 3629TIP3    H232303   0.903   6.431  10.687  0.8814 -1.0711  0.5769
 3630TIP3   OH232304   0.909   0.692  14.697 -0.4039  0.0659  0.0495
 3630TIP3    H132305   0.817   0.711  14.684 -0.3840  0.8381  0.9518
 3630TIP3    H232306   0.955   0.762  14.649 -0.2233 -1.4371 -2.1200
 3631TIP3   OH232307   0.887   1.123   0.942 -0.3944  0.1042  0.9325
 3631TIP3    H132308   0.824   1.065   0.901 -0.0587  0.4361 -0.0695
 3631TIP3    H232309   0.836   1.200   0.969 -0.5510  0.0363  0.8261
 3632TIP3   OH232310   0.559   0.668  11.483 -0.2651  0.2623 -0.4029
 3632TIP3    H132311   0.541   0.760  11.504 -0.1710 -0.2223  2.2379
 3632TIP3    H232312   0.651   0.655  11.509 -0.3702 -0.6343 -0.4479
 3633TIP3   OH232313   1.417   5.564   2.972 -0.0254  0.0768  0.2050
 3633TIP3    H132314   1.487   5.620   2.939 -0.7599  1.2428  0.5724
 3633TIP3    H232315   1.458   5.509   3.038  1.2530 -1.5755 -1.8246
 3634TIP3   OH232316   1.248   3.680   3.100 -0.5736 -0.1865  0.0468
 3634TIP3    H132317   1.167   3.630   3.113 -0.9042 -0.3129 -2.0582
 3634TIP3    H232318   1.305   3.620   3.052  0.1174  0.5036 -0.0085
 3635TIP3   OH232319   6.301   0.533  14.449  0.4537  0.5979 -0.0563
 3635TIP3    H132320   6.377   0.495  14.493  0.7414  1.7045  0.4264
 3635TIP3    H232321   6.308   0.501  14.359  1.0528  0.0644  0.1665
 3636TIP3   OH232322   4.880   5.326   3.594  0.3019  0.5313 -0.0809
 3636TIP3    H132323   4.851   5.236   3.609  2.0357 -0.2622 -1.1819
 3636TIP3    H232324   4.825   5.356   3.522  0.8982 -0.3061 -0.9138
 3637TIP3   OH232325   1.934   6.296  13.682 -0.1698  0.2531 -0.2422
 3637TIP3    H132326   1.992   6.234  13.727 -0.2730  2.0407  2.6439
 3637TIP3    H232327   1.855   6.299  13.737 -1.0707  1.2832 -1.5332
 3638TIP3   OH232328   1.772   3.256   1.662 -0.5143 -0.1218 -0.0667
 3638TIP3    H132329   1.790   3.162   1.659 -2.8710 -0.6187 -0.8172
 3638TIP3    H232330   1.728   3.275   1.579 -0.0780  1.6579  0.0707
 3639TIP3   OH232331   6.550   4.971  14.599  0.8642 -0.5459  0.0128
 3639TIP3    H132332   6.488   4.940  14.665  0.9266 -0.3938  0.1430
 3639TIP3    H232333   6.496   4.982  14.520  0.4871  0.6237  0.3972
 3640TIP3   OH232334   5.599   3.827   5.672 -0.0404 -0.3851 -0.2172
 3640TIP3    H132335   5.639   3.852   5.756 -1.0941  0.6691 -0.0119
 3640TIP3    H232336   5.614   3.902   5.615 -0.1680 -0.7130 -0.6809
 3641TIP3   OH232337   2.318   1.668  12.014 -0.3003 -0.1836  0.1134
 3641TIP3    H132338   2.230   1.667  11.976  0.1137  1.6116 -1.0210
 3641TIP3    H232339   2.366   1.602  11.964 -0.3924  0.5246 -0.9470
 3642TIP3   OH232340   1.771   6.160   0.773 -0.0841  0.1559 -0.0273
 3642TIP3    H132341   1.850   6.106   0.772  0.0968  0.3865  0.9794
 3642TIP3    H232342   1.737   6.154   0.684  1.5454  0.7647 -0.7313
 3643TIP3   OH232343   2.105   4.695   5.037 -0.2811 -0.2128 -0.0707
 3643TIP3    H132344   2.132   4.632   5.105  1.5210 -0.1057 -0.6240
 3643TIP3    H232345   2.076   4.640   4.965  1.5618 -0.4867 -0.6620
 3644TIP3   OH232346   0.726   4.510  13.448  0.5138 -0.4141  0.2582
 3644TIP3    H132347   0.676   4.586  13.417 -1.0698 -0.3517  2.7203
 3644TIP3    H232348   0.800   4.549  13.496  1.0112 -0.4774 -0.4429
 3645TIP3   OH232349   1.551   2.628   0.581 -0.8077  0.0856 -0.7508
 3645TIP3    H132350   1.504   2.636   0.498 -1.2545  0.1767 -0.4908
 3645TIP3    H232351   1.493   2.667   0.646 -1.0678 -1.2297 -0.1615
 3646TIP3   OH232352   0.285   0.476  11.771 -0.1112 -0.6048  0.0699
 3646TIP3    H132353   0.331   0.408  11.722 -3.2606 -3.2832  0.5359
 3646TIP3    H232354   0.270   0.546  11.707 -0.7194 -2.3233 -1.7704
 3647TIP3   OH232355   0.966   2.174   4.200 -0.1187  0.7603  0.4261
 3647TIP3    H132356   0.963   2.080   4.219 -0.9855  0.7516  0.3177
 3647TIP3    H232357   0.943   2.216   4.283  0.9922  0.9102  0.6656
 3648TIP3   OH232358   5.675   3.956   6.786 -0.2754  0.1693  0.1986
 3648TIP3    H132359   5.589   3.927   6.754 -0.1154  0.3844 -0.4243
 3648TIP3    H232360   5.720   3.990   6.709  1.2372 -1.9770  0.0601
 3649TIP3   OH232361   6.008   6.247  15.927  0.1613  0.4387  0.3029
 3649TIP3    H132362   6.033   6.213  15.841  2.0769 -0.1356  1.0311
 3649TIP3    H232363   6.000   6.341  15.914 -0.4186  0.2688 -0.6855
 3650TIP3   OH232364   3.361   3.373  13.472 -0.3133  0.7021  0.9869
 3650TIP3    H132365   3.381   3.374  13.566 -1.1052 -0.3390  1.1952
 3650TIP3    H232366   3.271   3.339  13.468 -0.5514  1.4131 -0.1116
 3651TIP3   OH232367   1.415   6.733   1.498 -0.1068 -0.1681  0.0737
 3651TIP3    H132368   1.334   6.777   1.525  0.3720 -0.6652  2.5844
 3651TIP3    H232369   1.484   6.777   1.548  0.9764 -0.8418 -0.7766
 3652TIP3   OH232370   5.223   1.203  16.898  0.2425  0.0984  0.1250
 3652TIP3    H132371   5.192   1.116  16.924  0.1260  0.3134  0.7220
 3652TIP3    H232372   5.217   1.256  16.978  0.6143  0.5723 -0.1530
 3653TIP3   OH232373   6.328   6.810  15.781 -0.2143 -0.0440  0.1556
 3653TIP3    H132374   6.360   6.898  15.800 -0.8902 -0.0070  1.1931
 3653TIP3    H232375   6.282   6.783  15.861 -0.5445 -1.0987 -0.3704
 3654TIP3   OH232376   6.323   6.517   0.222  0.0040  0.3153  0.0333
 3654TIP3    H132377   6.286   6.441   0.267 -0.0348  0.3477  0.0561
 3654TIP3    H232378   6.416   6.515   0.244  0.0099  0.2536  0.0040
 3655TIP3   OH232379   3.326   2.187   2.281 -0.3036  0.5836 -0.3602
 3655TIP3    H132380   3.244   2.139   2.269 -0.8661  1.3886  0.1929
 3655TIP3    H232381   3.368   2.184   2.195 -0.4669 -0.6288 -0.4169
 3656TIP3   OH232382   2.376   6.544  16.182  0.1274  0.1028 -0.3827
 3656TIP3    H132383   2.303   6.585  16.229  0.6732  0.4686  0.1631
 3656TIP3    H232384   2.353   6.553  16.090  0.0933  1.4064 -0.2735
 3657TIP3   OH232385   1.999   0.897   3.246  0.0723 -0.1357 -0.1048
 3657TIP3    H132386   2.001   0.966   3.313  2.0426 -0.2969  0.0610
 3657TIP3    H232387   1.939   0.831   3.281  1.6368 -0.5717  1.9324
 3658TIP3   OH232388   1.961   2.539   2.077 -0.1055  0.2524  0.0295
 3658TIP3    H132389   1.947   2.608   2.012 -1.7096  1.0112  1.1135
 3658TIP3    H232390   2.055   2.522   2.075 -0.1265  0.0416 -2.6709
 3659TIP3   OH232391   1.669   5.947  14.333  0.0805 -0.0149  0.2238
 3659TIP3    H132392   1.710   5.886  14.394  1.3259  0.2387 -0.3371
 3659TIP3    H232393   1.599   5.988  14.384 -0.4244 -1.4890  0.7744
 3660TIP3   OH232394   6.765   3.191   3.720 -0.1642  0.2575 -0.1580
 3660TIP3    H132395   6.858   3.205   3.701  0.0474  0.6644  1.0236
 3660TIP3    H232396   6.762   3.105   3.762 -0.4163 -0.0457 -0.8012
 3661TIP3   OH232397   5.182   3.112   4.747  0.3110  0.4261 -0.4025
 3661TIP3    H132398   5.114   3.093   4.811  1.0314 -0.5911  0.0715
 3661TIP3    H232399   5.171   3.206   4.728 -0.3314  0.5831  0.6820
 3662TIP3   OH232400   5.261   6.732  14.382  0.2736 -0.1917  0.3125
 3662TIP3    H132401   5.230   6.819  14.358 -1.4702 -0.1750  2.2960
 3662TIP3    H232402   5.353   6.730  14.355  0.0262  1.8239 -0.8065
 3663TIP3   OH232403   0.778   1.489  14.282  0.3399  0.5771  0.3496
 3663TIP3    H132404   0.830   1.419  14.321 -0.9006 -0.3030  0.4809
 3663TIP3    H232405   0.713   1.512  14.348 -1.8960 -1.0455 -1.1186
 3664TIP3   OH232406   4.412   3.315  11.495  0.2444 -0.3831  0.1924
 3664TIP3    H132407   4.490   3.311  11.439 -1.3204  2.5593 -2.5283
 3664TIP3    H232408   4.426   3.391  11.551 -0.7646  0.3633 -0.5407
 3665TIP3   OH232409   2.966   5.935  15.481  0.1060  0.1779  0.0156
 3665TIP3    H132410   2.976   5.963  15.390 -1.1990 -0.5668 -0.3914
 3665TIP3    H232411   2.941   6.015  15.528  0.2607  0.4690 -0.3894
 3666TIP3   OH232412   5.405   3.901  11.216  0.2444  0.3580  0.8386
 3666TIP3    H132413   5.401   3.869  11.126  0.9326  0.3954  0.7941
 3666TIP3    H232414   5.445   3.830  11.266 -0.2069  0.3038  1.1388
 3667TIP3   OH232415   5.747   6.270  13.657 -0.1753 -0.4246  0.3638
 3667TIP3    H132416   5.682   6.341  13.651  1.1215  0.6424 -3.9764
 3667TIP3    H232417   5.701   6.193  13.625 -0.3864 -0.6098  1.0924
 3668TIP3   OH232418   5.922   6.430   0.982  0.3320  0.5008 -0.1302
 3668TIP3    H132419   5.856   6.475   1.035  0.2929 -0.0651  0.3105
 3668TIP3    H232420   5.904   6.337   0.996  1.0766  0.3457 -0.1969
 3669TIP3   OH232421   3.864   2.225   6.222 -0.0132 -0.0707 -0.0332
 3669TIP3    H132422   3.912   2.201   6.302 -0.7973  0.5798  0.6637
 3669TIP3    H232423   3.916   2.295   6.183  0.5578 -0.6289 -0.2894
 3670TIP3   OH232424   4.899   4.301  13.049 -0.3057  0.4769  0.5000
 3670TIP3    H132425   4.810   4.331  13.031 -0.3038 -0.6641 -1.8519
 3670TIP3    H232426   4.945   4.379  13.079 -2.0400  1.1185  1.6881
 3671TIP3   OH232427   6.764   0.942  14.334 -0.3791  0.5206  0.2244
 3671TIP3    H132428   6.672   0.968  14.335 -0.8716 -1.1009  1.7729
 3671TIP3    H232429   6.773   0.888  14.256 -1.1477 -0.5404  0.8436
 3672TIP3   OH232430   3.644   3.571   6.090 -0.2264  0.2486 -0.8140
 3672TIP3    H132431   3.557   3.565   6.050 -0.1998  0.5561 -0.9179
 3672TIP3    H232432   3.633   3.637   6.159  0.1295  0.8950 -1.3630
 3673TIP3   OH232433   3.751   2.107  12.413  0.2566 -0.7154  0.0464
 3673TIP3    H132434   3.753   2.029  12.469 -0.5337  0.6946  2.1293
 3673TIP3    H232435   3.692   2.168  12.457  2.2463  1.8036 -0.5211
 3674TIP3   OH232436   1.030   5.123  11.175  0.4978 -0.0545 -0.7355
 3674TIP3    H132437   1.102   5.155  11.121  0.8466 -2.2653 -1.7146
 3674TIP3    H232438   0.952   5.143  11.124  0.3303  2.4443  0.3767
 3675TIP3   OH232439   6.321   0.536   1.852  0.4741  0.1432 -0.7917
 3675TIP3    H132440   6.403   0.562   1.895 -0.0872  0.9691 -0.1806
 3675TIP3    H232441   6.347   0.508   1.765  1.4920 -0.2810 -0.3600
 3676TIP3   OH232442   0.466   0.682   5.632  0.1013 -0.2263  0.0088
 3676TIP3    H132443   0.438   0.698   5.722  1.1879 -0.0494  0.3360
 3676TIP3    H232444   0.558   0.710   5.631 -0.2585  1.0265 -1.4995
 3677TIP3   OH232445   2.625   3.420  15.539 -0.5960  0.4519 -0.0292
 3677TIP3    H132446   2.660   3.386  15.621 -1.9564 -1.9796 -0.3675
 3677TIP3    H232447   2.699   3.464  15.498  0.2469  1.2921  2.2386
 3678TIP3   OH232448   1.592   2.592  12.514  0.2774 -0.5546  0.0620
 3678TIP3    H132449   1.688   2.598  12.513  0.2516 -0.1485  0.1013
 3678TIP3    H232450   1.569   2.562  12.426  0.5883 -2.9258  0.7208
 3679TIP3   OH232451   2.912   0.632   0.154  0.6694 -0.4681 -0.2211
 3679TIP3    H132452   2.939   0.684   0.078 -0.0575 -1.3689 -1.1232
 3679TIP3    H232453   2.954   0.547   0.140  2.4341  0.0337  1.5995
 3680TIP3   OH232454   4.978   0.663   3.742  0.2860  0.8050  0.0568
 3680TIP3    H132455   4.967   0.571   3.768 -0.6923  1.0429  0.5140
 3680TIP3    H232456   4.968   0.712   3.823  0.6503  1.3368 -0.2155
 3681TIP3   OH232457   3.745   1.636   5.543  0.0512  0.5716  0.2866
 3681TIP3    H132458   3.665   1.627   5.490  0.4795  3.2700 -1.0074
 3681TIP3    H232459   3.714   1.663   5.629 -0.5183 -0.8924  0.5608
 3682TIP3   OH232460   5.538   1.282  11.852  0.7429  0.0893 -0.0827
 3682TIP3    H132461   5.561   1.189  11.842 -1.5645 -0.6748  1.0016
 3682TIP3    H232462   5.545   1.298  11.946  0.1958  0.7453 -0.1465
 3683TIP3   OH232463   5.829   0.232  14.011 -0.1913  0.4517 -0.7712
 3683TIP3    H132464   5.734   0.219  14.004 -0.1676  0.3518 -0.9080
 3683TIP3    H232465   5.849   0.297  13.943 -0.1149  0.2440 -0.9449
 3684TIP3   OH232466   3.707   6.202   0.980  0.0330  0.1539 -0.6674
 3684TIP3    H132467   3.719   6.146   0.903  0.6146  0.7385 -1.0148
 3684TIP3    H232468   3.623   6.246   0.964  0.2553  0.4374 -1.0794
 3685TIP3   OH232469   1.884   0.324  14.239 -0.4754  0.1186 -0.0408
 3685TIP3    H132470   1.901   0.418  14.232  0.6736 -0.1115 -0.5500
 3685TIP3    H232471   1.920   0.299  14.324 -0.0123 -0.0087 -0.2707
 3686TIP3   OH232472   5.264   6.043   1.053  0.1647 -0.0535  0.2626
 3686TIP3    H132473   5.265   5.947   1.045 -0.3046  0.0285 -1.1869
 3686TIP3    H232474   5.355   6.069   1.041 -0.0604 -0.1796 -2.2060
 3687TIP3   OH232475   5.090   4.097  16.878 -0.3704  0.5953 -0.1618
 3687TIP3    H132476   5.161   4.035  16.860 -0.4204  0.9485 -1.6901
 3687TIP3    H232477   5.109   4.130  16.966  0.9575  0.1642 -0.2694
 3688TIP3   OH232478   4.931   6.273  12.361  0.1835 -0.0219  0.5404
 3688TIP3    H132479   4.898   6.318  12.438 -0.0863  0.6368  0.0470
 3688TIP3    H232480   4.936   6.340  12.293 -2.1354 -1.0543 -0.7932
 3689TIP3   OH232481   0.461   0.760  12.135  0.2476  0.2497  0.1597
 3689TIP3    H132482   0.511   0.813  12.197 -0.3038  0.9789 -0.0113
 3689TIP3    H232483   0.509   0.768  12.052  0.2540  0.3448  0.1730
 3690TIP3   OH232484   6.571   5.715   3.408 -0.0858  0.1742 -0.2159
 3690TIP3    H132485   6.522   5.696   3.488  0.2800  1.5151  0.3574
 3690TIP3    H232486   6.509   5.698   3.337 -1.2894  1.5223  0.4773
 3691TIP3   OH232487   6.355   1.892  16.326 -0.6534  0.2484  0.2236
 3691TIP3    H132488   6.260   1.886  16.318 -0.4743  0.0136 -2.3406
 3691TIP3    H232489   6.381   1.955  16.258  1.3469 -2.6900 -1.9632
 3692TIP3   OH232490   1.848   0.428   5.580 -0.1301 -0.2295  0.1099
 3692TIP3    H132491   1.827   0.335   5.580  0.3196 -0.3310 -0.4864
 3692TIP3    H232492   1.923   0.436   5.639 -1.2278  0.0117  1.5407
 3693TIP3   OH232493   4.903   3.268  10.739 -0.7316  0.0050 -0.5389
 3693TIP3    H132494   4.933   3.196  10.795  3.3683 -0.3595 -2.8092
 3693TIP3    H232495   4.872   3.225  10.659 -0.1030  0.6235 -1.1353
 3694TIP3   OH232496   0.735   3.110  16.509  0.0161 -0.6670  0.5721
 3694TIP3    H132497   0.658   3.055  16.519 -1.7202  1.0424 -2.1666
 3694TIP3    H232498   0.771   3.087  16.423  0.5107  0.8922  0.3120
 3695TIP3   OH232499   4.229   1.860   1.880  0.0921 -0.1582  0.2301
 3695TIP3    H132500   4.305   1.806   1.898  0.4538 -0.4426 -1.9744
 3695TIP3    H232501   4.248   1.903   1.797 -2.4702 -0.8503 -0.8154
 3696TIP3   OH232502   2.881   2.974  15.309 -0.8152 -0.1695  0.0021
 3696TIP3    H132503   2.845   3.059  15.286 -0.0709 -0.0581 -0.8381
 3696TIP3    H232504   2.883   2.926  15.226  0.6733 -0.2661  0.0716
 3697TIP3   OH232505   1.852   5.694  15.729 -0.3431  0.4144 -0.1747
 3697TIP3    H132506   1.930   5.674  15.679 -0.3673  0.4192 -0.2142
 3697TIP3    H232507   1.884   5.732  15.811 -0.2027 -1.4579  0.7093
 3698TIP3   OH232508   3.657   5.027   5.863 -0.7766 -0.1897 -0.4189
 3698TIP3    H132509   3.660   5.089   5.936  0.4932  2.7132 -2.6991
 3698TIP3    H232510   3.576   4.978   5.877 -0.3119 -0.1944  3.1543
 3699TIP3   OH232511   2.349   3.699   6.722 -0.1049  0.0213  0.1270
 3699TIP3    H132512   2.373   3.670   6.634  1.3977  0.8741  0.2257
 3699TIP3    H232513   2.401   3.644   6.780  0.2986  0.6914  0.4126
 3700TIP3   OH232514   2.686   3.565   0.763 -0.1495  0.3640  0.3485
 3700TIP3    H132515   2.634   3.511   0.823  0.5889  0.6800  1.2878
 3700TIP3    H232516   2.622   3.623   0.722 -0.8364 -0.6623 -0.0728
 3701TIP3   OH232517   2.035   4.779   0.924 -0.0080 -1.0191 -0.1585
 3701TIP3    H132518   2.054   4.873   0.921  2.4431 -1.4017  0.7437
 3701TIP3    H232519   1.973   4.765   0.853 -3.3222  1.7911  1.8793
 3702TIP3   OH232520   5.318   4.988   3.116 -0.1419  0.6719 -0.1626
 3702TIP3    H132521   5.249   5.054   3.106 -0.4059  0.2150 -1.7500
 3702TIP3    H232522   5.306   4.930   3.040  0.0189 -1.2680  1.2143
 3703TIP3   OH232523   0.247   0.502   3.644 -0.0322  0.3691 -0.1282
 3703TIP3    H132524   0.289   0.585   3.624  1.3789  0.0533  1.3220
 3703TIP3    H232525   0.216   0.511   3.734 -1.3860 -0.1074 -0.5109
 3704TIP3   OH232526   5.071   6.695  11.120 -0.1799  0.1951 -0.1665
 3704TIP3    H132527   5.116   6.742  11.049 -0.4835  1.3467  0.3875
 3704TIP3    H232528   5.142   6.654  11.169  0.2753  1.6794  0.4713
 3705TIP3   OH232529   6.056   2.697  14.554  0.1546  0.0822 -0.1646
 3705TIP3    H132530   6.109   2.617  14.547 -1.1549 -0.7581 -0.7146
 3705TIP3    H232531   5.966   2.666  14.557 -0.3915  1.5570 -0.5916
 3706TIP3   OH232532   3.619   2.151  14.414 -0.4871 -0.6238 -0.1815
 3706TIP3    H132533   3.623   2.203  14.334  0.7313 -0.5446 -0.0934
 3706TIP3    H232534   3.627   2.215  14.485  2.2789 -0.9403 -0.0868
 3707TIP3   OH232535   5.502   1.706  14.139  0.5802 -0.3032  0.4077
 3707TIP3    H132536   5.438   1.659  14.085 -1.1047 -0.3249  2.2819
 3707TIP3    H232537   5.515   1.789  14.093 -0.6403 -0.3968 -0.1484
 3708TIP3   OH232538   6.683   0.179  16.689 -0.3121  0.0388 -0.0861
 3708TIP3    H132539   6.766   0.227  16.684 -0.0012 -0.5432 -0.6520
 3708TIP3    H232540   6.708   0.092  16.722 -0.7193 -0.0887 -0.1103
 3709TIP3   OH232541   5.032   3.719   1.347  0.4669 -0.7466 -0.2090
 3709TIP3    H132542   4.986   3.640   1.317  0.1829 -0.4060 -0.6976
 3709TIP3    H232543   5.079   3.692   1.425 -3.5376 -0.3368  2.7121
 3710TIP3   OH232544   2.957   3.131  14.642  0.2811  0.3194  0.2276
 3710TIP3    H132545   2.925   3.119  14.732  1.5705 -2.2411  0.4444
 3710TIP3    H232546   2.878   3.136  14.589 -0.5431 -1.0279  1.2424
 3711TIP3   OH232547   2.765   0.034   5.702 -0.1599  0.0067  0.5920
 3711TIP3    H132548   2.809  -0.002   5.625  0.0568 -0.0353  0.7368
 3711TIP3    H232549   2.672   0.013   5.688 -0.1215 -0.0005  0.3428
 3712TIP3   OH232550   3.673   1.704  13.582  0.4621 -0.3352  0.1194
 3712TIP3    H132551   3.668   1.736  13.492 -2.6252  1.3245  0.7413
 3712TIP3    H232552   3.732   1.765  13.626  1.5946 -0.8589 -0.6473
 3713TIP3   OH232553   0.578   4.559  11.408 -0.1419  0.6299  0.2753
 3713TIP3    H132554   0.619   4.566  11.322 -2.9007 -2.3315 -1.4743
 3713TIP3    H232555   0.505   4.621  11.406  0.5037  1.4539  1.0381
 3714TIP3   OH232556   6.119   0.543   2.037 -0.2327  0.2140 -0.6049
 3714TIP3    H132557   6.133   0.471   2.099  1.4016  1.1721  0.2221
 3714TIP3    H232558   6.189   0.532   1.972 -0.6033  0.4726 -1.0505
 3715TIP3   OH232559   1.908   2.664  16.757 -0.1355 -0.0071 -0.0340
 3715TIP3    H132560   1.999   2.693  16.742  0.8880 -1.5660  2.4546
 3715TIP3    H232561   1.878   2.632  16.672  1.8858 -0.0197 -0.7970
 3716TIP3   OH232562   2.244   5.810  10.297 -0.1251 -0.5874 -0.5308
 3716TIP3    H132563   2.312   5.763  10.248  1.8977  1.9812 -0.4042
 3716TIP3    H232564   2.248   5.771  10.385  0.9764 -0.6885 -0.6138
 3717TIP3   OH232565   3.188   0.723  12.439  0.0555 -0.2725 -0.4727
 3717TIP3    H132566   3.215   0.792  12.499  0.6608  3.5627 -4.6178
 3717TIP3    H232567   3.251   0.653  12.453  1.4162  1.2612  1.8155
 3718TIP3   OH232568   5.922   2.370   0.061  0.1681  0.5205 -0.0547
 3718TIP3    H132569   5.954   2.295   0.011  1.1600  0.2272  0.9620
 3718TIP3    H232570   5.941   2.347   0.152 -1.3895  1.1352  0.4519
 3719TIP3   OH232571   5.502   4.328   3.371 -0.1397  0.0381 -0.3900
 3719TIP3    H132572   5.576   4.267   3.365  0.7127  0.4395  3.4030
 3719TIP3    H232573   5.537   4.412   3.341 -0.0637 -0.4156 -1.6300
 3720TIP3   OH232574   3.381   6.663  17.047  0.4790  0.2865 -0.4260
 3720TIP3    H132575   3.411   6.638  17.135 -1.0715 -0.7722 -0.1531
 3720TIP3    H232576   3.441   6.617  16.988  0.3242 -0.6176  0.0922
 3721TIP3   OH232577   3.574   1.179   4.453  0.3434  0.2079  0.4471
 3721TIP3    H132578   3.625   1.132   4.519  0.6344 -1.7062 -1.0371
 3721TIP3    H232579   3.483   1.167   4.480  0.2769 -2.6726 -0.6423
 3722TIP3   OH232580   6.514   6.040   2.120 -0.4731  0.2280  0.2714
 3722TIP3    H132581   6.488   5.948   2.122  0.1984  0.0341  0.9397
 3722TIP3    H232582   6.588   6.044   2.181  0.4263  0.9303 -0.8421
 3723TIP3   OH232583   4.871   5.196  12.259  0.9378 -0.3540  0.5075
 3723TIP3    H132584   4.804   5.257  12.289  0.5472  0.5230 -1.8995
 3723TIP3    H232585   4.929   5.185  12.334  0.0022  1.5542  1.5915
 3724TIP3   OH232586   3.785   1.481  15.053  0.2453 -0.1213 -0.3523
 3724TIP3    H132587   3.763   1.512  14.965  1.4750  3.4613  0.4310
 3724TIP3    H232588   3.867   1.433  15.041  0.8090  0.9893 -1.0936
 3725TIP3   OH232589   4.750   2.455  15.763 -0.3406  0.2010  0.0416
 3725TIP3    H132590   4.758   2.460  15.668  1.8739  0.2479  0.1904
 3725TIP3    H232591   4.820   2.396  15.790  1.6364  3.1752  1.9201
 3726TIP3   OH232592   3.418   2.020  14.113 -0.3840 -0.4343  0.2043
 3726TIP3    H132593   3.360   2.077  14.162  0.6312 -0.7854  1.8911
 3726TIP3    H232594   3.461   2.077  14.049 -1.0470  0.2187  0.3383
 3727TIP3   OH232595   0.841   5.578   3.449  0.1810  0.3988 -0.3729
 3727TIP3    H132596   0.769   5.536   3.401 -0.4842  0.2161  0.7588
 3727TIP3    H232597   0.919   5.528   3.425 -0.4268 -0.8151  0.1098
 3728TIP3   OH232598   5.348   3.246  16.554 -0.3665 -0.3426  0.1212
 3728TIP3    H132599   5.414   3.242  16.623  1.4198 -1.2450 -1.5451
 3728TIP3    H232600   5.394   3.284  16.479 -1.8219 -0.7495 -1.0245
 3729TIP3   OH232601   1.075   4.457   2.761 -0.2881 -0.1484  0.3741
 3729TIP3    H132602   1.104   4.511   2.688  1.6394  0.0057  1.1758
 3729TIP3    H232603   1.080   4.367   2.728 -2.0880  0.0243 -0.4968
 3730TIP3   OH232604   1.612   0.108  12.357 -0.0789 -0.0748  0.3161
 3730TIP3    H132605   1.569   0.031  12.393  0.0074  0.2610  1.1624
 3730TIP3    H232606   1.702   0.104  12.390  0.7548 -1.0709 -1.8905
 3731TIP3   OH232607   2.181   2.099  15.663 -0.6272 -0.1049  0.1487
 3731TIP3    H132608   2.109   2.141  15.616 -0.7985 -0.0745  0.4353
 3731TIP3    H232609   2.160   2.112  15.755  0.7740  1.7478  0.2791
 3732TIP3   OH232610   1.436   4.603  12.941  0.3929  0.0010  0.2245
 3732TIP3    H132611   1.518   4.553  12.941 -0.4403 -1.4335  0.0497
 3732TIP3    H232612   1.459   4.687  12.901  1.7280 -0.4698 -0.0505
 3733TIP3   OH232613   3.248   2.054  13.267 -0.7729  0.1524 -0.0172
 3733TIP3    H132614   3.322   2.114  13.268 -0.9409  0.3522  0.6868
 3733TIP3    H232615   3.220   2.047  13.358 -1.0320 -0.6573 -0.1430
 3734TIP3   OH232616   6.340   5.690  17.023  0.0198 -0.0345 -0.2408
 3734TIP3    H132617   6.365   5.649  16.941  0.6540 -0.2292  0.0485
 3734TIP3    H232618   6.314   5.618  17.080  0.2147  0.0408 -0.0516
 3735TIP3   OH232619   0.542   2.837  12.500 -0.2827  0.5735 -0.6524
 3735TIP3    H132620   0.517   2.901  12.433  2.2087  0.7822 -1.4675
 3735TIP3    H232621   0.638   2.840  12.502 -0.2106 -1.0238  1.3975
 3736TIP3   OH232622   4.896   5.551  12.950 -0.4992 -0.4727  0.3164
 3736TIP3    H132623   4.870   5.642  12.961 -1.7694 -0.7955  0.0737
 3736TIP3    H232624   4.842   5.502  13.012 -2.7148 -1.4991 -2.2248
 3737TIP3   OH232625   5.044   0.429  11.094  0.3427 -0.3083 -0.1367
 3737TIP3    H132626   5.070   0.339  11.077 -1.6827 -0.8374 -0.6941
 3737TIP3    H232627   5.066   0.443  11.186  1.8232 -0.9347 -0.3764
 3738TIP3   OH232628   2.064   5.379  14.296  0.5480 -0.8664 -0.3544
 3738TIP3    H132629   2.063   5.320  14.220  2.0140  1.3275 -2.2468
 3738TIP3    H232630   1.994   5.442  14.278 -0.1931 -1.2724  1.0109
 3739TIP3   OH232631   0.073   6.616   4.307  0.0316  0.1942 -0.2646
 3739TIP3    H132632   0.024   6.626   4.225 -0.6247  1.4597  0.2537
 3739TIP3    H232633   0.033   6.680   4.367  0.2067 -1.0201  1.1952
 3740TIP3   OH232634   4.138   1.808  11.851 -0.4111 -0.4932 -0.2929
 3740TIP3    H132635   4.066   1.758  11.810 -1.0377 -0.7135  1.0377
 3740TIP3    H232636   4.095   1.859  11.919  0.4088  1.0044 -0.8590
 3741TIP3   OH232637   1.961   2.089  11.469 -0.1111  0.0400  0.4811
 3741TIP3    H132638   1.947   2.009  11.520 -0.2048 -0.8437 -0.8855
 3741TIP3    H232639   1.883   2.141  11.485 -1.6854 -1.6301 -1.2202
 3742TIP3   OH232640   1.390   0.457  14.115 -0.6153  0.6189 -0.3056
 3742TIP3    H132641   1.298   0.450  14.140 -0.8596  1.9112 -0.7692
 3742TIP3    H232642   1.401   0.548  14.089  0.3668  0.0750 -1.9392
 3743TIP3   OH232643   2.806   1.219   3.506  0.0436 -0.0716 -0.6390
 3743TIP3    H132644   2.777   1.128   3.505 -0.3752  0.0217 -2.9806
 3743TIP3    H232645   2.791   1.250   3.416  1.2404  1.9660 -0.2033
 3744TIP3   OH232646   1.303   2.471   2.081  0.1588  0.0013  0.3695
 3744TIP3    H132647   1.224   2.419   2.067 -0.7199  1.0304  1.3702
 3744TIP3    H232648   1.278   2.536   2.147  1.7805  0.4793  0.5518
 3745TIP3   OH232649   6.183   1.735  15.620  0.0381  0.4475  0.0173
 3745TIP3    H132650   6.148   1.816  15.657  0.4826  1.0773 -0.9116
 3745TIP3    H232651   6.166   1.669  15.687 -1.0728  1.1425  0.4428
 3746TIP3   OH232652   4.131   1.009   2.044 -0.3961 -0.2474  0.6094
 3746TIP3    H132653   4.142   1.102   2.020 -2.7895  0.4801  1.9968
 3746TIP3    H232654   4.050   0.983   2.000 -1.4233 -0.7429  2.7142
 3747TIP3   OH232655   0.918   3.381  11.716 -0.3945 -0.4704  0.1916
 3747TIP3    H132656   0.965   3.456  11.679 -1.2728  0.4904  0.9433
 3747TIP3    H232657   0.985   3.331  11.763  0.2670 -0.3521 -0.6034
 3748TIP3   OH232658   4.298   5.402   2.671  0.3388 -0.1582  0.3694
 3748TIP3    H132659   4.292   5.318   2.626  2.5740  0.2721 -0.8603
 3748TIP3    H232660   4.390   5.425   2.667 -0.2338  2.4838  0.4848
 3749TIP3   OH232661   1.518   3.920  11.221  0.2113 -0.1186 -0.4607
 3749TIP3    H132662   1.582   3.868  11.173  1.6858  1.1774  0.0227
 3749TIP3    H232663   1.494   3.991  11.161  1.0269  0.7273  0.1854
 3750TIP3   OH232664   6.371   0.944   6.127  0.2946 -0.2158 -0.0100
 3750TIP3    H132665   6.418   1.004   6.068  0.7574  0.6760  1.2169
 3750TIP3    H232666   6.404   0.966   6.214 -1.2093 -0.7167  0.7171
 3751TIP3   OH232667   4.834   6.389   4.654 -0.0026  0.3346  0.2745
 3751TIP3    H132668   4.767   6.366   4.590  1.5239 -1.5656 -0.7503
 3751TIP3    H232669   4.901   6.322   4.644  2.7308  2.8470  0.2890
 3752TIP3   OH232670   1.133   0.157   6.496 -0.3198  0.3846  0.2910
 3752TIP3    H132671   1.182   0.194   6.570  0.2707 -0.6322  0.4259
 3752TIP3    H232672   1.196   0.103   6.450 -0.5607  1.3582 -1.2588
 3753TIP3   OH232673   1.256   5.377   1.169 -0.0278  0.4925 -0.3648
 3753TIP3    H132674   1.336   5.332   1.198  2.2894  2.6627 -2.8332
 3753TIP3    H232675   1.211   5.400   1.250  1.3110 -1.6537  1.0896
 3754TIP3   OH232676   0.979   6.536  11.751 -0.4765  0.2188 -0.0651
 3754TIP3    H132677   0.970   6.456  11.699  1.9167 -0.4518  0.4089
 3754TIP3    H232678   0.994   6.605  11.686 -0.9956  0.0006 -0.4158
 3755TIP3   OH232679   0.360   1.405  15.435 -0.2981  0.1787 -0.2377
 3755TIP3    H132680   0.455   1.396  15.434 -0.3073  0.1284 -1.2185
 3755TIP3    H232681   0.337   1.433  15.347 -0.9416  3.1117  0.7659
 3756TIP3   OH232682   0.256   2.321   3.370 -0.3196  0.3763  0.2289
 3756TIP3    H132683   0.188   2.386   3.353 -0.4647  0.0318 -0.5756
 3756TIP3    H232684   0.318   2.365   3.428 -1.1766  0.7248  0.9064
 3757TIP3   OH232685   3.150   1.301  16.263  0.4599  0.0544  0.7113
 3757TIP3    H132686   3.185   1.213  16.254  1.1944  0.3028  1.0563
 3757TIP3    H232687   3.138   1.312  16.358 -1.5976 -0.4093  0.5713
 3758TIP3   OH232688   5.860   4.016   2.283 -0.1866  0.4977  0.2469
 3758TIP3    H132689   5.809   3.939   2.309 -0.2363  0.7304  0.8713
 3758TIP3    H232690   5.851   4.076   2.357  0.4077  0.8309  0.0549
 3759TIP3   OH232691   6.739   3.085  13.964  0.2344  0.1457  0.2871
 3759TIP3    H132692   6.716   3.126  14.047  2.0596 -1.7539  1.8383
 3759TIP3    H232693   6.835   3.086  13.962  0.2607 -1.2907 -1.0182
 3760TIP3   OH232694   3.607   1.985   2.482  0.1893 -0.4395  0.4690
 3760TIP3    H132695   3.596   1.952   2.392  1.4005 -0.0724  0.1598
 3760TIP3    H232696   3.691   2.030   2.480 -0.0466  0.0812  1.6546
 3761TIP3   OH232697   2.279   5.573  14.926 -0.3081  0.0772 -0.0297
 3761TIP3    H132698   2.265   5.613  15.012 -0.3573  0.3797 -0.1773
 3761TIP3    H232699   2.361   5.524  14.935 -0.0870  0.4580  0.0676
 3762TIP3   OH232700   5.319   6.494   4.762 -0.3607  0.2549 -0.4222
 3762TIP3    H132701   5.295   6.522   4.850 -0.0918 -0.9851  0.0543
 3762TIP3    H232702   5.413   6.513   4.755 -0.7292  2.0336 -1.1147
 3763TIP3   OH232703   4.767   2.576  14.079  0.1737 -0.2711 -0.6824
 3763TIP3    H132704   4.830   2.521  14.033  1.0327  0.0127  0.1353
 3763TIP3    H232705   4.782   2.558  14.172 -0.0710  0.7513 -0.4339
 3764TIP3   OH232706   1.885   6.033  12.899  0.4675 -0.6539 -0.5072
 3764TIP3    H132707   1.908   6.007  12.810 -1.5414  0.0965 -1.2977
 3764TIP3    H232708   1.952   6.098  12.923  2.5802 -2.7417 -0.3928
 3765TIP3   OH232709   1.596   5.710  11.935 -0.1873  0.0819  0.0825
 3765TIP3    H132710   1.682   5.714  11.894  0.3842 -0.2512  1.1957
 3765TIP3    H232711   1.586   5.796  11.977 -1.1207  0.7291 -1.3755
 3766TIP3   OH232712   1.454   0.646   2.603 -0.1042  0.3304 -0.2147
 3766TIP3    H132713   1.470   0.738   2.623  1.9746  0.2575 -1.2361
 3766TIP3    H232714   1.521   0.625   2.537 -2.2066 -1.1968 -2.0022
 3767TIP3   OH232715   3.291   2.172   5.401 -0.2137  0.1941 -0.2778
 3767TIP3    H132716   3.252   2.220   5.328 -2.1778  1.8182  1.7402
 3767TIP3    H232717   3.256   2.083   5.392  0.3380  0.0943 -1.8062
 3768TIP3   OH232718   2.220   1.295  13.226  0.4528  0.6294 -0.0606
 3768TIP3    H132719   2.245   1.288  13.133  0.8421 -0.0583  0.0834
 3768TIP3    H232720   2.129   1.324  13.225  0.6304  1.1814 -0.6475
 3769TIP3   OH232721   2.599   5.369   1.046  0.2643  0.0023  0.0591
 3769TIP3    H132722   2.542   5.293   1.044 -0.0382  0.1951  0.9607
 3769TIP3    H232723   2.620   5.386   0.954 -1.2135 -0.0014 -0.2923
 3770TIP3   OH232724   6.480   4.748   6.881 -0.2497  1.0385 -0.6590
 3770TIP3    H132725   6.525   4.693   6.817 -0.0641 -1.1473  1.2346
 3770TIP3    H232726   6.551   4.789   6.930  0.0226 -2.9031  2.7518
 3771TIP3   OH232727   2.868   6.422   0.834 -0.2138 -0.0748  0.7179
 3771TIP3    H132728   2.913   6.364   0.896 -0.6345 -0.1858  0.9216
 3771TIP3    H232729   2.921   6.418   0.755 -0.4409 -1.0164  0.6059
 3772TIP3   OH232730   4.457   0.756  14.123  0.4368  0.5799  0.5202
 3772TIP3    H132731   4.423   0.844  14.108 -0.8262  0.0911  0.3220
 3772TIP3    H232732   4.421   0.704  14.051  0.8748 -0.1658  0.8246
 3773TIP3   OH232733   2.768   0.608   4.053 -0.1517  0.3218  0.0667
 3773TIP3    H132734   2.718   0.652   3.985  0.5089  0.8532 -0.0831
 3773TIP3    H232735   2.838   0.669   4.075  0.4005 -0.3850  0.3116
 3774TIP3   OH232736   5.568   1.528   5.825 -0.0320 -0.1640  0.3293
 3774TIP3    H132737   5.628   1.599   5.849 -0.6416  0.1615  0.9279
 3774TIP3    H232738   5.609   1.449   5.861  1.1061 -0.2694 -1.1154
 3775TIP3   OH232739   0.273   0.731  11.049 -0.0686  0.3822  0.5599
 3775TIP3    H132740   0.362   0.748  11.019  0.6264 -0.6064  1.9495
 3775TIP3    H232741   0.276   0.747  11.144 -0.9545 -1.1745  0.8921
 3776TIP3   OH232742   4.228   3.369  15.929  0.1006  0.0412  0.0712
 3776TIP3    H132743   4.291   3.303  15.900 -1.6753 -1.9542  0.4968
 3776TIP3    H232744   4.264   3.402  16.012  0.5990 -0.9990  0.2799
 3777TIP3   OH232745   4.267   6.393   6.100  0.0047 -0.2310  0.5489
 3777TIP3    H132746   4.246   6.473   6.147 -2.1713  0.3100 -1.1658
 3777TIP3    H232747   4.329   6.421   6.033 -0.4246 -0.0372  0.2241
 3778TIP3   OH232748   3.816   1.103   4.263 -0.4745 -0.4706 -0.7696
 3778TIP3    H132749   3.875   1.029   4.256 -0.3906 -0.2712 -5.4306
 3778TIP3    H232750   3.732   1.070   4.231 -1.9971  0.2269  2.1347
 3779TIP3   OH232751   1.301   0.743   0.667 -0.5715 -0.1147  1.1881
 3779TIP3    H132752   1.228   0.778   0.718 -1.3795  1.4178 -0.8963
 3779TIP3    H232753   1.260   0.700   0.592  0.5980  1.5016 -0.4805
 3780TIP3   OH232754   3.874   6.730  14.042  0.4152  0.0721 -0.1778
 3780TIP3    H132755   3.938   6.688  13.986 -0.3981  1.1123 -1.9836
 3780TIP3    H232756   3.926   6.786  14.100  1.2595 -0.8069 -0.0673
 3781TIP3   OH232757   2.844   4.766  12.413  0.2852  0.2241 -0.3447
 3781TIP3    H132758   2.870   4.682  12.375  1.3902  0.4773 -0.1604
 3781TIP3    H232759   2.926   4.811  12.431 -0.2383  0.5416  1.3760
 3782TIP3   OH232760   0.996   4.021   4.751 -0.4198  0.4386 -0.5294
 3782TIP3    H132761   0.959   3.984   4.671 -1.7594  2.3923 -0.8549
 3782TIP3    H232762   1.091   4.015   4.738 -0.6101  0.7757 -2.2792
 3783TIP3   OH232763   5.702   1.491  11.261 -0.1898 -0.2340  0.0736
 3783TIP3    H132764   5.749   1.464  11.182 -0.4850  0.7138 -0.4414
 3783TIP3    H232765   5.614   1.455  11.251 -0.6156  0.9331 -0.6633
 3784TIP3   OH232766   6.245   3.809  17.052  0.3252  0.1459 -0.2159
 3784TIP3    H132767   6.290   3.726  17.033 -0.8517 -1.3249  2.7639
 3784TIP3    H232768   6.157   3.798  17.015  0.4974  0.5455 -0.7604
 3785TIP3   OH232769   6.498   6.296  13.953 -0.1997 -0.3485  0.0924
 3785TIP3    H132770   6.407   6.316  13.977  0.0783  0.1643  0.7820
 3785TIP3    H232771   6.544   6.290  14.037  0.2624 -1.3634 -0.2151
 3786TIP3   OH232772   3.485   3.803   0.704 -0.1872 -0.2629  0.2806
 3786TIP3    H132773   3.537   3.741   0.653  0.5793  0.6976 -0.1547
 3786TIP3    H232774   3.546   3.837   0.770 -0.6389 -0.0985  0.6172
 3787TIP3   OH232775   1.941   0.662   4.561 -0.0607  0.1643  0.3886
 3787TIP3    H132776   1.907   0.575   4.542 -0.8033 -0.0477  2.4655
 3787TIP3    H232777   1.916   0.715   4.486 -2.1433 -0.7484  0.3909
 3788TIP3   OH232778   2.838   2.559  13.779 -0.5122  0.2774 -0.4759
 3788TIP3    H132779   2.912   2.620  13.773 -0.6201  0.5124  0.3360
 3788TIP3    H232780   2.788   2.591  13.854 -1.2591 -0.0781 -0.8165
 3789TIP3   OH232781   6.388   2.124  11.194  0.5496 -0.9806 -0.0894
 3789TIP3    H132782   6.309   2.083  11.157 -0.8450  0.9895  0.5719
 3789TIP3    H232783   6.455   2.111  11.127 -0.6917 -1.4889 -1.2861
 3790TIP3   OH232784   6.760   5.389  12.286 -0.7092 -0.7977  1.2766
 3790TIP3    H132785   6.754   5.303  12.328  0.6519 -2.3391 -1.4611
 3790TIP3    H232786   6.851   5.397  12.261 -1.7889 -1.3739 -3.8094
 3791TIP3   OH232787   4.655   4.643  14.238  0.4606 -0.6016  0.4260
 3791TIP3    H132788   4.560   4.652  14.234  0.3765 -1.1403  1.0762
 3791TIP3    H232789   4.670   4.555  14.273  1.1747  0.2885  2.5399
 3792TIP3   OH232790   1.088   3.179   5.105  0.0614  0.5129  0.3336
 3792TIP3    H132791   1.043   3.134   5.034  1.5206 -1.3081  0.4636
 3792TIP3    H232792   1.142   3.245   5.063 -1.8385  2.0195  0.1054
 3793TIP3   OH232793   3.415   0.330  15.782  0.2198  0.5367 -0.1000
 3793TIP3    H132794   3.503   0.343  15.747  0.6974 -0.3501  0.7233
 3793TIP3    H232795   3.424   0.340  15.876 -0.3975 -0.3299  0.0682
 3794TIP3   OH232796   0.737   1.903  10.573  0.6111  0.5421 -0.4227
 3794TIP3    H132797   0.804   1.966  10.546 -0.2517  0.3334 -3.5322
 3794TIP3    H232798   0.716   1.856  10.492  0.1722 -2.7710  1.4626
 3795TIP3   OH232799   6.726   4.465  14.253  0.3528 -0.1037  0.3964
 3795TIP3    H132800   6.778   4.522  14.197 -0.7668  1.9486  1.3254
 3795TIP3    H232801   6.732   4.379  14.212  0.7499  0.9927 -2.0142
 3796TIP3   OH232802   2.386   5.293  11.579 -0.1244  0.2880  0.2841
 3796TIP3    H132803   2.318   5.328  11.521 -0.5270  1.4059  1.3927
 3796TIP3    H232804   2.460   5.351  11.567  0.3893 -0.4704 -0.3326
 3797TIP3   OH232805   1.912   5.043  11.780  0.2036  0.0091 -0.4722
 3797TIP3    H132806   1.854   5.108  11.741  2.5943  1.8895 -1.0849
 3797TIP3    H232807   1.950   5.087  11.856  0.0330 -1.5745  0.5751
 3798TIP3   OH232808   3.797   5.360  14.893 -0.2472  0.2470  0.0776
 3798TIP3    H132809   3.750   5.296  14.946  0.3007  0.8056  1.2586
 3798TIP3    H232810   3.848   5.307  14.832 -0.8026 -0.4041  0.1621
 3799TIP3   OH232811   4.168   1.989  13.204  0.1077  0.7023  0.0425
 3799TIP3    H132812   4.264   1.990  13.200  0.0624  0.5917 -1.3710
 3799TIP3    H232813   4.147   1.910  13.255  0.7460  0.3840 -0.1796
 3800TIP3   OH232814   5.069   4.636  16.654  0.1756  0.1083 -0.1589
 3800TIP3    H132815   4.993   4.621  16.711 -1.0493  2.8236 -0.9178
 3800TIP3    H232816   5.137   4.579  16.689 -1.2371 -0.0549  2.5748
 3801TIP3   OH232817   6.158   6.794   2.011  0.2891  0.2642  0.5096
 3801TIP3    H132818   6.224   6.812   1.945  1.2598 -4.4258 -0.1915
 3801TIP3    H232819   6.207   6.790   2.094  0.5416 -1.0183  0.3219
 3802TIP3   OH232820   0.219   1.346   2.791 -0.7208  0.3808 -0.1931
 3802TIP3    H132821   0.140   1.369   2.742 -0.4541 -1.3642 -1.5519
 3802TIP3    H232822   0.194   1.268   2.841 -0.0570  0.2439 -0.0685
 3803TIP3   OH232823   2.401   1.350  10.546  0.1717 -0.4875  0.1664
 3803TIP3    H132824   2.419   1.256  10.543 -2.0622 -1.0926  2.2302
 3803TIP3    H232825   2.330   1.362  10.483  2.3664  0.4519 -2.2815
 3804TIP3   OH232826   2.379   2.383   0.836 -0.3640  0.3084  0.1370
 3804TIP3    H132827   2.365   2.448   0.768  0.4321  0.0727 -0.2591
 3804TIP3    H232828   2.376   2.299   0.790 -3.0440 -0.1016  0.8731
 3805TIP3   OH232829   1.878   4.475   4.189 -0.3359  0.0738  0.4656
 3805TIP3    H132830   1.836   4.434   4.114  1.5597 -2.6440  0.7497
 3805TIP3    H232831   1.833   4.438   4.265 -0.4431  0.7016  0.7136
 3806TIP3   OH232832   0.507   6.771   4.486  0.0070  0.1154  0.4895
 3806TIP3    H132833   0.494   6.722   4.404  4.8717  1.2187 -1.3007
 3806TIP3    H232834   0.448   6.846   4.478 -2.8275 -1.9900  0.2255
 3807TIP3   OH232835   2.778   5.998   1.114  0.1540  0.3147  0.1438
 3807TIP3    H132836   2.695   5.969   1.153 -0.1798  1.5778  0.4167
 3807TIP3    H232837   2.752   6.065   1.051  1.0089  0.9850  0.5033
 3808TIP3   OH232838   3.046   1.757  15.300  0.3092 -0.7246 -0.0048
 3808TIP3    H132839   3.099   1.829  15.265 -0.0669 -0.5270 -0.1692
 3808TIP3    H232840   3.044   1.772  15.394 -1.1983  0.4627 -0.1962
 3809TIP3   OH232841   3.024   4.451  16.484  0.3774 -0.5557  0.1156
 3809TIP3    H132842   2.937   4.412  16.497  0.1864 -0.8273 -1.7286
 3809TIP3    H232843   3.012   4.514  16.413  1.8574 -1.2097 -0.7527
 3810TIP3   OH232844   6.740   2.863   4.909 -0.3566 -0.5706 -0.4420
 3810TIP3    H132845   6.675   2.809   4.865  0.0376 -2.1052  0.8007
 3810TIP3    H232846   6.792   2.900   4.838 -2.5401  0.7101 -1.4669
 3811TIP3   OH232847   2.761   0.030  15.383 -0.2703 -0.2884 -0.4371
 3811TIP3    H132848   2.808  -0.021  15.449  1.0557 -0.2681 -1.3159
 3811TIP3    H232849   2.735   0.110  15.428  3.1308  1.0742 -0.5540
 3812TIP3   OH232850   0.979   5.051   5.443  0.1357 -0.1442  0.1477
 3812TIP3    H132851   0.991   4.987   5.373 -1.3390  0.4547 -0.7034
 3812TIP3    H232852   0.982   5.136   5.399 -0.6717  0.2485  0.8127
 3813TIP3   OH232853   3.744   5.343  15.661  0.2806  0.7148  0.0929
 3813TIP3    H132854   3.784   5.427  15.640  1.1999  0.1089 -0.6427
 3813TIP3    H232855   3.733   5.299  15.576  2.6898 -1.1728  0.6518
 3814TIP3   OH232856   6.781   3.645  13.999  0.2218 -0.9068 -0.0375
 3814TIP3    H132857   6.812   3.695  13.924 -0.2504  0.3076  0.5619
 3814TIP3    H232858   6.700   3.604  13.970 -0.3254  0.1217  0.0212
 3815TIP3   OH232859   3.635   3.491   6.512 -0.0676 -0.0825  0.0899
 3815TIP3    H132860   3.540   3.490   6.519 -0.1233  1.6099  0.1213
 3815TIP3    H232861   3.655   3.434   6.438 -1.0804 -0.6463  0.2421
 3816TIP3   OH232862   4.842   5.184   4.837 -0.7405 -0.2903  0.0570
 3816TIP3    H132863   4.893   5.123   4.891  0.2937  1.0741  0.6703
 3816TIP3    H232864   4.752   5.175   4.868 -0.5159 -1.0971  0.5022
 3817TIP3   OH232865   4.464   5.882  17.003 -0.6578  0.5663  0.6056
 3817TIP3    H132866   4.428   5.895  16.915  0.4061  1.1043  0.2174
 3817TIP3    H232867   4.487   5.970  17.032 -1.7390  0.4847  1.7801
 3818TIP3   OH232868   5.228   6.433  15.781 -0.1483 -0.1413 -0.1956
 3818TIP3    H132869   5.257   6.380  15.707 -0.2247 -0.5676  0.0811
 3818TIP3    H232870   5.156   6.485  15.746  0.0438 -0.0827 -0.5121
 3819TIP3   OH232871   1.891   3.261  10.742 -0.3517 -0.0581  0.0098
 3819TIP3    H132872   1.845   3.200  10.800 -0.0066  0.2508  0.6261
 3819TIP3    H232873   1.952   3.206  10.693 -0.2059 -0.2441  0.3963
 3820TIP3   OH232874   2.092   5.054   0.942 -0.5950  0.2191 -0.3592
 3820TIP3    H132875   2.122   5.083   0.856  1.1999  0.3510  0.2639
 3820TIP3    H232876   2.085   5.134   0.993  0.0332 -0.0067  0.0956
 3821TIP3   OH232877   5.955   2.170   2.911 -0.2568 -0.1911 -0.4597
 3821TIP3    H132878   5.890   2.173   2.841 -0.9783  0.0982  0.2128
 3821TIP3    H232879   5.907   2.138   2.987  0.7768 -1.5750 -0.3604
 3822TIP3   OH232880   4.801   1.876  16.380 -0.5401  0.1569  0.5541
 3822TIP3    H132881   4.853   1.938  16.431 -0.8896 -0.0623  1.2036
 3822TIP3    H232882   4.755   1.824  16.447 -0.0710 -0.9607  0.0285
 3823TIP3   OH232883   5.179   3.711  12.416 -0.3899  0.1222  0.1521
 3823TIP3    H132884   5.240   3.716  12.342 -0.8361  2.4229 -0.1388
 3823TIP3    H232885   5.232   3.732  12.492 -0.3807 -0.0944  0.2075
 3824TIP3   OH232886   3.421   5.370   5.238 -0.1348 -0.1175  0.2277
 3824TIP3    H132887   3.347   5.329   5.283  0.0118 -2.0670 -1.1565
 3824TIP3    H232888   3.416   5.336   5.148  2.4334 -0.3229  0.0764
 3825TIP3   OH232889   2.474   6.616  15.048 -0.3150 -0.0684 -0.4300
 3825TIP3    H132890   2.552   6.573  15.014  0.7359  1.9037 -0.6440
 3825TIP3    H232891   2.457   6.688  14.987 -1.5614  0.2978  0.3075
 3826TIP3   OH232892   3.935   0.846   4.974 -1.1766  0.2701  0.0855
 3826TIP3    H132893   3.884   0.834   4.894 -0.4080 -1.4097 -0.1965
 3826TIP3    H232894   3.993   0.919   4.954 -2.8430  1.6601  0.1156
 3827TIP3   OH232895   2.372   5.156  12.287  0.0671  0.0569  0.6834
 3827TIP3    H132896   2.291   5.174  12.239  0.4951 -2.6694 -1.2995
 3827TIP3    H232897   2.343   5.114  12.368 -0.5540  1.8292  1.4238
 3828TIP3   OH232898   4.653   5.749   1.918 -0.5738  0.7607  0.0193
 3828TIP3    H132899   4.739   5.748   1.876 -0.3049  1.4362  0.5457
 3828TIP3    H232900   4.591   5.737   1.845 -0.0088 -0.8775 -0.2300
 3829TIP3   OH232901   1.356   5.611  14.545 -0.0157  0.2764 -0.5739
 3829TIP3    H132902   1.374   5.663  14.466 -0.2301  1.9388  0.4243
 3829TIP3    H232903   1.369   5.521  14.517 -1.1703  0.7248 -2.8160
 3830TIP3   OH232904   6.555   2.654   4.796  0.1996  0.3218  0.0882
 3830TIP3    H132905   6.597   2.583   4.843  1.0174  0.8148  0.1195
 3830TIP3    H232906   6.538   2.619   4.709 -1.9520 -0.8335  0.8940
 3831TIP3   OH232907   4.095   6.696   4.063  0.1769  0.3048 -0.0982
 3831TIP3    H132908   4.121   6.777   4.018 -1.2113  0.1963 -1.1372
 3831TIP3    H232909   4.066   6.726   4.149 -0.6271  0.9784 -0.5825
 3832TIP3   OH232910   0.551   1.853  12.137  0.0675 -0.3128  0.3589
 3832TIP3    H132911   0.568   1.934  12.186  0.3904  0.4406 -0.9250
 3832TIP3    H232912   0.638   1.826  12.107 -0.1338 -0.6986  0.1274
 3833TIP3   OH232913   3.267   1.159  15.664 -0.0798  0.4137 -0.1929
 3833TIP3    H132914   3.334   1.217  15.701 -0.1819  0.4940 -0.1340
 3833TIP3    H232915   3.185   1.204  15.680  0.0060  1.4298 -2.2714
 3834TIP3   OH232916   0.444   3.156  16.926  0.8885  0.3948  0.1359
 3834TIP3    H132917   0.389   3.187  16.998  1.0395  1.5434 -0.2187
 3834TIP3    H232918   0.534   3.171  16.956  1.1525 -2.6133  1.2276
 3835TIP3   OH232919   4.889   2.183  15.810 -0.6301  0.2110 -0.3567
 3835TIP3    H132920   4.832   2.147  15.878 -1.5546  0.7824 -0.8080
 3835TIP3    H232921   4.870   2.130  15.732  1.1617 -1.1049  0.0426
 3836TIP3   OH232922   3.623   4.251   2.851  0.4361  0.2623  0.1685
 3836TIP3    H132923   3.594   4.269   2.761  1.5602  0.8023 -0.1099
 3836TIP3    H232924   3.684   4.178   2.842 -0.6222 -0.6992  0.7041
 3837TIP3   OH232925   6.380   5.432  15.724  0.1006  0.4571  0.0316
 3837TIP3    H132926   6.415   5.456  15.638 -1.2726  3.4492  0.1830
 3837TIP3    H232927   6.313   5.366  15.705  1.4472 -0.7141 -0.8776
 3838TIP3   OH232928   3.319   5.333  15.465  0.2100 -0.0000 -0.2212
 3838TIP3    H132929   3.249   5.267  15.471 -0.4309  0.4986 -1.7387
 3838TIP3    H232930   3.275   5.416  15.483  0.5170  0.2691 -0.7011
 3839TIP3   OH232931   6.253   3.062   5.442  0.0544  0.4639  0.1334
 3839TIP3    H132932   6.177   3.120   5.441  0.4381  0.9889  0.6532
 3839TIP3    H232933   6.322   3.111   5.398  0.4053  0.4434  0.6512
 3840TIP3   OH232934   0.976   5.853  14.072 -0.1672  0.3388  0.6136
 3840TIP3    H132935   0.883   5.834  14.075 -0.1515  0.1205 -0.0177
 3840TIP3    H232936   1.019   5.770  14.091 -0.1059  0.2938  0.2967
 3841TIP3   OH232937   6.456   6.640  12.331  0.0445 -0.1003 -0.3625
 3841TIP3    H132938   6.373   6.610  12.366  0.4545 -1.4613 -0.5152
 3841TIP3    H232939   6.456   6.610  12.240  1.0931 -0.9603 -0.0984
 3842TIP3   OH232940   0.205   1.921  10.429  0.0704 -0.0575 -0.5383
 3842TIP3    H132941   0.255   1.906  10.349  0.3407 -1.6848 -0.1097
 3842TIP3    H232942   0.118   1.886  10.410  0.6557 -2.1847  0.4335
 3843TIP3   OH232943   0.942   3.279   5.604  0.3802 -0.9308 -0.0012
 3843TIP3    H132944   0.865   3.264   5.659  0.8653 -3.7222  0.0624
 3843TIP3    H232945   0.906   3.293   5.516 -0.2548 -0.1293  0.3732
 3844TIP3   OH232946   1.612   5.322  12.411 -0.1656  0.2038  0.0688
 3844TIP3    H132947   1.657   5.317  12.495  0.7626 -0.5587 -0.4569
 3844TIP3    H232948   1.609   5.231  12.380  0.4510  0.5878 -1.1916
 3845TIP3   OH232949   6.230   1.701  16.113  0.1038  0.1335 -0.5986
 3845TIP3    H132950   6.138   1.683  16.092  0.1339  0.1468 -0.7405
 3845TIP3    H232951   6.237   1.797  16.109 -0.1917  0.2286  0.7130
 3846TIP3   OH232952   3.524   3.294  14.790  0.3261  0.9448 -0.0367
 3846TIP3    H132953   3.578   3.215  14.796  0.5450  1.1115  0.2422
 3846TIP3    H232954   3.530   3.321  14.699  0.9849  1.1474  0.0624
 3847TIP3   OH232955   2.429   6.248   0.680  0.1832  0.1830  0.1402
 3847TIP3    H132956   2.508   6.193   0.682  0.4046  0.4861 -0.0589
 3847TIP3    H232957   2.401   6.253   0.772 -0.6145 -1.3488 -0.0026
 3848TIP3   OH232958   5.050   3.026   3.525  0.0264 -0.4233  0.3442
 3848TIP3    H132959   4.999   3.027   3.605  1.5278  0.0186  1.3353
 3848TIP3    H232960   5.055   2.934   3.500  0.0585 -0.6267  1.0988
 3849TIP3   OH232961   4.065   5.204   3.453  0.3213 -0.2962 -0.4038
 3849TIP3    H132962   4.100   5.162   3.531 -1.3586  1.7112  1.5854
 3849TIP3    H232963   3.973   5.177   3.451  0.5429 -1.0335 -2.2694
 3850TIP3   OH232964   5.321   0.854   3.022 -0.1242 -0.2548  0.6837
 3850TIP3    H132965   5.409   0.815   3.017  0.0891 -0.1145  2.4399
 3850TIP3    H232966   5.337   0.948   3.028 -0.2997 -0.2912  2.0794
 3851TIP3   OH232967   2.473   0.085  16.300 -0.0550  0.5620 -0.3259
 3851TIP3    H132968   2.475   0.100  16.205 -1.4097 -1.5570 -0.7516
 3851TIP3    H232969   2.563   0.100  16.328  0.0009  3.0920 -1.5774
 3852TIP3   OH232970   5.597   2.935   0.179 -0.5183  0.2974 -0.2955
 3852TIP3    H132971   5.549   2.853   0.187 -1.0796  0.6618  0.2167
 3852TIP3    H232972   5.677   2.921   0.230 -1.6659  0.8163  1.7663
 3853TIP3   OH232973   5.500   4.637  12.578  0.2251 -0.3760 -0.4013
 3853TIP3    H132974   5.482   4.545  12.596 -1.2875  0.1613  1.1300
 3853TIP3    H232975   5.414   4.674  12.557  0.3881  1.1499  1.3937
 3854TIP3   OH232976   3.774   0.137   1.962 -0.8163  0.2586  0.3646
 3854TIP3    H132977   3.760   0.138   2.056  0.3190  3.2980  0.6070
 3854TIP3    H232978   3.864   0.168   1.951 -0.3914 -1.4714 -1.7110
 3855TIP3   OH232979   1.565   4.640   0.374  0.3170  0.5123  0.3617
 3855TIP3    H132980   1.606   4.624   0.289 -3.0611 -2.1633 -1.0459
 3855TIP3    H232981   1.603   4.573   0.432 -0.9498 -1.1115 -0.5766
 3856TIP3   OH232982   6.761   3.071  12.053  0.7716 -0.7648 -0.6780
 3856TIP3    H132983   6.854   3.048  12.059  1.2387  0.9977 -0.6864
 3856TIP3    H232984   6.735   3.087  12.144  0.4388 -1.3348 -0.6674
 3857TIP3   OH232985   3.988   2.067   6.052 -0.3059  0.4922 -0.1903
 3857TIP3    H132986   3.971   1.982   6.093 -0.1457 -0.2325 -1.5579
 3857TIP3    H232987   3.920   2.125   6.087 -2.3119 -0.9671 -1.4748
 3858TIP3   OH232988   0.308   1.918   3.761 -0.4217  0.1051  0.0198
 3858TIP3    H132989   0.237   1.948   3.703 -1.5545 -0.9241  0.8341
 3858TIP3    H232990   0.269   1.847   3.811  0.2889  1.4005  2.5658
 3859TIP3   OH232991   2.262   5.974   0.991 -0.4977 -1.1856  0.2621
 3859TIP3    H132992   2.213   5.918   1.052 -2.1102  0.6179  0.7076
 3859TIP3    H232993   2.214   5.965   0.909  0.6947 -2.3068 -0.3469
 3860TIP3   OH232994   6.731   4.577   2.096 -0.5183  0.0959 -0.0057
 3860TIP3    H132995   6.662   4.630   2.137 -0.6124 -1.0479  1.4112
 3860TIP3    H232996   6.706   4.486   2.115 -0.5846 -0.5370 -2.7158
 3861TIP3   OH232997   4.969   4.301   1.011 -0.2420 -0.7070 -0.3998
 3861TIP3    H132998   4.973   4.370   0.944 -0.1788 -1.2677 -0.9786
 3861TIP3    H232999   5.034   4.236   0.984 -1.4050 -1.7672 -0.7480
 3862TIP3   OH233000   0.916   5.758  16.235 -0.3170  0.1280 -0.3118
 3862TIP3    H133001   0.888   5.846  16.210  1.4599  1.3935  1.7066
 3862TIP3    H233002   0.864   5.737  16.313 -2.2743 -1.6232 -1.9728
 3863TIP3   OH233003   1.049   4.716   0.222  0.0803  0.6040 -0.2176
 3863TIP3    H133004   1.116   4.704   0.155  1.7651  0.0318  1.4806
 3863TIP3    H233005   0.973   4.669   0.188  0.9216  0.1771 -1.6219
 3864TIP3   OH233006   2.364   3.628   3.632  0.0428  0.1880 -0.0057
 3864TIP3    H133007   2.395   3.643   3.543 -1.8613  0.7535 -0.6094
 3864TIP3    H233008   2.381   3.710   3.678  2.2181 -0.5209  0.5729
 3865TIP3   OH233009   5.983   5.872   0.646  0.1656  0.2026  0.7125
 3865TIP3    H133010   6.055   5.933   0.658  0.9118 -0.4511 -0.2461
 3865TIP3    H233011   6.023   5.795   0.605 -1.2836  0.4293 -1.3337
 3866TIP3   OH233012   1.628   1.031  15.944  0.4592 -0.2323 -0.8135
 3866TIP3    H133013   1.595   1.070  16.024  1.4386 -0.5305 -0.2431
 3866TIP3    H233014   1.580   1.074  15.874 -0.9445 -0.4991 -0.0398
 3867TIP3   OH233015   4.517   6.158   5.896  1.2952 -0.1495  0.0008
 3867TIP3    H133016   4.595   6.188   5.848 -0.2051 -1.1613 -3.3393
 3867TIP3    H233017   4.525   6.063   5.897  0.8821 -0.1840  1.1384
 3868TIP3   OH233018   2.219   0.862  12.024  0.4535  0.4342 -0.1429
 3868TIP3    H133019   2.288   0.899  12.079  1.0658 -0.5643 -0.2089
 3868TIP3    H233020   2.163   0.937  12.002  0.1309  0.8538  1.8780
 3869TIP3   OH233021   3.770   4.276   3.631  0.0057 -0.2397 -0.7357
 3869TIP3    H133022   3.717   4.233   3.699 -0.8046  0.7929 -0.6876
 3869TIP3    H233023   3.759   4.221   3.554  0.7289 -1.2913 -0.1153
 3870TIP3   OH233024   6.512   4.023  11.908  0.5245 -0.0846  0.1207
 3870TIP3    H133025   6.586   3.967  11.932 -0.2574 -1.5241 -0.6483
 3870TIP3    H233026   6.453   3.964  11.860 -0.9379  1.1143  0.3967
 3871TIP3   OH233027   3.752   3.547   4.083 -0.3042 -0.4047 -0.1010
 3871TIP3    H133028   3.681   3.609   4.065 -0.9350 -0.8831  0.7017
 3871TIP3    H233029   3.830   3.591   4.049 -0.6631  1.0496  0.8176
 3872TIP3   OH233030   2.826   2.476   0.625 -0.1258  0.0916  0.0748
 3872TIP3    H133031   2.790   2.488   0.537  0.5560 -0.2322 -0.2523
 3872TIP3    H233032   2.895   2.410   0.615 -3.1852 -3.7597  1.6415
 3873TIP3   OH233033   5.438   4.411   0.318  0.5381 -0.3260  0.0647
 3873TIP3    H133034   5.457   4.427   0.410 -0.6402 -1.3687  0.5144
 3873TIP3    H233035   5.418   4.497   0.282  1.4391  0.1516  0.6553
 3874TIP3   OH233036   0.898   3.729  15.727  0.5836 -0.0789  0.0439
 3874TIP3    H133037   0.891   3.823  15.710  0.6099 -0.3105 -1.3776
 3874TIP3    H233038   0.812   3.694  15.705  0.4465 -0.3527  0.9597
 3875TIP3   OH233039   5.031   2.495   0.162 -0.0891  0.1174 -0.1892
 3875TIP3    H133040   5.055   2.556   0.231  0.4758 -1.0770  0.7205
 3875TIP3    H233041   5.017   2.549   0.084  2.2907  1.2195  0.0785
 3876TIP3   OH233042   2.999   3.971   5.444  0.6874  0.1650  0.3916
 3876TIP3    H133043   3.074   4.016   5.484  0.9853  0.9730 -1.0358
 3876TIP3    H233044   2.979   4.021   5.365 -0.2732 -1.0438 -0.1736
 3877TIP3   OH233045   4.141   3.698   4.161 -0.3152 -0.0983  0.2222
 3877TIP3    H133046   4.145   3.775   4.218 -0.7995 -0.0045  0.1379
 3877TIP3    H233047   4.106   3.732   4.079 -1.3409 -0.5434  0.4516
 3878TIP3   OH233048   5.721   6.782   2.670  0.4679  1.0104 -0.1093
 3878TIP3    H133049   5.735   6.810   2.761  0.9294  0.1837  0.0767
 3878TIP3    H233050   5.630   6.752   2.668 -0.7109  4.1310 -0.7492
 3879TIP3   OH233051   1.378   1.730  15.999 -0.4080 -0.2246 -0.0989
 3879TIP3    H133052   1.405   1.657  15.943 -0.0605 -0.6064  0.5537
 3879TIP3    H233053   1.382   1.695  16.088 -2.6880 -0.1858  0.0818
 3880TIP3   OH233054   6.358   1.216  14.877  0.5146  0.3713 -0.3054
 3880TIP3    H133055   6.441   1.250  14.911  1.8934 -0.4015 -2.6309
 3880TIP3    H233056   6.306   1.294  14.858  1.4777  0.9705 -0.5602
 3881TIP3   OH233057   6.432   4.000   4.676  0.1974  0.3102  0.0029
 3881TIP3    H133058   6.339   3.980   4.683  0.1035  0.8064  0.2090
 3881TIP3    H233059   6.445   4.074   4.735  0.6976  0.3216 -0.1175
 3882TIP3   OH233060   2.034   3.374  11.938  0.1656  0.0475  0.4223
 3882TIP3    H133061   2.118   3.404  11.973  0.3193  0.4178 -0.2417
 3882TIP3    H233062   2.046   3.280  11.924  0.4131  0.0691  0.4868
 3883TIP3   OH233063   3.922   2.452  12.730 -0.5204  0.2030 -0.2555
 3883TIP3    H133064   3.930   2.545  12.751  1.6001  0.0563 -0.2246
 3883TIP3    H233065   3.936   2.446  12.636 -1.2579 -0.0344 -0.3571
 3884TIP3   OH233066   0.850   0.380   5.334  0.1028 -0.3590  0.0565
 3884TIP3    H133067   0.817   0.471   5.337 -3.0538 -1.2619 -2.0125
 3884TIP3    H233068   0.873   0.361   5.425  1.5841  2.6854  0.4673
 3885TIP3   OH233069   0.739   2.070  11.805 -0.1687  0.1613 -0.2859
 3885TIP3    H133070   0.670   2.057  11.740 -1.5463  1.1547  0.9091
 3885TIP3    H233071   0.713   2.150  11.852  1.5877  0.3333  0.4712
 3886TIP3   OH233072   4.217   6.557   4.908 -0.2297  0.1768  0.4126
 3886TIP3    H133073   4.273   6.514   4.972  0.3752 -0.6517 -0.6464
 3886TIP3    H233074   4.142   6.588   4.959 -0.9782 -2.5744  1.1673
 3887TIP3   OH233075   3.556   3.783   0.377 -0.1534  0.3282  0.2197
 3887TIP3    H133076   3.479   3.830   0.407 -0.4126  0.3389 -0.4404
 3887TIP3    H233077   3.630   3.828   0.418 -0.5323 -0.1780  1.4981
 3888TIP3   OH233078   6.480   3.153   3.041  0.4037 -0.3312 -0.0379
 3888TIP3    H133079   6.558   3.208   3.037  2.4435 -2.6887  2.7422
 3888TIP3    H233080   6.447   3.164   3.130  1.1767 -3.7348  0.8242
 3889TIP3   OH233081   2.577   4.643  16.312  0.8729  0.2226  0.2718
 3889TIP3    H133082   2.505   4.579  16.313  1.4307 -0.4845 -1.5650
 3889TIP3    H233083   2.644   4.603  16.368  1.4307 -1.1291 -1.2732
 3890TIP3   OH233084   3.089   1.498  14.997 -0.3317  0.3509 -0.3516
 3890TIP3    H133085   3.170   1.524  15.042  0.0506 -1.1301 -0.1220
 3890TIP3    H233086   3.031   1.471  15.068 -0.4389 -0.1127 -0.6116
 3891TIP3   OH233087   2.452   0.096  15.946 -0.0533  0.0604 -0.0001
 3891TIP3    H133088   2.537   0.054  15.939  0.3156  0.9594 -1.1816
 3891TIP3    H233089   2.459   0.175  15.892 -2.2049 -0.7967 -1.7192
 3892TIP3   OH233090   3.152   5.475   1.866 -0.5325 -0.3167  0.2109
 3892TIP3    H133091   3.119   5.561   1.838 -1.7317 -0.4752  1.1003
 3892TIP3    H233092   3.083   5.413   1.843 -0.2744 -0.8509  0.8323
 3893TIP3   OH233093   3.441   2.569   0.901  0.3335 -0.5766 -0.7407
 3893TIP3    H133094   3.465   2.641   0.844 -0.8213 -0.5217 -1.1836
 3893TIP3    H233095   3.346   2.561   0.891 -0.1320  0.2727  2.1341
 3894TIP3   OH233096   1.161   2.124  15.710 -0.3117 -0.2383  0.0477
 3894TIP3    H133097   1.200   2.063  15.772 -1.0003 -0.8339 -0.0872
 3894TIP3    H233098   1.072   2.139  15.744 -0.0878  0.8470  0.1900
 3895TIP3   OH233099   6.752   4.384   0.893 -0.2592  0.4805 -0.6980
 3895TIP3    H133100   6.772   4.329   0.817  1.4585  0.6871 -0.4474
 3895TIP3    H233101   6.719   4.466   0.856  2.0077  1.1621 -1.3579
 3896TIP3   OH233102   1.135   1.318  16.269 -0.1700  0.1326 -0.2174
 3896TIP3    H133103   1.051   1.355  16.241  0.2956  0.4330 -1.2776
 3896TIP3    H233104   1.114   1.228  16.296 -0.6190 -0.2971 -1.8910
 3897TIP3   OH233105   2.259   3.410  11.350 -0.2737  0.2752 -0.4592
 3897TIP3    H133106   2.354   3.407  11.348 -0.2869 -1.5794  0.0083
 3897TIP3    H233107   2.238   3.503  11.350  1.5230  0.7191 -0.6745
 3898TIP3   OH233108   3.066   4.476   2.644  0.1051  0.2260 -0.0911
 3898TIP3    H133109   3.138   4.413   2.650  0.3140  0.5821  1.3371
 3898TIP3    H233110   3.091   4.534   2.572  1.0508  0.1085  0.1334
 3899TIP3   OH233111   5.176   5.230   1.703 -0.0931  0.0963  0.7708
 3899TIP3    H133112   5.093   5.219   1.657 -0.9112  0.2475  2.1844
 3899TIP3    H233113   5.211   5.141   1.711 -0.0952  0.0352  0.1600
 3900TIP3   OH233114   0.161   0.502   4.721 -0.1508  0.8785 -0.2900
 3900TIP3    H133115   0.151   0.423   4.774  2.2829 -0.0538 -1.0850
 3900TIP3    H233116   0.240   0.543   4.755 -1.7131  3.4034  0.5330
 3901TIP3   OH233117   1.518   5.910  16.268  0.2973 -0.2184  0.3605
 3901TIP3    H133118   1.587   5.956  16.221 -0.0615  2.0162  1.8661
 3901TIP3    H233119   1.489   5.972  16.335 -3.1421 -1.0500 -0.1463
 3902TIP3   OH233120   0.457   5.340   2.618 -0.3496  0.0891 -0.1787
 3902TIP3    H133121   0.530   5.373   2.670 -1.6144  1.0720  1.0484
 3902TIP3    H233122   0.470   5.381   2.532 -0.1347  1.2580  0.3915
 3903TIP3   OH233123   5.715   0.328   2.737 -0.0239 -0.2081 -0.0915
 3903TIP3    H133124   5.779   0.294   2.675 -0.3088 -2.1265  0.5831
 3903TIP3    H233125   5.744   0.294   2.822 -1.3916 -0.3247  0.3561
 3904TIP3   OH233126   1.708   4.629   0.129  0.3253  0.5844  0.3859
 3904TIP3    H133127   1.793   4.666   0.152  1.4051  0.0238 -2.2889
 3904TIP3    H233128   1.674   4.688   0.061  1.2281 -2.0300 -2.6024
 3905TIP3   OH233129   6.226   4.290  10.939  0.1294 -0.0828 -0.3897
 3905TIP3    H133130   6.239   4.383  10.916 -1.0294 -0.0787 -1.1399
 3905TIP3    H233131   6.312   4.250  10.924  0.4250  0.7054 -0.9130
 3906TIP3   OH233132   1.209   4.164   0.122  0.0172  0.0166 -0.1513
 3906TIP3    H133133   1.151   4.089   0.136  0.1233 -0.2437 -1.0220
 3906TIP3    H233134   1.156   4.240   0.145 -0.2857 -0.2885  0.1756
 3907TIP3   OH233135   6.631   2.217   4.134  0.4021 -0.2015 -0.0093
 3907TIP3    H133136   6.675   2.252   4.212  0.0449 -0.7239  0.4349
 3907TIP3    H233137   6.693   2.153   4.098  1.5902  1.6818 -1.5213
 3908TIP3   OH233138   4.946   0.172  10.328 -0.6093 -0.9121  0.9153
 3908TIP3    H133139   4.920   0.261  10.351 -0.1253 -0.6855  0.6000
 3908TIP3    H233140   4.895   0.116  10.387  0.1598 -0.3714  2.1407
 3909TIP3   OH233141   0.479   2.467   3.465  0.6484 -0.4531 -0.1047
 3909TIP3    H133142   0.479   2.422   3.549  0.5652 -0.1267  0.0711
 3909TIP3    H233143   0.533   2.544   3.479  1.0082 -0.6291 -0.4789
 3910TIP3   OH233144   0.169   6.598   3.173  0.2952 -0.2538 -0.0792
 3910TIP3    H133145   0.082   6.586   3.135 -0.1992  1.0960  0.5398
 3910TIP3    H233146   0.152   6.624   3.264  1.3059  0.5580 -0.0996
 3911TIP3   OH233147   0.160   5.984   5.705  0.1360 -0.5879  0.1742
 3911TIP3    H133148   0.249   5.973   5.672  1.2358  1.7061  2.0165
 3911TIP3    H233149   0.109   6.015   5.630  1.9050  1.9303 -0.1142
 3912TIP3   OH233150   0.550   0.127  16.291 -0.4203 -1.0963  0.7865
 3912TIP3    H133151   0.616   0.106  16.225 -1.7264 -1.9047 -0.3130
 3912TIP3    H233152   0.520   0.041  16.323 -2.2497 -0.8438 -0.1057
 3913TIP3   OH233153   0.402   4.155  10.929  0.2396 -0.1682  0.3728
 3913TIP3    H133154   0.426   4.240  10.968  0.7827  0.4917 -1.3312
 3913TIP3    H233155   0.485   4.110  10.917  0.1096 -0.2206 -0.3438
 3914TIP3   OH233156   5.412   1.504   0.337 -0.0394 -0.2210  0.6473
 3914TIP3    H133157   5.428   1.586   0.383  0.8533  0.4139 -0.7461
 3914TIP3    H233158   5.355   1.454   0.396 -0.3784  1.2761  1.6287
 3915TIP3   OH233159   1.198   3.080   1.484 -0.4559 -0.6448  0.1639
 3915TIP3    H133160   1.174   3.027   1.408  0.0407 -1.2472  0.4253
 3915TIP3    H233161   1.293   3.087   1.480 -0.3818 -1.1145  1.0164
 3916TIP3   OH233162   6.671   3.640   4.111  0.2226 -0.0571 -0.7699
 3916TIP3    H133163   6.653   3.558   4.157  0.0292 -0.7344 -2.0084
 3916TIP3    H233164   6.764   3.655   4.125 -0.0442  0.3988  0.8080
 3917TIP3   OH233165   3.750   4.809  16.850 -0.3398  0.5668  0.0399
 3917TIP3    H133166   3.716   4.821  16.938 -1.7931  1.1885 -0.5625
 3917TIP3    H233167   3.693   4.744  16.810 -1.1583  1.9327 -1.1366
 3918TIP3   OH233168   3.584   1.415  16.015 -0.7015  0.4964 -0.3500
 3918TIP3    H133169   3.561   1.505  16.036 -2.7706  0.4843 -2.2412
 3918TIP3    H233170   3.605   1.416  15.921 -1.0676 -1.0290 -0.4810
 3919TIP3   OH233171   5.435   5.664   0.790 -0.1498  0.3733  0.3822
 3919TIP3    H133172   5.366   5.599   0.802  0.5501 -0.6342 -0.8576
 3919TIP3    H233173   5.493   5.650   0.865 -0.2010 -0.1895  0.3256
 3920TIP3   OH233174   2.424   2.127   0.706  0.4725  0.1182  0.2616
 3920TIP3    H133175   2.356   2.095   0.647 -1.5201  1.7358  1.5518
 3920TIP3    H233176   2.495   2.156   0.649 -0.5284 -0.2483 -1.1991
 3921TIP3   OH233177   4.688   4.296  16.721 -0.0568 -0.2568  0.3782
 3921TIP3    H133178   4.718   4.290  16.631  0.6942 -0.4250  0.6301
 3921TIP3    H233179   4.725   4.378  16.754  0.3485 -0.5876  0.7682
 3922TIP3   OH233180   2.902   1.833   3.040 -0.4569 -0.0882  0.3831
 3922TIP3    H133181   2.954   1.903   3.000 -0.5699  0.2052  0.7458
 3922TIP3    H233182   2.826   1.824   2.982 -1.9107  2.0612  1.8256
 3923TIP3   OH233183   1.163   1.129  13.265 -0.3497  0.5139 -0.2223
 3923TIP3    H133184   1.234   1.110  13.326 -0.4791 -1.9657 -0.7224
 3923TIP3    H233185   1.087   1.083  13.302 -0.5520 -0.6101 -1.9195
 3924TIP3   OH233186   0.488   3.651   3.760  0.3626 -0.3020  0.0731
 3924TIP3    H133187   0.508   3.585   3.694  0.5390 -0.5685  0.3857
 3924TIP3    H233188   0.548   3.631   3.832 -1.7495 -1.8579  1.5532
 3925TIP3   OH233189   3.260   1.828  15.870 -0.6477  0.2066 -0.0179
 3925TIP3    H133190   3.192   1.892  15.852  0.3912  1.0766 -1.0682
 3925TIP3    H233191   3.244   1.799  15.960 -0.0742  3.3381  1.2146
 3926TIP3   OH233192   6.181   3.415  10.519  0.1556  0.4659 -0.1221
 3926TIP3    H133193   6.140   3.496  10.487  1.1464  1.7042  1.6102
 3926TIP3    H233194   6.184   3.426  10.614  0.4624 -1.5596  0.1342
 3927TIP3   OH233195   0.865   3.965  14.225  0.0897 -0.1712 -0.1728
 3927TIP3    H133196   0.838   3.873  14.233 -2.4843  0.5335  0.2272
 3927TIP3    H233197   0.838   4.005  14.308 -0.8154  1.3731 -1.1648
 3928TIP3   OH233198   4.343   6.729   5.226 -0.0864  0.3301 -0.1581
 3928TIP3    H133199   4.435   6.756   5.221 -0.2188  0.9414  0.4555
 3928TIP3    H233200   4.343   6.655   5.287 -0.0761  0.7219  0.3223
 3929TIP3   OH233201   5.473   3.686  13.725 -0.1118 -0.5704 -0.0484
 3929TIP3    H133202   5.434   3.772  13.710 -0.0722 -0.5761 -0.1867
 3929TIP3    H233203   5.406   3.624  13.698 -0.5156 -0.5967  0.9794
 3930TIP3   OH233204   3.392   3.613   6.001 -0.7257 -0.5058 -0.0481
 3930TIP3    H133205   3.440   3.683   5.957  0.0607 -1.3562 -0.5707
 3930TIP3    H233206   3.304   3.618   5.965 -0.9697  0.8703  0.6879
 3931TIP3   OH233207   3.830   1.883   0.948 -0.5378  0.0402  0.0214
 3931TIP3    H133208   3.746   1.917   0.917 -1.3211 -1.6531  0.1949
 3931TIP3    H233209   3.827   1.897   1.043 -0.1022  1.0346 -0.0970
 3932TIP3   OH233210   2.987   3.746   1.939 -0.7079 -0.5661  0.2144
 3932TIP3    H133211   2.931   3.775   1.868  0.4377 -2.0307 -1.3476
 3932TIP3    H233212   2.959   3.657   1.959 -0.3032 -0.5620  0.8630
 3933TIP3   OH233213   2.960   2.681   4.370 -0.2455 -1.0599  0.6092
 3933TIP3    H133214   3.008   2.598   4.378 -0.8133 -1.7872 -2.2265
 3933TIP3    H233215   3.019   2.738   4.320 -0.8881 -0.6917  0.2607
 3934TIP3   OH233216   3.744   0.583   0.844  0.4680  0.2951 -0.0060
 3934TIP3    H133217   3.668   0.528   0.864 -0.2150  1.4088  0.5820
 3934TIP3    H233218   3.723   0.622   0.759  1.2793 -0.8661 -0.7748
 3935TIP3   OH233219   1.441   6.649   3.774  0.3177 -0.2827  0.0900
 3935TIP3    H133220   1.429   6.743   3.779 -3.2992 -0.5140 -1.1144
 3935TIP3    H233221   1.394   6.614   3.850  2.9097 -1.1393  1.3953
 3936TIP3   OH233222   5.848   0.898   4.437  0.1830 -0.0779  0.3362
 3936TIP3    H133223   5.757   0.870   4.438 -0.4763  1.8601  2.3192
 3936TIP3    H233224   5.882   0.875   4.523  0.7711  1.5283  0.5713
 3937TIP3   OH233225   2.645   0.596   2.795 -0.0216 -0.2087 -0.7380
 3937TIP3    H133226   2.584   0.542   2.845 -0.2776 -0.7274 -1.5774
 3937TIP3    H233227   2.716   0.536   2.771  0.6298  0.2919 -0.1115
 3938TIP3   OH233228   2.541   5.689  12.132  0.1742 -0.6887  0.2512
 3938TIP3    H133229   2.616   5.689  12.072 -0.2423  2.0763 -0.3917
 3938TIP3    H233230   2.497   5.606  12.114 -0.8792  0.5772 -4.6439
 3939TIP3   OH233231   2.306   1.068   3.148  0.4922  0.0858 -0.3076
 3939TIP3    H133232   2.271   0.981   3.130  1.4958 -0.5245  0.5361
 3939TIP3    H233233   2.291   1.081   3.242 -0.5031  1.2484 -0.5898
 3940TIP3   OH233234   1.232   6.109  14.644 -0.3527 -0.8180 -0.1965
 3940TIP3    H133235   1.175   6.152  14.581  1.3473 -0.6134 -1.6540
 3940TIP3    H233236   1.202   6.018  14.645 -1.1898 -0.5554 -0.3373
 3941TIP3   OH233237   4.693   3.316  12.288 -0.3401  0.6173  0.0142
 3941TIP3    H133238   4.771   3.266  12.261 -0.4814  0.3411  0.1084
 3941TIP3    H233239   4.645   3.256  12.345 -1.2645  0.3185 -1.0343
 3942TIP3   OH233240   0.448   5.211  15.726  0.8398 -0.0428  0.2408
 3942TIP3    H133241   0.454   5.305  15.747 -0.4267  0.0474  0.3103
 3942TIP3    H233242   0.469   5.167  15.808  0.5874  0.2039  0.4393
 3943TIP3   OH233243   1.492   2.731  14.057 -0.4062 -0.1707  0.0615
 3943TIP3    H133244   1.420   2.758  14.113  0.1143  2.8327 -0.5284
 3943TIP3    H233245   1.474   2.772  13.973  2.2713  1.3019  0.0922
 3944TIP3   OH233246   6.071   1.773   3.746 -0.4332 -0.1742  0.2973
 3944TIP3    H133247   6.135   1.709   3.777 -1.8496 -1.6206  0.3456
 3944TIP3    H233248   6.016   1.792   3.822  0.6882  2.0824  0.6251
 3945TIP3   OH233249   1.282   0.697   5.666  0.3795 -0.2855 -0.2231
 3945TIP3    H133250   1.313   0.615   5.628  0.7848 -0.3587  0.2441
 3945TIP3    H233251   1.335   0.707   5.746  1.0820  0.9499 -0.8107
 3946TIP3   OH233252   5.510   0.440  17.036  0.3096 -0.4844 -0.3911
 3946TIP3    H133253   5.598   0.458  17.067  0.1267  0.0701 -0.1781
 3946TIP3    H233254   5.519   0.427  16.942  0.4782  0.6335 -0.5452
 3947TIP3   OH233255   1.608   6.355   4.951 -0.0959  0.2384  0.8609
 3947TIP3    H133256   1.614   6.262   4.931 -1.9554  0.0856  0.8268
 3947TIP3    H233257   1.545   6.361   5.023 -1.0435  1.5449 -0.0154
 3948TIP3   OH233258   4.900   4.680   1.917 -0.4040  0.2296  0.4694
 3948TIP3    H133259   4.852   4.685   1.834  0.1790  0.7882  0.1615
 3948TIP3    H233260   4.861   4.748   1.972 -0.0768  0.5717  0.2780
 3949TIP3   OH233261   4.161   2.968  13.604 -0.2294  0.5276 -0.3958
 3949TIP3    H133262   4.148   2.882  13.564 -1.3987 -0.1583  1.3337
 3949TIP3    H233263   4.253   2.990  13.586 -0.4024 -0.2015 -2.4316
 3950TIP3   OH233264   4.065   6.544  16.462 -0.2127  0.6782  0.5678
 3950TIP3    H133265   4.066   6.512  16.372 -0.7373 -0.7084  1.0210
 3950TIP3    H233266   4.098   6.633  16.456 -1.1054  0.9376 -1.1128
 3951TIP3   OH233267   3.448   2.986   1.050 -0.0213  0.3574 -0.6733
 3951TIP3    H133268   3.383   3.048   1.016  0.5523  1.5211  0.2706
 3951TIP3    H233269   3.505   2.969   0.976 -1.0780 -0.2866 -1.3761
 3952TIP3   OH233270   3.480   4.467  14.702  0.5863  0.0888 -0.1030
 3952TIP3    H133271   3.389   4.469  14.675 -0.6880  4.2266  3.3078
 3952TIP3    H233272   3.481   4.412  14.780  0.7309  0.8782  0.4659
 3953TIP3   OH233273   5.931   0.774   0.029 -0.1572  0.8110  0.4242
 3953TIP3    H133274   6.002   0.816   0.079  0.1962 -0.3891  0.9779
 3953TIP3    H233275   5.976   0.707  -0.024 -0.9151 -0.3705  1.2251
 3954TIP3   OH233276   2.971   5.256  15.945 -0.3321  0.5602  0.2112
 3954TIP3    H133277   2.930   5.334  15.909  0.3657  0.5865 -0.5414
 3954TIP3    H233278   3.065   5.268  15.930 -0.2389 -0.6167 -0.3271
 3955TIP3   OH233279   4.813   5.935  16.382 -0.5039  0.7343 -0.0020
 3955TIP3    H133280   4.852   5.850  16.403  0.0609  0.9509 -0.1477
 3955TIP3    H233281   4.888   5.996  16.381 -0.6343  0.9062 -1.7112
 3956TIP3   OH233282   5.777   0.371   4.774  0.3675  0.3386  0.2096
 3956TIP3    H133283   5.701   0.411   4.816 -0.1224  0.2607 -0.5689
 3956TIP3    H233284   5.838   0.443   4.761 -0.9055  1.1128 -2.0744
 3957TIP3   OH233285   1.298   0.493   0.384  0.0716 -0.1013  0.0425
 3957TIP3    H133286   1.224   0.535   0.427 -0.3083 -0.6085 -0.1081
 3957TIP3    H233287   1.352   0.460   0.456 -0.3848 -0.6443  0.1416
 3958TIP3   OH233288   4.494   5.369   5.856 -0.0157  0.0528  0.1147
 3958TIP3    H133289   4.500   5.455   5.898  1.0792 -0.2762  0.6720
 3958TIP3    H233290   4.427   5.380   5.789 -1.3128  0.8019  1.4559
 3959TIP3   OH233291   1.200   4.856   4.855 -0.0168  0.4450  0.7213
 3959TIP3    H133292   1.130   4.798   4.885 -0.4524  1.2768  1.3224
 3959TIP3    H233293   1.278   4.800   4.855 -0.5045 -0.2567  0.8830
 3960TIP3   OH233294   6.469   4.024   5.699 -0.8006  0.4314 -0.3199
 3960TIP3    H133295   6.415   3.948   5.679 -1.6595  1.3161 -1.4670
 3960TIP3    H233296   6.548   3.988   5.740 -1.5400 -0.9981 -0.1112
 3961TIP3   OH233297   4.485   6.096   4.730  0.5765 -0.0231 -0.1694
 3961TIP3    H133298   4.551   6.096   4.799  0.2927 -1.7105  0.1531
 3961TIP3    H233299   4.414   6.043   4.765  0.0355 -0.1419 -1.3921
 3962TIP3   OH233300   5.283   2.930   5.642 -0.2948  0.1462  0.3770
 3962TIP3    H133301   5.216   2.863   5.632  0.5968 -0.6665 -0.4474
 3962TIP3    H233302   5.321   2.915   5.728 -1.5610  1.0063  1.1087
 3963TIP3   OH233303   2.615   6.609  15.332  0.1497 -0.7494  0.3130
 3963TIP3    H133304   2.590   6.618  15.240 -1.5731 -1.6714  0.6636
 3963TIP3    H233305   2.663   6.689  15.351 -2.8104  1.3506 -0.3535
 3964TIP3   OH233306   6.465   4.230  16.217  0.5697 -0.4709  0.3189
 3964TIP3    H133307   6.441   4.146  16.179 -0.1816  0.0734 -0.4444
 3964TIP3    H233308   6.407   4.293  16.175  3.4458  0.9988 -1.7966
 3965TIP3   OH233309   6.076   6.399  14.581  0.1059 -0.1423 -0.2716
 3965TIP3    H133310   6.118   6.334  14.636  1.1962  0.7754  0.0275
 3965TIP3    H233311   6.111   6.383  14.493 -0.1218 -0.3541 -0.3257
 3966TIP3   OH233312   5.076   5.101  15.975 -0.4460  0.3723  0.3747
 3966TIP3    H133313   5.111   5.150  16.049 -0.7408 -0.9698  1.4540
 3966TIP3    H233314   5.153   5.071  15.928 -0.2371  3.3562 -1.4310
 3967TIP3   OH233315   3.982   1.811   3.077 -0.3344 -0.5106  0.1977
 3967TIP3    H133316   4.075   1.788   3.070 -0.6000 -2.0473  1.1842
 3967TIP3    H233317   3.969   1.881   3.013  1.8277  0.8294  1.1379
 3968TIP3   OH233318   2.007   1.478   1.829  0.3797  0.7558 -0.1946
 3968TIP3    H133319   1.949   1.508   1.899 -1.6633 -0.5848 -1.2252
 3968TIP3    H233320   2.011   1.551   1.768  0.2297  1.0581  0.1533
 3969TIP3   OH233321   4.888   0.308   0.624  0.5497  0.2515  0.3152
 3969TIP3    H133322   4.915   0.287   0.714 -1.5778  1.3445  1.2828
 3969TIP3    H233323   4.809   0.256   0.611  0.6447  0.3779 -0.8117
 3970TIP3   OH233324   3.471   6.475   2.419  0.2292 -0.1549  0.4051
 3970TIP3    H133325   3.416   6.485   2.341  1.5088  1.1859 -0.3910
 3970TIP3    H233326   3.547   6.530   2.401  1.1405 -0.7973  2.0956
 3971TIP3   OH233327   4.757   0.952  11.636 -0.3945 -0.2088 -0.0408
 3971TIP3    H133328   4.713   1.009  11.573 -0.0835 -0.7331 -0.7552
 3971TIP3    H233329   4.730   0.864  11.611  2.7356 -0.7849 -1.9756
 3972TIP3   OH233330   3.775   5.353  14.507  0.3689 -0.0325  0.6503
 3972TIP3    H133331   3.695   5.314  14.543  1.3361 -0.6230  2.2740
 3972TIP3    H233332   3.764   5.447  14.524  0.9505 -0.3226  2.9705
 3973TIP3   OH233333   1.649   0.050   3.033 -0.3158 -0.0512  0.1473
 3973TIP3    H133334   1.583   0.061   2.964  0.9254  1.1377 -0.9104
 3973TIP3    H233335   1.710  -0.015   2.997 -1.1745 -1.5998  1.3683
 3974TIP3   OH233336   4.333   5.460  13.174  0.2558 -0.0211  0.1380
 3974TIP3    H133337   4.287   5.397  13.119  1.6584 -0.3383 -0.7262
 3974TIP3    H233338   4.421   5.424  13.182  0.7013  1.1666  0.7414
 3975TIP3   OH233339   5.658   2.784   5.160  0.1473  0.0952  0.4284
 3975TIP3    H133340   5.700   2.848   5.102 -0.4508  1.1635  1.1380
 3975TIP3    H233341   5.579   2.757   5.113  0.3854 -0.1194  0.1417
 3976TIP3   OH233342   0.439   0.719   3.677  0.1049  0.1008  0.2057
 3976TIP3    H133343   0.420   0.758   3.591  1.2528  0.6986  0.2084
 3976TIP3    H233344   0.535   0.719   3.682  0.1244 -1.8991  0.5892
 3977TIP3   OH233345   2.809   4.445  11.929 -0.0091  0.0602  0.3141
 3977TIP3    H133346   2.844   4.399  12.005 -1.4201  1.1472  1.6908
 3977TIP3    H233347   2.838   4.536  11.942  0.4770  0.1024 -0.9408
 3978TIP3   OH233348   3.472   4.609   6.934 -0.0467 -0.6964  0.5096
 3978TIP3    H133349   3.560   4.573   6.946  0.3540 -0.3069 -1.0817
 3978TIP3    H233350   3.482   4.703   6.954 -0.0819 -0.6432  0.2817
 3979TIP3   OH233351   0.481   4.164  15.972  0.1716  0.1688 -0.0113
 3979TIP3    H133352   0.434   4.125  16.046 -0.1880 -0.0974 -0.3812
 3979TIP3    H233353   0.454   4.255  15.971  0.3446  0.2250  0.3188
 3980TIP3   OH233354   4.353   4.910  14.300 -0.3344 -0.1723 -0.6005
 3980TIP3    H133355   4.357   4.992  14.349 -0.1868  0.3387 -1.4501
 3980TIP3    H233356   4.349   4.937  14.209  3.7478 -1.0995 -1.2490
 3981TIP3   OH233357   5.398   1.972   0.633  0.2071 -0.2373 -0.2813
 3981TIP3    H133358   5.432   2.059   0.652  0.1874 -0.2092 -0.3751
 3981TIP3    H233359   5.321   1.963   0.689 -1.8215  1.1091 -2.6647
 3982TIP3   OH233360   4.093   6.492  13.128  0.2653  0.0324  0.2753
 3982TIP3    H133361   4.188   6.491  13.124  0.2732  1.5354 -0.5726
 3982TIP3    H233362   4.073   6.536  13.211  0.3199  0.5740  0.0033
 3983TIP3   OH233363   3.659   4.774  11.068 -0.0654  0.5033  0.1901
 3983TIP3    H133364   3.634   4.763  10.976  0.1925 -0.2518  0.2080
 3983TIP3    H233365   3.634   4.692  11.110  1.7892 -0.0296  0.3405
 3984TIP3   OH233366   5.518   6.508  15.439  0.0668  0.4263  0.2941
 3984TIP3    H133367   5.460   6.532  15.367  0.1978  2.9350  0.9248
 3984TIP3    H233368   5.599   6.478  15.396 -1.3812 -2.6895 -0.5801
 3985TIP3   OH233369   4.410   2.698   4.583  0.1826  0.7513  0.1774
 3985TIP3    H133370   4.360   2.622   4.614 -1.2922  0.6900 -2.1423
 3985TIP3    H233371   4.390   2.768   4.644 -1.4072  0.2417  0.2686
 3986TIP3   OH233372   2.905   2.926   6.094 -0.0314  0.0078  0.1390
 3986TIP3    H133373   2.927   2.994   6.157 -0.9699 -0.3282  0.8417
 3986TIP3    H233374   2.910   2.844   6.143  1.7515 -0.5558 -0.8576
 3987TIP3   OH233375   1.108   3.129  14.530  0.4189 -0.7743 -0.2368
 3987TIP3    H133376   1.038   3.169  14.478 -0.2175 -2.0523 -0.3994
 3987TIP3    H233377   1.063   3.086  14.602  1.0688 -1.2752 -0.1201
 3988TIP3   OH233378   4.387   3.181   1.951 -0.3212 -0.4194 -0.5509
 3988TIP3    H133379   4.476   3.145   1.951 -1.2152 -2.8590  0.7248
 3988TIP3    H233380   4.395   3.267   1.992  1.5049 -0.4091 -0.8732
 3989TIP3   OH233381   5.472   2.412  15.462 -0.2647 -0.2247  0.0959
 3989TIP3    H133382   5.530   2.485  15.439 -1.4090  1.1191  1.3624
 3989TIP3    H233383   5.521   2.363  15.528  0.2833 -0.3125 -0.3657
 3990TIP3   OH233384   2.166   2.745   1.534 -0.1443  0.2569 -0.1390
 3990TIP3    H133385   2.205   2.736   1.621  2.2695  0.0005 -1.1653
 3990TIP3    H233386   2.092   2.685   1.535  1.0426 -1.2787  1.1139
 3991TIP3   OH233387   3.892   1.451   3.963 -0.1489 -0.5586 -0.0755
 3991TIP3    H133388   3.906   1.413   3.876 -2.2865  0.0157 -0.7412
 3991TIP3    H233389   3.878   1.544   3.946 -0.8726 -0.4886  0.8334
 3992TIP3   OH233390   3.538   0.819   0.385 -0.0475  0.0371  0.3038
 3992TIP3    H133391   3.631   0.829   0.366  0.2793 -0.1594  1.6655
 3992TIP3    H233392   3.494   0.874   0.320  1.0011 -0.0012 -0.4595
 3993TIP3   OH233393   5.483   5.516   4.425  0.0516 -0.0895 -0.1361
 3993TIP3    H133394   5.409   5.489   4.479 -0.1433  0.6116 -0.0491
 3993TIP3    H233395   5.542   5.561   4.486  0.0872  0.2192 -0.3982
 3994TIP3   OH233396   5.715   1.799   3.204 -0.1592 -0.1463  0.0967
 3994TIP3    H133397   5.753   1.796   3.116  1.7693  0.8083  0.8300
 3994TIP3    H233398   5.753   1.878   3.243  0.3900 -1.4446  2.3561
 3995TIP3   OH233399   6.611   4.274  16.646  0.3064  0.2781  0.0738
 3995TIP3    H133400   6.601   4.366  16.620 -0.5785  0.5810  1.3935
 3995TIP3    H233401   6.537   4.229  16.606  0.0700  0.3746  0.3934
 3996TIP3   OH233402   5.687   3.896   5.936  0.3791 -0.0733 -0.1396
 3996TIP3    H133403   5.701   3.827   6.001  0.3340  0.6262  0.6349
 3996TIP3    H233404   5.762   3.955   5.946  0.4901 -0.0722 -0.8845
 3997TIP3   OH233405   4.645   4.649   4.666  0.0294  0.4943 -0.3185
 3997TIP3    H133406   4.647   4.744   4.656 -0.3092  0.5130 -0.2419
 3997TIP3    H233407   4.654   4.633   4.760 -0.3747  0.4740 -0.2788
 3998TIP3   OH233408   3.801   0.556  13.152  0.0319 -0.4015 -0.5015
 3998TIP3    H133409   3.852   0.609  13.213  1.8503 -2.0489 -0.5094
 3998TIP3    H233410   3.769   0.483  13.204 -1.8624  0.2685 -0.6490
 3999TIP3   OH233411   0.969   1.091  14.342  0.0387 -0.3174 -0.3871
 3999TIP3    H133412   0.983   1.169  14.396  1.0954  0.0915 -1.2103
 3999TIP3    H233413   0.874   1.086  14.331 -0.1165  0.1961  0.6151
 4000TIP3   OH233414   5.148   1.490  14.335 -0.6140  0.7066 -0.4173
 4000TIP3    H133415   5.098   1.470  14.255 -1.3911  2.5091 -0.4183
 4000TIP3    H233416   5.093   1.552  14.383 -0.0770 -0.1965  1.4643
 4001TIP3   OH233417   3.661   5.066  14.932 -0.1691 -1.2897  0.6171
 4001TIP3    H133418   3.750   5.074  14.898 -0.2163 -0.7404  0.6207
 4001TIP3    H233419   3.649   4.972  14.944  0.0676 -1.4473 -0.2999
 4002TIP3   OH233420   4.049   1.271   4.761  0.4102 -0.2991 -0.3365
 4002TIP3    H133421   3.969   1.280   4.709  0.2573 -3.6951 -0.8944
 4002TIP3    H233422   4.112   1.229   4.702  1.3602 -1.1115  1.1801
 4003TIP3   OH233423   3.330   2.292  16.580 -0.1239  0.1543  0.1709
 4003TIP3    H133424   3.284   2.240  16.513  0.0556 -0.4800  0.5304
 4003TIP3    H233425   3.415   2.249  16.589 -0.2294  0.0914  0.9693
 4004TIP3   OH233426   6.568   0.998   1.759 -0.2943  0.5175 -0.0345
 4004TIP3    H133427   6.475   0.979   1.746 -0.4391 -0.1661  1.6520
 4004TIP3    H233428   6.569   1.071   1.820  0.2640  0.1969  0.3482
 4005TIP3   OH233429   3.795   4.093  16.716 -0.5262  0.0089  0.0237
 4005TIP3    H133430   3.849   4.023  16.752 -0.8566 -0.2641 -0.0102
 4005TIP3    H233431   3.728   4.109  16.782 -1.3012 -0.6818 -0.5579
 4006TIP3   OH233432   0.620   1.425   4.682 -0.1650 -0.0292  0.0296
 4006TIP3    H133433   0.676   1.455   4.753 -0.3766  0.6455 -0.0825
 4006TIP3    H233434   0.558   1.365   4.723  0.6248 -0.7640  0.1541
 4007TIP3   OH233435   2.434   2.339  17.094 -0.0105 -0.1441  0.1611
 4007TIP3    H133436   2.398   2.401  17.157  1.2862  0.2231  0.5714
 4007TIP3    H233437   2.484   2.277  17.148  1.2129  0.2459 -0.4915
 4008TIP3   OH233438   5.342   5.041  13.876  0.1099 -0.7545 -0.1504
 4008TIP3    H133439   5.402   4.984  13.923  0.6014  0.6205  0.9257
 4008TIP3    H233440   5.389   5.065  13.796 -0.2803 -2.1629 -0.8502
 4009TIP3   OH233441   1.190   1.704   0.118 -0.1337 -0.2457  0.6214
 4009TIP3    H133442   1.204   1.673   0.029 -1.0327 -2.6174  1.2262
 4009TIP3    H233443   1.095   1.717   0.125  0.0902  1.6712  0.7626
 4010TIP3   OH233444   5.240   3.285  14.121  0.1365 -0.6024  0.2262
 4010TIP3    H133445   5.283   3.293  14.206 -2.2315  4.0032  1.3346
 4010TIP3    H233446   5.299   3.331  14.061 -0.4540  0.5787  0.5201
 4011TIP3   OH233447   1.727   0.827   3.836  0.2007 -0.5176 -0.5682
 4011TIP3    H133448   1.710   0.733   3.829  1.3537 -0.6926 -1.2303
 4011TIP3    H233449   1.753   0.854   3.748  0.6377  0.2604 -0.2175
 4012TIP3   OH233450   2.821   5.375  12.429  0.6023  0.0976  0.1837
 4012TIP3    H133451   2.741   5.389  12.479  0.8971  0.9863  0.4127
 4012TIP3    H233452   2.810   5.288  12.391 -1.7551  1.2970 -2.1619
 4013TIP3   OH233453   1.059   4.852   1.177 -0.0836 -0.1115  0.2732
 4013TIP3    H133454   1.014   4.882   1.256 -1.9456  0.5675 -0.9693
 4013TIP3    H233455   1.143   4.898   1.178 -0.5762  0.8004  1.2524
 4014TIP3   OH233456   3.126   6.237  13.310  0.2132 -0.3923  0.3361
 4014TIP3    H133457   3.135   6.283  13.393 -1.5614  0.1243  0.2805
 4014TIP3    H233458   3.120   6.306  13.244  1.3007 -0.7915 -0.2154
 4015TIP3   OH233459   3.719   5.587  13.938  0.1062  0.1462  0.2104
 4015TIP3    H133460   3.749   5.646  14.008  0.9926 -0.2056  0.1446
 4015TIP3    H233461   3.724   5.641  13.859  3.6792 -0.7186 -0.3344
 4016TIP3   OH233462   4.788   4.479   3.857 -0.0376  0.3867 -0.2619
 4016TIP3    H133463   4.856   4.415   3.877 -0.5795  0.7627  3.4038
 4016TIP3    H233464   4.726   4.431   3.802  0.7676 -1.4628  0.3663
 4017TIP3   OH233465   3.523   6.696  11.047 -0.4982 -0.0510  0.2168
 4017TIP3    H133466   3.529   6.721  10.955 -1.5314  2.8192  0.8379
 4017TIP3    H233467   3.503   6.602  11.044 -0.8022  0.0069 -2.4860
 4018TIP3   OH233468   6.361   2.233   4.085  0.0902 -0.6357 -0.2711
 4018TIP3    H133469   6.316   2.215   4.167 -1.5866 -1.5761 -1.3399
 4018TIP3    H233470   6.452   2.251   4.110 -0.7865  1.1816  1.9610
 4019TIP3   OH233471   2.963   6.012  12.923 -0.0810  0.2535 -0.2840
 4019TIP3    H133472   2.962   5.937  12.982  1.8441 -0.7332 -1.4150
 4019TIP3    H233473   3.042   6.001  12.871 -1.5893  1.1420 -2.9779
 4020TIP3   OH233474   4.581   0.119  15.989 -0.4398 -0.0863 -0.4078
 4020TIP3    H133475   4.511   0.068  16.030 -0.9458  0.5755 -0.4444
 4020TIP3    H233476   4.587   0.085  15.900  0.2256 -1.0855 -0.0122
 4021TIP3   OH233477   5.681   1.467  13.210  0.1965  0.2707 -0.2483
 4021TIP3    H133478   5.720   1.545  13.170  2.6753 -1.1101 -0.7161
 4021TIP3    H233479   5.610   1.442  13.150 -0.4345  1.9186 -0.2529
 4022TIP3   OH233480   2.115   1.543   1.474 -0.1052 -0.5791  0.3964
 4022TIP3    H133481   2.052   1.573   1.540 -0.5297 -2.1805  0.7684
 4022TIP3    H233482   2.134   1.621   1.422 -1.6019  0.1869  0.9254
 4023TIP3   OH233483   5.947   1.676   2.785 -0.3853  0.0102 -0.0145
 4023TIP3    H133484   5.970   1.681   2.692 -0.0928  0.4851  0.0821
 4023TIP3    H233485   6.022   1.632   2.826 -1.9377 -3.4895 -0.4978
 4024TIP3   OH233486   5.109   6.690   1.614 -0.0908  0.5814  0.5765
 4024TIP3    H133487   5.085   6.781   1.596 -0.2684  0.3858 -0.1875
 4024TIP3    H233488   5.026   6.648   1.640 -0.5430  0.0170 -1.6177
 4025TIP3   OH233489   2.197   6.522  11.558 -0.4498 -0.0378 -0.1655
 4025TIP3    H133490   2.243   6.531  11.642 -0.1956  0.9125 -0.4029
 4025TIP3    H233491   2.232   6.440  11.521  0.2138  0.0854  0.1726
 4026TIP3   OH233492   5.302   3.088  10.704 -0.3130 -0.2264 -0.0573
 4026TIP3    H133493   5.217   3.060  10.738 -0.1835 -1.0946 -0.4069
 4026TIP3    H233494   5.347   3.006  10.682  0.2859  0.2458 -0.6539
 4027TIP3   OH233495   6.416   0.810  14.137  0.0223  0.8683  0.0517
 4027TIP3    H133496   6.392   0.718  14.136  3.0067 -0.0141 -0.0940
 4027TIP3    H233497   6.355   0.852  14.076  0.6538 -1.6500 -2.5357
 4028TIP3   OH233498   3.474   2.436   2.669  0.3054  0.0123 -0.3362
 4028TIP3    H133499   3.508   2.483   2.593 -1.4296  0.1167 -1.0947
 4028TIP3    H233500   3.460   2.347   2.638  1.5257 -0.5037  0.4884
 4029TIP3   OH233501   3.695   3.590   1.020  0.4553  0.2809 -0.3800
 4029TIP3    H133502   3.783   3.596   1.057  0.1216 -0.0043  0.4892
 4029TIP3    H233503   3.700   3.519   0.956  1.2359  1.2800 -1.4795
 4030TIP3   OH233504   0.393   5.796  11.886 -0.5594 -0.2947 -0.4661
 4030TIP3    H133505   0.405   5.832  11.798 -0.1165 -0.3471 -0.4296
 4030TIP3    H233506   0.347   5.865  11.934 -1.2299 -0.4485 -0.8620
 4031TIP3   OH233507   1.841   0.100   3.272  0.0052  0.2711 -0.0746
 4031TIP3    H133508   1.811   0.181   3.312 -0.2815  0.4575 -0.6608
 4031TIP3    H233509   1.810   0.104   3.181 -2.6181 -1.7639  0.5691
 4032TIP3   OH233510   1.969   1.148   5.307  0.3478  0.9664 -0.3409
 4032TIP3    H133511   2.045   1.177   5.357  0.2650 -1.7746  1.5843
 4032TIP3    H233512   2.006   1.120   5.223  1.4345  0.1180  0.3870
 4033TIP3   OH233513   0.694   0.132  14.684 -0.6694 -0.3645  0.0515
 4033TIP3    H133514   0.646   0.181  14.751  0.8762 -0.2471  1.1222
 4033TIP3    H233515   0.713   0.047  14.725  0.0418 -0.3997 -0.3378
 4034TIP3   OH233516   5.176   0.975   2.552 -0.8386 -0.1724 -0.5693
 4034TIP3    H133517   5.169   0.882   2.531  4.1113 -0.8853 -0.2169
 4034TIP3    H233518   5.240   0.979   2.623 -0.6885  3.5237 -0.7156
 4035TIP3   OH233519   2.819   0.121   2.506 -0.6247  0.1994 -0.7020
 4035TIP3    H133520   2.878   0.107   2.432  0.3121  0.9783 -0.1248
 4035TIP3    H233521   2.803   0.034   2.541 -0.4817 -0.1000 -1.3600
 4036TIP3   OH233522   6.275   3.863   0.332 -0.1328  0.4003 -0.3850
 4036TIP3    H133523   6.308   3.850   0.243 -0.2429 -1.4339 -0.1868
 4036TIP3    H233524   6.322   3.941   0.363  0.5747  0.5396 -1.7213
 4037TIP3   OH233525   5.474   2.153  12.712 -0.2801 -0.5483 -0.1656
 4037TIP3    H133526   5.484   2.100  12.791  0.1688 -1.5307 -0.8579
 4037TIP3    H233527   5.528   2.109  12.646  0.0534  0.7433 -0.7909
 4038TIP3   OH233528   4.626   5.397   3.095 -0.2185  0.2283 -0.4786
 4038TIP3    H133529   4.640   5.347   3.015  0.8392 -1.4383  0.6872
 4038TIP3    H233530   4.551   5.355   3.137 -1.6668  1.9652 -1.2038
 4039TIP3   OH233531   5.647   1.498  15.759 -0.4161 -1.0335 -0.5103
 4039TIP3    H133532   5.610   1.585  15.773  0.8908 -0.3244 -1.3344
 4039TIP3    H233533   5.694   1.504  15.676  1.4942 -1.9013  0.4478
 4040TIP3   OH233534   3.579   4.059  16.532 -0.3305 -0.4809 -0.0569
 4040TIP3    H133535   3.487   4.043  16.556 -0.0180 -1.3065  0.6653
 4040TIP3    H233536   3.626   4.049  16.615  0.4542 -0.4364 -0.4975
 4041TIP3   OH233537   0.314   5.503   1.633  0.0829 -0.1787  0.1723
 4041TIP3    H133538   0.401   5.518   1.595 -0.2246  1.5957  0.0701
 4041TIP3    H233539   0.323   5.423   1.684  1.9005  0.2138  0.5227
 4042TIP3   OH233540   6.196   4.960   4.306  0.1263  0.5934  0.0783
 4042TIP3    H133541   6.256   4.946   4.233  0.5320 -1.1464  0.6957
 4042TIP3    H233542   6.241   5.022   4.363  2.0279 -1.6271  1.1802
 4043TIP3   OH233543   4.025   6.293   1.177  0.0681  0.0050 -0.3557
 4043TIP3    H133544   4.051   6.201   1.185  1.3219  0.0858 -2.6081
 4043TIP3    H233545   4.063   6.336   1.253 -0.0995 -1.2342  0.4579
 4044TIP3   OH233546   2.042   5.959   2.551  0.4624 -0.3058  0.0297
 4044TIP3    H133547   2.123   5.925   2.515  0.3158  0.3598 -0.9822
 4044TIP3    H233548   2.068   6.004   2.631  0.8406 -1.5530  0.6336
 4045TIP3   OH233549   2.913   5.895  14.667 -0.0045  0.1602 -0.1827
 4045TIP3    H133550   2.823   5.927  14.663  0.3258  1.2718  0.7373
 4045TIP3    H233551   2.916   5.841  14.746 -0.0763 -0.6048 -0.6960
 4046TIP3   OH233552   0.460   5.364   1.349 -0.0025 -0.5837  0.2974
 4046TIP3    H133553   0.507   5.447   1.359  0.1731 -0.6150 -0.2292
 4046TIP3    H233554   0.520   5.310   1.298  0.1271 -1.2344  1.1148
 4047TIP3   OH233555   2.152   5.925  16.865 -0.1432 -0.3993  0.7414
 4047TIP3    H133556   2.068   5.913  16.910  0.1933  2.0788  2.2632
 4047TIP3    H233557   2.130   5.977  16.787 -0.0187  0.7474  1.4402
 4048TIP3   OH233558   3.789   1.587  16.404 -0.5319 -0.2996  0.2453
 4048TIP3    H133559   3.815   1.525  16.472  1.3877  0.5567  0.3441
 4048TIP3    H233560   3.820   1.672  16.436  0.4445  0.1332 -1.6944
 4049TIP3   OH233561   2.602   4.872  16.444  0.0740 -0.6504 -0.0777
 4049TIP3    H133562   2.582   4.785  16.409  1.3629 -0.9425 -0.1499
 4049TIP3    H233563   2.588   4.865  16.538  0.5006 -1.0457 -0.0396
 4050TIP3   OH233564   5.509   2.237   1.505  0.4059  0.0076  0.1936
 4050TIP3    H133565   5.579   2.189   1.548 -0.2376 -1.6349 -0.4959
 4050TIP3    H233566   5.552   2.283   1.433  0.9102 -0.3322  0.2764
 4051TIP3   OH233567   5.909   0.617   5.576 -0.5636  0.0276 -0.0388
 4051TIP3    H133568   5.969   0.685   5.547 -0.6498  0.0709 -0.1136
 4051TIP3    H233569   5.962   0.562   5.634 -0.4042 -0.0323 -0.2394
 4052TIP3   OH233570   5.455   5.571  16.031  0.2020  0.4480 -0.3414
 4052TIP3    H133571   5.458   5.664  16.010 -0.5815  0.2566 -1.4186
 4052TIP3    H233572   5.364   5.546  16.017  0.2462 -0.3286  0.6535
 4053TIP3   OH233573   2.851   1.460  13.751 -0.5583 -0.3544 -0.0700
 4053TIP3    H133574   2.855   1.431  13.661  0.9857  0.5916 -0.3587
 4053TIP3    H233575   2.850   1.556  13.745  0.1263 -0.2707  0.9044
 4054TIP3   OH233576   4.318   2.981  13.168 -0.2039  0.1035  0.2993
 4054TIP3    H133577   4.378   3.049  13.196 -0.4773  0.2576  0.5126
 4054TIP3    H233578   4.253   3.026  13.114  1.3037 -0.4346 -2.1466
 4055TIP3   OH233579   0.816   6.293   3.614  0.4203 -0.0899 -0.3191
 4055TIP3    H133580   0.793   6.340   3.694 -0.0608 -1.0908  0.1514
 4055TIP3    H233581   0.908   6.271   3.624  0.6146  0.6187 -0.4848
 4056TIP3   OH233582   1.370   2.278   1.145  0.2691  0.0285 -0.7791
 4056TIP3    H133583   1.442   2.251   1.202  0.3878 -0.9171 -1.3533
 4056TIP3    H233584   1.304   2.312   1.205  1.1260  0.7703 -0.2298
 4057TIP3   OH233585   1.162   1.878   2.880 -0.1418  0.0641 -0.8805
 4057TIP3    H133586   1.114   1.846   2.957  0.6735  0.7229 -0.0822
 4057TIP3    H233587   1.111   1.845   2.805 -1.0554 -0.4288 -0.0709
 4058TIP3   OH233588   6.010   5.660   0.419 -0.1562 -0.4316 -0.2067
 4058TIP3    H133589   5.919   5.653   0.392  0.2069 -1.3924 -1.2494
 4058TIP3    H233590   6.060   5.627   0.345  1.0923  0.8075  0.0424
 4059TIP3   OH233591   5.993   4.921  16.313  0.0405 -0.3558 -0.7713
 4059TIP3    H133592   5.926   4.984  16.340 -0.2727 -0.2654 -1.7192
 4059TIP3    H233593   6.023   4.882  16.395  1.8416  2.5510  0.0925
 4060TIP3   OH233594   3.088   3.359   2.954 -0.0892  0.2238 -0.3929
 4060TIP3    H133595   3.048   3.440   2.984 -0.4323 -0.2073  0.3416
 4060TIP3    H233596   3.182   3.374   2.961 -0.1521 -0.0353  1.4169
 4061TIP3   OH233597   1.097   6.675  16.491  0.1972  0.2346 -1.5753
 4061TIP3    H133598   1.130   6.762  16.468  1.6803  0.2454  0.3487
 4061TIP3    H233599   1.148   6.649  16.568 -1.6009 -1.4953 -0.8670
 4062TIP3   OH233600   3.047   5.261   2.571 -0.2990  0.8242  0.0545
 4062TIP3    H133601   3.038   5.238   2.663  2.3251  2.0537  0.7109
 4062TIP3    H233602   3.065   5.177   2.527  1.2771  0.5495  1.1486
 4063TIP3   OH233603   2.766   2.364  14.259  0.0939 -0.9603  0.5360
 4063TIP3    H133604   2.857   2.375  14.232 -0.0000 -2.1491 -0.3551
 4063TIP3    H233605   2.742   2.448  14.298  1.1504 -0.1728 -0.4377
 4064TIP3   OH233606   2.642   2.100  13.572  0.0636  0.4317 -0.4240
 4064TIP3    H133607   2.710   2.141  13.625  0.8239 -0.2261 -0.8723
 4064TIP3    H233608   2.648   2.143  13.487 -0.5539  0.8564 -0.2622
 4065TIP3   OH233609   3.682   0.375  13.922 -0.0894 -0.1586  0.0373
 4065TIP3    H133610   3.698   0.317  13.996 -1.2907 -0.8186 -0.1990
 4065TIP3    H233611   3.727   0.333  13.848 -1.2629 -1.0238 -0.2172
 4066TIP3   OH233612   5.959   5.822  16.542 -0.1093 -0.2452 -0.3092
 4066TIP3    H133613   5.900   5.854  16.611  1.2229 -1.2268  1.3751
 4066TIP3    H233614   5.901   5.786  16.475 -1.5910  3.2985 -1.1657
 4067TIP3   OH233615   4.355   3.333  14.478  0.4661  0.7772  0.4567
 4067TIP3    H133616   4.433   3.371  14.519 -0.1823  0.8030  1.7275
 4067TIP3    H233617   4.389   3.274  14.412  1.5449  1.7222  0.1222
 4068TIP3   OH233618   4.057   5.824   0.288  0.0169 -0.5333  0.2995
 4068TIP3    H133619   4.065   5.919   0.302  1.5304 -0.5912 -0.0876
 4068TIP3    H233620   4.094   5.809   0.202 -0.6446 -1.4354  0.1624
 4069TIP3   OH233621   1.284   2.878   5.478  0.1594 -0.2699  0.1329
 4069TIP3    H133622   1.228   2.954   5.496  1.9366  1.7271 -2.0117
 4069TIP3    H233623   1.268   2.858   5.385 -0.3480 -2.6901  0.6631
 4070TIP3   OH233624   1.292   3.943  14.731 -1.1095 -0.0253  0.2719
 4070TIP3    H133625   1.230   3.931  14.658 -0.6707 -2.8388  0.2445
 4070TIP3    H233626   1.358   4.003  14.697 -0.1219 -2.3410 -2.3158
 4071TIP3   OH233627   3.972   0.790   4.319  0.4618  0.2892  0.1693
 4071TIP3    H133628   3.976   0.857   4.387  0.4022  1.1145 -0.6209
 4071TIP3    H233629   4.030   0.721   4.350 -1.3816 -0.4468  2.1967
 4072TIP3   OH233630   3.596   3.297  16.740 -0.0463 -1.0140 -0.7694
 4072TIP3    H133631   3.519   3.290  16.684 -0.5588 -0.5831 -0.1307
 4072TIP3    H233632   3.573   3.251  16.820  0.8618 -2.0467 -1.0756
 4073TIP3   OH233633   4.074   6.110   3.655  0.0586 -0.0528  0.3023
 4073TIP3    H133634   4.163   6.114   3.690  1.0193 -1.7153 -1.6993
 4073TIP3    H233635   4.063   6.018   3.628 -1.3131  0.6657 -1.8253
 4074TIP3   OH233636   6.507   4.803   3.762 -0.3100 -0.3472  0.4365
 4074TIP3    H133637   6.418   4.797   3.797  0.1361  0.6574  1.8240
 4074TIP3    H233638   6.518   4.722   3.711 -1.4390 -1.2920  1.6243
 4075TIP3   OH233639   1.106   5.417   3.735  0.3947 -0.4440 -0.4636
 4075TIP3    H133640   1.055   5.337   3.748  0.9476 -0.4426  2.2740
 4075TIP3    H233641   1.066   5.480   3.795  1.5515  0.5635 -0.7279
 4076TIP3   OH233642   6.089   1.356   2.577  0.6647 -0.1432  0.0828
 4076TIP3    H133643   6.162   1.405   2.613 -1.8747  1.3883  3.6798
 4076TIP3    H233644   6.032   1.422   2.537 -0.1354 -0.9009 -0.0777
 4077TIP3   OH233645   5.488   1.279   0.505 -0.5189  0.0200 -0.4669
 4077TIP3    H133646   5.394   1.289   0.517 -0.5013  1.0103 -1.0281
 4077TIP3    H233647   5.527   1.342   0.565 -0.2737  0.6076 -1.2164
 4078TIP3   OH233648   5.956   5.498  11.158  0.2123 -0.6959 -0.2497
 4078TIP3    H133649   5.897   5.432  11.122 -0.2126  0.2015 -1.2684
 4078TIP3    H233650   5.960   5.566  11.090  1.5355 -0.2113  0.2883
 4079TIP3   OH233651   1.629   3.037   4.116 -0.1395 -0.4166 -0.0222
 4079TIP3    H133652   1.666   2.989   4.190  0.0012  0.0848  0.2407
 4079TIP3    H233653   1.706   3.068   4.067 -0.1724  0.9406  0.7253
 4080TIP3   OH233654   5.380   2.715  13.707 -0.2265  0.0625  0.1698
 4080TIP3    H133655   5.379   2.687  13.616 -1.5961 -1.1883  0.5209
 4080TIP3    H233656   5.376   2.810  13.704 -0.2348  0.0334 -1.0710
 4081TIP3   OH233657   6.259   1.534  14.906 -0.8468  0.0344  0.1888
 4081TIP3    H133658   6.321   1.590  14.951 -1.5858  0.5742  0.5489
 4081TIP3    H233659   6.293   1.529  14.816  0.2497 -0.4914  0.6127
 4082TIP3   OH233660   6.030   5.318   2.918  0.1970 -0.3953 -0.0943
 4082TIP3    H133661   6.031   5.313   3.014  0.9291  0.3697 -0.0431
 4082TIP3    H233662   5.990   5.403   2.899  3.3863  1.2152 -0.3081
 4083TIP3   OH233663   1.597   2.115   1.617 -0.0351 -0.1687  0.1293
 4083TIP3    H133664   1.679   2.084   1.657  1.0541  1.1925 -0.9665
 4083TIP3    H233665   1.564   2.180   1.679  0.6008  0.4740 -0.1819
 4084TIP3   OH233666   2.109   4.382   3.456  0.2712 -0.1934 -0.1618
 4084TIP3    H133667   2.140   4.303   3.500  0.6595 -0.2702 -0.5655
 4084TIP3    H233668   2.083   4.441   3.528  1.4557 -0.0856  0.2001
 4085TIP3   OH233669   0.298   3.565  15.012 -0.7301 -0.2708 -0.2880
 4085TIP3    H133670   0.244   3.494  15.047  1.4404 -1.5150  0.7691
 4085TIP3    H233671   0.264   3.644  15.052 -1.6586 -1.0287  0.4606
 4086TIP3   OH233672   5.463   2.706  13.183 -0.1231 -0.5468  0.0083
 4086TIP3    H133673   5.432   2.636  13.125  0.6692  0.2825 -1.4810
 4086TIP3    H233674   5.474   2.664  13.268  0.2701 -2.2177 -0.8286
 4087TIP3   OH233675   5.356   6.167   2.550 -0.1291 -0.2784  0.3798
 4087TIP3    H133676   5.289   6.157   2.482 -0.2966  0.3014  0.4551
 4087TIP3    H233677   5.439   6.158   2.503 -0.2295  0.8070 -0.0388
 4088TIP3   OH233678   3.186   5.906  14.582 -0.5342 -0.6486 -0.8176
 4088TIP3    H133679   3.092   5.919  14.571 -0.4938  0.8038  0.2272
 4088TIP3    H233680   3.194   5.834  14.645 -1.0959  1.4815  1.8957
 4089TIP3   OH233681   2.617   6.765  13.411 -0.5665  0.0808 -0.0382
 4089TIP3    H133682   2.679   6.727  13.474 -1.0055 -0.9039 -0.1957
 4089TIP3    H233683   2.539   6.785  13.464 -1.0730 -1.0884 -0.3279
 4090TIP3   OH233684   4.355   5.802   5.989  0.5070 -0.5723  0.2900
 4090TIP3    H133685   4.421   5.868   6.008 -2.4455  3.2381 -1.3472
 4090TIP3    H233686   4.309   5.789   6.071 -0.1732  1.1233  0.2195
 4091TIP3   OH233687   0.714   1.242   4.941 -0.1815  0.3161  0.1754
 4091TIP3    H133688   0.777   1.231   5.012 -1.7186 -0.2663  1.5165
 4091TIP3    H233689   0.711   1.156   4.898 -2.5646 -0.8470  2.3695
 4092TIP3   OH233690   2.571   5.656   1.716 -0.0758 -0.2043 -0.7368
 4092TIP3    H133691   2.540   5.691   1.633 -1.1633  0.9987  0.1245
 4092TIP3    H233692   2.493   5.652   1.771  0.8670  0.6160  0.7448
 4093TIP3   OH233693   5.308   4.981   3.408 -0.2942  0.3514  0.1736
 4093TIP3    H133694   5.348   4.911   3.459  2.5896  2.5034  1.0915
 4093TIP3    H233695   5.330   4.959   3.317  1.8992  0.7364  0.5545
 4094TIP3   OH233696   2.998   1.843   5.738 -0.5794 -0.0848  0.2805
 4094TIP3    H133697   2.942   1.824   5.662 -2.7047 -0.8254  1.9224
 4094TIP3    H233698   3.080   1.874   5.700 -0.6540 -2.6893 -2.3717
 4095TIP3   OH233699   0.880   3.209  12.752  0.3903  0.0669  0.0430
 4095TIP3    H133700   0.926   3.175  12.829  0.5078 -0.0433 -0.0761
 4095TIP3    H233701   0.859   3.300  12.775 -0.0254 -0.1171  0.4077
 4096TIP3   OH233702   3.729   4.200  14.486  0.4389 -0.0069  0.2860
 4096TIP3    H133703   3.723   4.281  14.536 -0.7884 -0.2070  0.4942
 4096TIP3    H233704   3.663   4.209  14.417 -0.0118 -0.9943  0.5643
 4097TIP3   OH233705   1.557   0.295   2.368  0.7264 -0.1271  0.7371
 4097TIP3    H133706   1.592   0.276   2.281  0.2845 -0.4587  0.6289
 4097TIP3    H233707   1.604   0.235   2.426  1.7392  0.7726  0.8831
 4098TIP3   OH233708   6.162   6.105  15.271 -0.0463  0.2301  0.7129
 4098TIP3    H133709   6.220   6.178  15.249  0.8209 -0.4694  0.5837
 4098TIP3    H233710   6.214   6.027  15.252 -1.6481 -0.4686 -1.0623
 4099TIP3   OH233711   4.284   1.349   2.891  0.0749  0.8028  0.0442
 4099TIP3    H133712   4.225   1.406   2.941 -0.1489 -0.1980  0.9355
 4099TIP3    H233713   4.319   1.287   2.954 -0.2067 -0.4894 -1.0038
 4100TIP3   OH233714   1.456   4.281   0.234  0.2625 -0.3026  0.2267
 4100TIP3    H133715   1.386   4.224   0.201  1.0058 -0.5227 -1.0254
 4100TIP3    H233716   1.461   4.261   0.327 -0.4737 -1.2278  0.0826
 4101TIP3   OH233717   2.565   2.030  11.954 -0.1837 -0.0869 -0.1715
 4101TIP3    H133718   2.543   1.960  11.893  0.2450  0.0068 -0.4400
 4101TIP3    H233719   2.595   1.984  12.033  0.3776 -0.2089 -0.4510
 4102TIP3   OH233720   3.269   0.304  11.541  0.8999  0.0291 -0.5395
 4102TIP3    H133721   3.363   0.319  11.531  1.1190 -0.9377 -0.0405
 4102TIP3    H233722   3.261   0.259  11.625  0.1254 -1.0392 -1.1613
 4103TIP3   OH233723   3.708   0.659   4.318  0.0856 -0.7733  0.2642
 4103TIP3    H133724   3.795   0.701   4.314  0.0883 -0.8896 -1.5351
 4103TIP3    H233725   3.706   0.601   4.243 -1.5677 -0.7816  0.2818
 4104TIP3   OH233726   3.940   0.695  11.828 -0.3146 -0.7149 -0.0635
 4104TIP3    H133727   3.892   0.747  11.763  2.3539  0.9425 -0.8825
 4104TIP3    H233728   3.929   0.744  11.910  1.8823  1.0906 -0.7567
 4105TIP3   OH233729   5.623   0.375   3.111 -0.1508 -0.7632 -0.2868
 4105TIP3    H133730   5.615   0.436   3.185  0.0830 -0.0668 -0.8246
 4105TIP3    H233731   5.537   0.377   3.069  0.7139  1.6978 -2.1947
 4106TIP3   OH233732   1.363   6.488   2.785 -0.3302 -0.0696 -0.3200
 4106TIP3    H133733   1.386   6.511   2.876 -0.6684 -1.3994  0.1291
 4106TIP3    H233734   1.421   6.415   2.765  0.4658  0.8659 -1.5691
 4107TIP3   OH233735   0.451   4.317  16.881 -0.1869 -0.4971 -0.3373
 4107TIP3    H133736   0.366   4.301  16.840 -0.0763 -0.7765 -0.4633
 4107TIP3    H233737   0.505   4.242  16.853  0.5264  0.3856 -1.4030
 4108TIP3   OH233738   3.289   4.214  13.256  0.1982  0.3399 -0.4298
 4108TIP3    H133739   3.233   4.230  13.180  1.6155  0.1439 -1.5589
 4108TIP3    H233740   3.367   4.267  13.239  0.9238 -0.4273  0.4360
 4109TIP3   OH233741   5.951   4.552   0.551  0.1516  0.2330 -0.6215
 4109TIP3    H133742   5.894   4.563   0.627 -0.7926  1.1605 -1.4254
 4109TIP3    H233743   5.957   4.457   0.539 -0.0298  0.0904  0.3534
 4110TIP3   OH233744   2.796   5.092  15.799  0.3006  0.7717  0.5200
 4110TIP3    H133745   2.873   5.136  15.835  0.2317  1.0488  0.3305
 4110TIP3    H233746   2.831   5.038  15.728  0.0888  2.4949 -0.9833
 4111TIP3   OH233747   0.755   5.056   3.158  0.3016  0.4010  0.6018
 4111TIP3    H133748   0.735   4.997   3.085  1.5965  1.6867 -0.8482
 4111TIP3    H233749   0.842   5.030   3.186  1.0643  1.8576 -0.3311
 4112TIP3   OH233750   5.174   5.099  15.446 -0.0222  0.6103 -0.3700
 4112TIP3    H133751   5.180   5.031  15.513 -2.8113 -0.8098 -1.4109
 4112TIP3    H233752   5.252   5.088  15.393  0.6896 -0.2737  0.8175
 4113TIP3   OH233753   1.131   4.435   5.712  0.4929 -0.9259 -0.2800
 4113TIP3    H133754   1.101   4.521   5.743  0.6350 -1.4869  1.5703
 4113TIP3    H233755   1.147   4.447   5.619  1.1954  1.2640  0.0654
 4114TIP3   OH233756   4.331   4.156   0.119 -0.0119 -0.0260 -0.1531
 4114TIP3    H133757   4.281   4.108   0.053 -0.8214 -0.5745  0.8191
 4114TIP3    H233758   4.417   4.115   0.120  0.6126  1.1177 -2.0607
 4115TIP3   OH233759   1.633   4.501   2.821  0.2495  0.0701  0.2943
 4115TIP3    H133760   1.671   4.543   2.899 -0.3537  1.5478 -0.1858
 4115TIP3    H233761   1.705   4.498   2.758  0.3408  0.2251  0.3916
 4116TIP3   OH233762   3.120   3.149   1.923 -0.9593  0.2939  0.0008
 4116TIP3    H133763   3.188   3.084   1.939 -1.4018 -0.1757  0.0195
 4116TIP3    H233764   3.167   3.230   1.905 -0.4096  0.1443  0.7157
 4117TIP3   OH233765   0.957   6.064  12.680 -0.2293 -0.1433 -0.8187
 4117TIP3    H133766   0.879   6.019  12.649 -1.1178  1.7499 -1.4944
 4117TIP3    H233767   0.950   6.153  12.644  1.2662  0.6521  0.6833
 4118TIP3   OH233768   0.329   3.547  12.482 -0.1430 -0.0404  0.2144
 4118TIP3    H133769   0.395   3.481  12.460  0.8524  0.7079  0.8657
 4118TIP3    H233770   0.250   3.496  12.503 -0.4769 -0.8896 -2.6282
 4119TIP3   OH233771   2.975   5.315  14.772  0.2183  0.1514 -0.1640
 4119TIP3    H133772   2.942   5.343  14.858 -0.4522 -0.3377 -0.2533
 4119TIP3    H233773   3.007   5.396  14.732  1.0110  0.3109  0.7398
 4120TIP3   OH233774   4.499   1.367   4.849 -0.0451 -0.0818 -0.5554
 4120TIP3    H133775   4.447   1.444   4.828 -0.3854 -0.4515 -1.1046
 4120TIP3    H233776   4.565   1.363   4.781 -0.7753 -0.9455 -1.2419
 4121TIP3   OH233777   4.355   0.649   4.095  0.0554  0.2384  0.2452
 4121TIP3    H133778   4.394   0.731   4.128 -0.9053  0.5472  0.6525
 4121TIP3    H233779   4.414   0.581   4.126 -0.1979  0.6222  1.6427
 4122TIP3   OH233780   2.120   1.816  11.474  0.2638 -0.3627 -0.2533
 4122TIP3    H133781   2.032   1.819  11.438 -0.5345  1.1102  1.6870
 4122TIP3    H233782   2.115   1.865  11.556  3.0408  0.3682 -0.4053
 4123TIP3   OH233783   0.203   0.111   3.781 -0.2449 -0.0215  0.1728
 4123TIP3    H133784   0.148   0.100   3.858 -0.9572  0.7906 -0.1979
 4123TIP3    H233785   0.141   0.136   3.711  0.6198  1.2784 -0.1667
 4124TIP3   OH233786   5.159   4.937   1.732 -0.3020  0.4674 -0.9240
 4124TIP3    H133787   5.140   4.843   1.737 -1.8553  0.8115  0.7902
 4124TIP3    H233788   5.098   4.971   1.666 -0.4633  0.4243 -0.7974
 4125TIP3   OH233789   2.508   6.650  11.648  0.2892  0.2569  0.5039
 4125TIP3    H133790   2.430   6.704  11.633 -1.2004 -0.8892  3.2383
 4125TIP3    H233791   2.475   6.560  11.645  1.1649 -0.2279  2.8663
 4126TIP3   OH233792   1.633   0.134  13.541  0.2646 -0.2916 -0.0815
 4126TIP3    H133793   1.699   0.082  13.495 -0.1839 -1.3978  0.4970
 4126TIP3    H233794   1.684   0.185  13.605  0.7417  0.2451 -0.8693
 4127TIP3   OH233795   5.560   3.362   1.289  0.3835 -0.3093 -0.2161
 4127TIP3    H133796   5.616   3.435   1.261  1.2852 -1.2758 -1.0018
 4127TIP3    H233797   5.551   3.308   1.210  1.0513 -1.8844  0.7422
 4128TIP3   OH233798   5.735   4.214   3.305 -0.1064 -0.0753 -0.5059
 4128TIP3    H133799   5.744   4.141   3.366 -0.5090  0.0637 -0.2730
 4128TIP3    H233800   5.822   4.252   3.298  0.2572 -0.9883 -1.1459
 4129TIP3   OH233801   2.052   2.565   4.408 -0.5429  0.3704  0.1346
 4129TIP3    H133802   2.114   2.546   4.337 -0.1694  0.3449  0.4649
 4129TIP3    H233803   1.986   2.496   4.401 -0.5485  0.4119 -0.2370
 4130TIP3   OH233804   4.964   4.448   3.423 -0.7627  0.3863 -0.1802
 4130TIP3    H133805   4.959   4.468   3.329 -1.4462  1.2548  0.0286
 4130TIP3    H233806   5.053   4.413   3.435 -0.8531 -0.2576 -1.2366
 4131TIP3   OH233807   0.606   2.114  12.266 -0.2030  0.1735 -0.0102
 4131TIP3    H133808   0.588   2.198  12.309 -1.0553  1.2085 -2.2066
 4131TIP3    H233809   0.671   2.135  12.199  0.2968 -1.1386  0.0434
 4132TIP3   OH233810   1.342   2.886   4.493 -0.1507 -0.3854  0.3394
 4132TIP3    H133811   1.364   2.949   4.424 -3.0220  2.8762  2.0633
 4132TIP3    H233812   1.426   2.864   4.533  1.4069 -1.0257 -2.9554
 4133TIP3   OH233813   2.435   4.892  11.355 -0.6544 -0.0597 -0.5407
 4133TIP3    H133814   2.512   4.872  11.301  0.2461  2.2898 -0.2598
 4133TIP3    H233815   2.455   4.853  11.440  0.8633  1.5565 -0.0961
 4134TIP3   OH233816   5.054   0.351   0.220 -0.3701  0.0084 -0.0158
 4134TIP3    H133817   5.090   0.438   0.203 -2.0010  0.3741 -2.0736
 4134TIP3    H233818   4.965   0.368   0.250 -1.5222 -0.8977 -2.6467
 4135TIP3   OH233819   2.244   6.093  12.377  0.0162  0.0758 -0.4489
 4135TIP3    H133820   2.310   6.068  12.441  0.8162  1.3294 -0.7512
 4135TIP3    H233821   2.170   6.035  12.395  0.9925 -0.9973  0.2332
 4136TIP3   OH233822   0.416   0.335  17.080 -0.4675  0.4724 -0.5562
 4136TIP3    H133823   0.328   0.372  17.078 -1.3578 -1.5257 -0.4773
 4136TIP3    H233824   0.414   0.263  17.018 -0.0446 -1.9343  2.0028
 4137TIP3   OH233825   6.562   4.144   0.716  0.3166  0.1038 -0.1855
 4137TIP3    H133826   6.497   4.167   0.782  1.9671  0.3814  1.3914
 4137TIP3    H233827   6.635   4.108   0.765  1.3194 -0.3525 -1.9318
 4138TIP3   OH233828   5.807   5.579  15.266  0.2678  0.5266 -0.2258
 4138TIP3    H133829   5.881   5.631  15.236  0.7724  0.6551  1.1814
 4138TIP3    H233830   5.737   5.643  15.279  0.1894  0.5304 -0.6311
 4139TIP3   OH233831   4.377   0.067   1.428  0.5832  0.0303 -0.0912
 4139TIP3    H133832   4.450   0.102   1.478 -0.0299  1.4105 -0.1269
 4139TIP3    H233833   4.416   0.034   1.347  1.3487 -0.6240  0.5305
 4140TIP3   OH233834   3.298   4.744   3.110  0.0987 -0.0802 -0.1207
 4140TIP3    H133835   3.271   4.652   3.102 -0.5969  0.1767 -0.8839
 4140TIP3    H233836   3.239   4.791   3.052  0.1212  0.9233  0.6391
 4141TIP3   OH233837   0.447   2.957  14.635 -0.1920 -0.2605  0.4824
 4141TIP3    H133838   0.454   2.910  14.718 -1.2839  1.6693  1.7440
 4141TIP3    H233839   0.432   3.049  14.660 -0.7570  0.3565 -1.8424
 4142TIP3   OH233840   6.425   4.731  11.794 -0.0856 -0.3610 -0.0811
 4142TIP3    H133841   6.468   4.692  11.869 -1.3359 -0.9723  0.3581
 4142TIP3    H233842   6.336   4.749  11.825 -0.6367 -0.6756 -1.4234
 4143TIP3   OH233843   2.957   0.344  13.132 -0.6503  0.3260 -0.0565
 4143TIP3    H133844   2.967   0.422  13.078  1.9802 -0.5351 -0.9116
 4143TIP3    H233845   2.945   0.273  13.070 -4.2525  0.0477  0.7315
 4144TIP3   OH233846   6.545   3.530  17.025 -0.2162 -0.6035 -0.2629
 4144TIP3    H133847   6.614   3.486  16.976 -1.2351 -1.2035 -1.2165
 4144TIP3    H233848   6.472   3.537  16.963 -0.9431  0.2011  0.6447
 4145TIP3   OH233849   3.223   3.227   0.130 -0.2777 -0.3214 -0.2825
 4145TIP3    H133850   3.246   3.270   0.048 -1.5041 -1.6259 -1.3582
 4145TIP3    H233851   3.149   3.171   0.108  0.2421 -1.7742  1.3968
 4146TIP3   OH233852   3.943   5.893   4.894  0.2303  0.2704 -0.3821
 4146TIP3    H133853   3.957   5.899   4.800  2.2455  1.7865 -0.0483
 4146TIP3    H233854   4.011   5.948   4.933 -0.3979 -0.4698  1.9849
 4147TIP3   OH233855   4.036   3.022  12.229  0.1485  0.3287  0.6632
 4147TIP3    H133856   4.014   3.021  12.322 -2.4085  0.3733  0.1512
 4147TIP3    H233857   4.042   3.115  12.207 -2.4581  0.4839  0.2287
 4148TIP3   OH233858   3.725   5.901  12.271  0.1372  0.2284 -0.0031
 4148TIP3    H133859   3.804   5.955  12.261 -0.2570  1.0257  1.1418
 4148TIP3    H233860   3.674   5.944  12.338 -0.2986 -1.4501  0.7999
 4149TIP3   OH233861   2.159   6.429  14.048 -0.3778  0.2658 -0.2597
 4149TIP3    H133862   2.074   6.411  14.088 -0.5615  2.3364  0.4220
 4149TIP3    H233863   2.217   6.362  14.083 -1.8101 -1.5181 -1.1562
 4150TIP3   OH233864   1.696   6.195  10.378 -0.5048 -0.7177 -0.0433
 4150TIP3    H133865   1.603   6.199  10.354 -0.6974 -1.6372  0.5258
 4150TIP3    H233866   1.742   6.209  10.296 -1.1454 -0.5868 -0.3879
 4151TIP3   OH233867   4.118   6.242   4.653  0.3380  0.1808 -0.4247
 4151TIP3    H133868   4.162   6.159   4.633  2.4845  0.8306  1.2302
 4151TIP3    H233869   4.043   6.244   4.593  0.5846 -2.6196 -0.9658
 4152TIP3   OH233870   0.400   1.095   4.000 -0.3893 -0.5471 -0.3984
 4152TIP3    H133871   0.333   1.046   4.047  0.2200 -1.1902 -0.1793
 4152TIP3    H233872   0.481   1.076   4.047  0.0450 -0.2695 -1.0189
 4153TIP3   OH233873   3.383   1.196  12.206 -0.4794 -0.4831  0.7224
 4153TIP3    H133874   3.291   1.197  12.180  0.2602  0.1446 -2.2432
 4153TIP3    H233875   3.405   1.103  12.214 -1.2924 -0.6392  1.2399
 4154TIP3   OH233876   0.290   4.257   4.966 -0.1750  0.0963 -0.4586
 4154TIP3    H133877   0.306   4.347   4.993 -1.5170  0.0951  0.4355
 4154TIP3    H233878   0.207   4.260   4.919 -0.3024 -0.6904 -0.3008
 4155TIP3   OH233879   4.166   1.307   4.351 -0.3255 -0.1127  0.5048
 4155TIP3    H133880   4.244   1.355   4.324 -0.6475 -0.0042 -0.2395
 4155TIP3    H233881   4.178   1.219   4.316 -0.9419  0.1462 -0.3858
 4156TIP3   OH233882   0.140   0.597  12.971  0.1407  0.3085 -0.0307
 4156TIP3    H133883   0.075   0.657  12.937 -1.0830 -0.9708 -0.0573
 4156TIP3    H233884   0.089   0.528  13.015  1.4855 -0.4805  0.3686
 4157TIP3   OH233885   2.223   4.941  13.001  0.0188  0.2376  0.8671
 4157TIP3    H133886   2.149   4.998  13.023  0.7250  2.1379 -1.3048
 4157TIP3    H233887   2.206   4.914  12.911  1.9253  0.6720  0.3478
 4158TIP3   OH233888   4.192   1.770   4.435 -0.1599  0.4383 -0.0688
 4158TIP3    H133889   4.232   1.745   4.352 -1.0474  1.6331 -0.9068
 4158TIP3    H233890   4.149   1.691   4.467  0.7064 -0.1894 -0.4277
 4159TIP3   OH233891   6.450   4.426  12.489 -0.0224  0.4284  0.4763
 4159TIP3    H133892   6.386   4.479  12.441 -0.4459 -0.7026 -0.2546
 4159TIP3    H233893   6.522   4.414  12.428 -0.0880 -0.1207  0.4989
 4160TIP3   OH233894   5.941   1.564  12.658  0.1528 -0.3477  0.5474
 4160TIP3    H133895   5.926   1.479  12.616 -1.6052 -0.2043  0.8196
 4160TIP3    H233896   5.888   1.561  12.737 -1.4598  1.6869 -0.3632
 4161TIP3   OH233897   3.855   6.698   1.435 -0.3578 -0.6197  0.9198
 4161TIP3    H133898   3.857   6.671   1.344  3.3607 -0.7743  0.8713
 4161TIP3    H233899   3.829   6.620   1.484  0.4981 -1.3930  0.1560
 4162TIP3   OH233900   1.936   4.805  11.934 -0.0133 -0.0229  0.1152
 4162TIP3    H133901   1.975   4.851  12.009 -2.3126  0.7160  0.9350
 4162TIP3    H233902   1.900   4.875  11.880 -0.4700 -0.6795 -0.4442
 4163TIP3   OH233903   2.160   1.950  14.196  0.1531  0.2664 -0.0959
 4163TIP3    H133904   2.070   1.920  14.183  0.5483 -0.3350 -1.7200
 4163TIP3    H233905   2.214   1.872  14.184  0.9024  0.6029  0.9196
 4164TIP3   OH233906   5.526   5.920  12.483  0.1550  0.5072  0.2989
 4164TIP3    H133907   5.431   5.916  12.479 -0.1362  1.9682  3.0368
 4164TIP3    H233908   5.555   5.917  12.392 -2.5570  1.0899 -0.6578
 4165TIP3   OH233909   1.079   0.481   2.566 -0.2758 -0.2124  0.4238
 4165TIP3    H133910   1.149   0.417   2.579 -1.2791 -1.0275  2.2143
 4165TIP3    H233911   1.087   0.507   2.474  1.8983 -0.8034  0.3900
 4166TIP3   OH233912   1.924   5.481  17.007 -0.1628 -0.4535  0.2864
 4166TIP3    H133913   2.004   5.512  16.964  0.5441 -1.9757  0.4351
 4166TIP3    H233914   1.900   5.553  17.066 -0.4075  1.1144 -1.6171
 4167TIP3   OH233915   5.915   4.973  11.570 -0.2642 -0.1063 -0.2016
 4167TIP3    H133916   5.948   5.008  11.487  2.4291  0.0800  0.8549
 4167TIP3    H233917   5.900   4.880  11.552  1.4337 -0.3344 -0.6580
 4168TIP3   OH233918   2.506   0.269  16.789 -0.0087 -1.3235 -0.0089
 4168TIP3    H133919   2.462   0.302  16.868 -0.2448  0.1245 -0.7266
 4168TIP3    H233920   2.491   0.174  16.791 -1.6441 -1.0710  0.6790
 4169TIP3   OH233921   0.959   4.235  14.272 -0.1975  0.1538 -0.5818
 4169TIP3    H133922   0.957   4.145  14.238 -0.3538 -0.0376 -0.0868
 4169TIP3    H233923   1.020   4.231  14.346  1.0595  0.8287 -1.5452
 4170TIP3   OH233924   3.436   3.184   3.919 -0.0531 -0.2069  0.2773
 4170TIP3    H133925   3.428   3.168   3.825  2.3460  3.9587 -0.9261
 4170TIP3    H233926   3.350   3.217   3.945 -1.0241 -2.2678 -0.1371
 4171TIP3   OH233927   4.062   0.924   0.182  0.1779  0.3619 -0.1913
 4171TIP3    H133928   4.053   0.831   0.205  0.4659  0.1192 -1.0080
 4171TIP3    H233929   4.141   0.953   0.228  2.0643 -0.7047 -2.5241
 4172TIP3   OH233930   2.896   5.601  16.057 -0.2830 -0.1704  0.3213
 4172TIP3    H133931   2.808   5.587  16.091 -0.7849 -0.4502 -1.0330
 4172TIP3    H233932   2.905   5.539  15.985  1.4408 -0.9219  1.1271
 4173TIP3   OH233933   1.550   5.559   6.152 -0.6057  0.1482  0.0371
 4173TIP3    H133934   1.632   5.593   6.116  0.0426 -1.9605 -0.6168
 4173TIP3    H233935   1.501   5.637   6.178  2.1239  1.4849  1.6911
 4174TIP3   OH233936   3.794   4.641   3.901 -0.2260 -0.0149 -0.1454
 4174TIP3    H133937   3.738   4.718   3.893  0.2251  0.3051 -0.2518
 4174TIP3    H233938   3.883   4.676   3.903  0.1936 -0.6644 -2.8809
 4175TIP3   OH233939   1.834   1.379  12.933 -0.1326  0.5715 -0.0428
 4175TIP3    H133940   1.848   1.327  13.012 -0.8406 -3.9196 -2.4941
 4175TIP3    H233941   1.920   1.418  12.915  1.0087 -1.1707  1.1833
 4176TIP3   OH233942   5.708   2.099  14.678 -0.3316  0.4854  0.0234
 4176TIP3    H133943   5.642   2.086  14.746 -0.3017  0.6763  0.0883
 4176TIP3    H233944   5.755   2.178  14.704 -0.3154  0.5558 -0.2143
 4177TIP3   OH233945   2.229   5.892   4.818  0.5640 -0.2113  0.3340
 4177TIP3    H133946   2.276   5.873   4.899  0.1722 -1.0319  0.3863
 4177TIP3    H233947   2.139   5.906   4.845  0.9004  2.4103  0.3617
 4178TIP3   OH233948   5.153   2.228  13.101  0.2148  0.4914 -0.5498
 4178TIP3    H133949   5.094   2.166  13.058  0.6220  0.6731 -1.3914
 4178TIP3    H233950   5.143   2.309  13.051 -1.9980  1.8546  1.8916
 4179TIP3   OH233951   6.326   5.083  15.341 -0.9656  0.6326 -0.1059
 4179TIP3    H133952   6.241   5.125  15.356 -2.0231 -1.3534 -0.2717
 4179TIP3    H233953   6.383   5.120  15.409 -2.0970  1.5905  0.3526
 4180TIP3   OH233954   0.327   5.679  13.319 -0.1886 -0.7128 -0.0706
 4180TIP3    H133955   0.271   5.650  13.247  1.0314 -1.6510 -0.6929
 4180TIP3    H233956   0.352   5.769  13.295 -0.8678 -0.5257 -0.1108
 4181TIP3   OH233957   2.991   3.231   2.382  0.0824 -0.4074 -0.0268
 4181TIP3    H133958   2.906   3.272   2.367  0.6976  0.8735 -0.1452
 4181TIP3    H233959   3.017   3.261   2.468  0.8303 -0.0408 -0.3763
 4182TIP3   OH233960   0.742   2.286  14.965 -0.7020  0.2428 -0.2888
 4182TIP3    H133961   0.744   2.255  14.875  1.2462 -1.4184  0.2572
 4182TIP3    H233962   0.832   2.312  14.985 -1.0191  0.2687  1.2791
 4183TIP3   OH233963   4.673   2.616   5.796 -0.3937 -0.3799  0.1743
 4183TIP3    H133964   4.764   2.638   5.813  0.2596 -2.4701 -0.3374
 4183TIP3    H233965   4.651   2.552   5.863 -1.5714  0.2239  0.3955
 4184TIP3   OH233966   5.682   3.118  11.440  0.8549  0.4934 -0.3897
 4184TIP3    H133967   5.629   3.041  11.457  0.3282  1.2365  1.5941
 4184TIP3    H233968   5.620   3.185  11.413  1.1460  0.6359 -0.7243
 4185TIP3   OH233969   5.590   1.217   4.248  0.7392  0.2135 -0.0251
 4185TIP3    H133970   5.595   1.265   4.165 -0.0943 -0.7388 -0.6551
 4185TIP3    H233971   5.566   1.284   4.313 -3.1763  0.3408 -1.3124
 4186TIP3   OH233972   5.990   5.969  12.593  0.7727 -0.3118 -0.3231
 4186TIP3    H133973   5.950   5.883  12.590  1.1977 -0.4939 -0.9762
 4186TIP3    H233974   5.919   6.029  12.571  0.8380 -0.6280 -1.4246
 4187TIP3   OH233975   4.331   5.660  11.363 -0.2080  0.8561 -0.7201
 4187TIP3    H133976   4.253   5.674  11.417 -0.1499  1.5449 -0.8079
 4187TIP3    H233977   4.301   5.607  11.290 -0.8416  2.0220 -1.3285
 4188TIP3   OH233978   0.990   3.000  16.598  0.2064  0.1113  0.2683
 4188TIP3    H133979   1.055   3.067  16.616 -1.4044  1.5265  1.0118
 4188TIP3    H233980   0.910   3.048  16.579 -1.1523 -1.5858  1.4014
 4189TIP3   OH233981   5.323   3.054   4.296 -0.1181  0.0411 -0.3804
 4189TIP3    H133982   5.369   2.973   4.278  0.2776 -0.1194  1.1874
 4189TIP3    H233983   5.230   3.032   4.286 -0.2004 -1.3778  2.5558
 4190TIP3   OH233984   0.937   5.683  13.196  0.0600  0.6825 -0.3245
 4190TIP3    H133985   0.978   5.700  13.111  0.6500 -0.2646 -0.2539
 4190TIP3    H233986   0.927   5.769  13.236  0.4321  1.0779 -1.0508
 4191TIP3   OH233987   2.171   2.034   0.673  0.1387 -0.4427 -0.3560
 4191TIP3    H133988   2.132   2.080   0.748  1.0022  1.7427 -1.1701
 4191TIP3    H233989   2.186   1.945   0.705 -0.9828 -0.0061  1.5429
 4192TIP3   OH233990   0.570   1.324  16.955  0.1419  0.1439  0.2978
 4192TIP3    H133991   0.626   1.248  16.944 -0.2392  0.0335 -1.1109
 4192TIP3    H233992   0.611   1.392  16.901 -0.9594  0.1082 -0.6182
 4193TIP3   OH233993   3.012   2.876   1.072 -0.0055 -0.6744  0.4109
 4193TIP3    H133994   3.020   2.811   1.142 -0.8989 -0.2416  0.9267
 4193TIP3    H233995   2.948   2.838   1.011 -0.2446 -0.4453  0.5194
 4194TIP3   OH233996   2.633   5.830   6.470 -0.0598 -0.3914 -0.5131
 4194TIP3    H133997   2.704   5.812   6.531 -1.1625 -1.5165  0.4822
 4194TIP3    H233998   2.560   5.778   6.502 -1.8365  1.8929 -0.6071
 4195TIP3   OH233999   2.926   5.582   5.528  0.1111 -0.6019  0.3879
 4195TIP3    H134000   2.855   5.630   5.571  0.6794  1.0161 -0.3923
 4195TIP3    H234001   3.005   5.632   5.548  0.5449 -0.3936 -1.5932
 4196TIP3   OH234002   6.320   3.871  15.582 -0.1425  0.0099 -0.7652
 4196TIP3    H134003   6.349   3.882  15.492 -0.5586  2.0638 -0.6944
 4196TIP3    H234004   6.279   3.954  15.605  0.8336 -0.0756  1.6339
 4197TIP3   OH234005   1.762   4.239  12.247 -0.4531 -0.4033  0.6371
 4197TIP3    H134006   1.761   4.193  12.331  2.0463 -1.3651  0.2376
 4197TIP3    H234007   1.733   4.173  12.183  1.5045 -0.9977  0.2872
 4198TIP3   OH234008   5.377   6.723   4.302  0.1145  0.3194 -0.1833
 4198TIP3    H134009   5.418   6.637   4.301 -1.2087 -0.3182 -0.7691
 4198TIP3    H234010   5.441   6.779   4.347  1.3547 -0.7634 -0.5416
 4199TIP3   OH234011   0.845   3.326   4.334  0.2567 -0.6223  0.0790
 4199TIP3    H134012   0.807   3.363   4.255  0.9092  0.5131  0.2709
 4199TIP3    H234013   0.786   3.255   4.359 -1.5908  0.8713  0.2129
 4200TIP3   OH234014   2.983   1.130   1.810  0.3513 -0.1020  1.0182
 4200TIP3    H134015   2.907   1.177   1.844 -0.6833 -0.1154 -1.0981
 4200TIP3    H234016   2.974   1.041   1.844 -0.3213  0.0151  1.1646
 4201TIP3   OH234017   3.627   1.653  10.412  1.2345 -0.0309 -0.4695
 4201TIP3    H134018   3.654   1.658  10.504 -1.0641  1.5387  0.2127
 4201TIP3    H234019   3.678   1.721  10.368  2.1622 -0.6235 -0.3487
 4202TIP3   OH234020   3.908   2.782  12.142 -0.2283  0.2045  0.1806
 4202TIP3    H134021   3.817   2.776  12.172 -1.3595 -0.0697 -3.0029
 4202TIP3    H234022   3.938   2.868  12.174 -2.0000  0.8336  0.2538
 4203TIP3   OH234023   5.079   6.024  13.687 -0.2240  0.1479  0.2759
 4203TIP3    H134024   5.053   6.091  13.750 -1.6416  0.4648 -0.6042
 4203TIP3    H234025   5.090   5.944  13.739  2.9072  1.2756  1.5919
 4204TIP3   OH234026   1.698   4.273  13.464  0.1727 -0.5526  1.3577
 4204TIP3    H134027   1.643   4.303  13.536  0.1056  0.2919  0.9782
 4204TIP3    H234028   1.787   4.276  13.498  0.2101  0.5385  1.2035
 4205TIP3   OH234029   5.486   0.273  15.242 -0.6460 -0.1643  0.0986
 4205TIP3    H134030   5.409   0.286  15.299  0.0090 -0.1038  0.9895
 4205TIP3    H234031   5.449   0.259  15.155 -1.6362  0.9848  0.3013
 4206TIP3   OH234032   3.312   0.941   5.375  0.1661 -0.5582 -0.1673
 4206TIP3    H134033   3.347   0.881   5.440 -0.1890 -1.2580 -0.6104
 4206TIP3    H234034   3.222   0.912   5.361  0.7966 -1.6728 -2.3767
 4207TIP3   OH234035   3.043   1.234   2.891 -0.4654  0.5289 -0.6256
 4207TIP3    H134036   3.086   1.316   2.867 -1.5177  1.4275  0.4209
 4207TIP3    H234037   3.059   1.225   2.985  0.5828 -1.0708 -0.9274
 4208TIP3   OH234038   1.010   5.588  13.728 -0.4272  0.6116  0.1778
 4208TIP3    H134039   1.003   5.552  13.817  3.1790  2.7548  1.5567
 4208TIP3    H234040   0.948   5.660  13.726 -0.2883  0.7784  1.1562
 4209TIP3   OH234041   1.755   1.403   0.022  0.3620  0.1664 -0.2180
 4209TIP3    H134042   1.734   1.489  -0.012 -0.0834  0.4040  0.6234
 4209TIP3    H234043   1.850   1.397   0.018  0.6473  1.7696  2.1532
 4210TIP3   OH234044   6.366   5.457   4.620 -1.1284  0.3955  0.9128
 4210TIP3    H134045   6.449   5.443   4.575 -1.9746  0.7731 -0.8172
 4210TIP3    H234046   6.390   5.503   4.701  0.4712 -0.7653  1.1337
 4211TIP3   OH234047   5.926   5.827  13.237 -0.1614 -0.6177  0.0358
 4211TIP3    H134048   5.980   5.899  13.204 -1.4209  0.0512 -0.6150
 4211TIP3    H234049   5.957   5.750  13.190 -0.5334 -0.0354 -1.2048
 4212TIP3   OH234050   5.187   1.772  11.322 -0.6675  0.2028 -0.4616
 4212TIP3    H134051   5.200   1.862  11.354  3.4469 -1.4011  3.3346
 4212TIP3    H234052   5.119   1.736  11.379  2.0297 -0.6838  2.4665
 4213TIP3   OH234053   3.235   5.602  15.831  0.8276 -0.4865 -0.2495
 4213TIP3    H134054   3.182   5.574  15.756  0.2292 -0.3681  0.1276
 4213TIP3    H234055   3.193   5.682  15.862  3.2249  1.6672 -2.0821
 4214TIP3   OH234056   4.815   0.447   1.361  0.8164  0.4634  0.6725
 4214TIP3    H134057   4.898   0.402   1.343  0.6726  0.0992  0.9058
 4214TIP3    H234058   4.786   0.411   1.445  0.9128  1.3116  1.0765
 4215TIP3   OH234059   4.787   1.456   6.242 -0.5385  0.0558 -0.0678
 4215TIP3    H134060   4.794   1.429   6.151 -0.2353 -0.3258  0.0672
 4215TIP3    H234061   4.878   1.466   6.271 -0.4648 -3.2879  1.2207
 4216TIP3   OH234062   1.540   1.931   1.218 -0.0135  0.3373 -0.2096
 4216TIP3    H134063   1.593   1.851   1.218 -0.6857 -0.1491  1.4102
 4216TIP3    H234064   1.594   1.995   1.265  0.6143  0.9354 -1.6879
 4217TIP3   OH234065   5.296   3.466  11.205 -0.3159  0.0097 -0.6218
 4217TIP3    H134066   5.235   3.520  11.154 -1.1269 -0.0416  0.2810
 4217TIP3    H234067   5.315   3.518  11.282 -0.2423 -0.5307 -0.2743
 4218TIP3   OH234068   1.732   2.008  10.386 -0.3370  0.0227 -0.5837
 4218TIP3    H134069   1.801   2.073  10.374 -0.8507  0.5810 -0.5884
 4218TIP3    H234070   1.754   1.937  10.326  1.0778 -0.5305  0.5403
 4219TIP3   OH234071   5.324   4.069  15.579  0.3622 -0.2211  0.0005
 4219TIP3    H134072   5.320   3.976  15.558  0.3642  0.4128 -3.2795
 4219TIP3    H234073   5.394   4.104  15.523  0.4666  1.7559  1.2564
 4220TIP3   OH234074   2.289   4.569   1.549  0.2339  0.8894  0.2547
 4220TIP3    H134075   2.302   4.662   1.532  0.6106  1.1130  1.6393
 4220TIP3    H234076   2.330   4.525   1.474 -0.2601  1.8259 -0.5873
 4221TIP3   OH234077   2.121   3.372  13.811 -0.4062 -0.0363  0.5108
 4221TIP3    H134078   2.163   3.303  13.863  1.3017  0.4460 -0.1601
 4221TIP3    H234079   2.111   3.445  13.872  1.3342  0.4304  0.2813
 4222TIP3   OH234080   0.567   3.212   2.660 -0.1791 -0.1212 -0.2854
 4222TIP3    H134081   0.596   3.159   2.735 -0.2326  1.0190  0.5703
 4222TIP3    H234082   0.540   3.296   2.699 -0.5516  0.3677 -1.5482
 4223TIP3   OH234083   6.128   1.660  13.532  0.0585  0.4916 -0.0494
 4223TIP3    H134084   6.129   1.746  13.575  1.7375  0.6218 -0.2525
 4223TIP3    H234085   6.130   1.681  13.438  2.3471  0.3043 -0.0996
 4224TIP3   OH234086   6.392   6.240   4.505 -0.4149 -0.4019  0.3974
 4224TIP3    H134087   6.458   6.308   4.516 -0.0680 -1.0710  3.0161
 4224TIP3    H234088   6.436   6.172   4.454 -0.2034  0.5608 -0.7363
 4225TIP3   OH234089   2.279   4.827   2.871  0.2216 -0.4294 -0.3831
 4225TIP3    H134090   2.342   4.809   2.801  0.5487 -2.3286  0.3275
 4225TIP3    H234091   2.292   4.756   2.934 -1.3898  0.1432  0.6735
 4226TIP3   OH234092   2.949   0.925  14.285  0.2419 -0.2530 -0.2398
 4226TIP3    H134093   2.859   0.957  14.279 -0.2384 -1.2704  1.0943
 4226TIP3    H234094   2.961   0.905  14.378  1.4630 -1.2255 -0.5877
 4227TIP3   OH234095   1.071   3.728  15.951 -0.2296 -0.1098  0.2705
 4227TIP3    H134096   1.020   3.746  15.871 -1.6254 -0.3253  1.0731
 4227TIP3    H234097   1.155   3.695  15.919 -0.9423 -0.6681 -1.1214
 4228TIP3   OH234098   3.393   0.958  14.967 -0.9290  0.4353  0.1134
 4228TIP3    H134099   3.424   0.995  15.050  1.4451  1.1832 -1.0024
 4228TIP3    H234100   3.344   1.029  14.926 -0.1402  0.8802 -0.0927
 4229TIP3   OH234101   5.656   4.511  13.779  0.5839 -0.4169  0.2952
 4229TIP3    H134102   5.681   4.561  13.701 -2.1904  2.0333  0.7832
 4229TIP3    H234103   5.716   4.539  13.847  2.1911 -1.5872 -0.5785
 4230TIP3   OH234104   5.793   6.428   1.387 -0.2272 -0.4901 -0.1261
 4230TIP3    H134105   5.735   6.353   1.375 -0.5636 -0.2705  0.0988
 4230TIP3    H234106   5.881   6.394   1.370 -0.4352 -0.7890 -0.6252
 4231TIP3   OH234107   0.479   3.628  14.010  0.2696 -0.2012 -0.7963
 4231TIP3    H134108   0.475   3.718  14.043  2.0877 -0.0457 -0.8904
 4231TIP3    H234109   0.486   3.638  13.915 -2.4413 -0.5720 -1.0986
 4232TIP3   OH234110   0.481   1.655   1.618 -0.8086 -0.3596  0.0814
 4232TIP3    H134111   0.397   1.652   1.571 -0.8083 -0.0897  0.0614
 4232TIP3    H234112   0.521   1.737   1.590 -1.3903  0.4548  1.5140
 4233TIP3   OH234113   4.335   0.068   0.265 -0.4713 -0.6067  0.2645
 4233TIP3    H134114   4.356   0.017   0.344  1.1175  0.0957  0.3163
 4233TIP3    H234115   4.286   0.143   0.299 -0.9326 -0.9661  0.4195
 4234TIP3   OH234116   3.314   5.599  16.668  0.4890  0.0271 -0.5838
 4234TIP3    H134117   3.335   5.506  16.672 -0.5075 -0.2492 -1.3900
 4234TIP3    H234118   3.230   5.603  16.623  1.2327  1.4250 -1.9391
 4235TIP3   OH234119   4.980   6.185   0.312 -0.3022  0.1240  0.4331
 4235TIP3    H134120   5.047   6.179   0.244 -1.4497 -0.0028 -0.7027
 4235TIP3    H234121   5.011   6.127   0.381  2.6595  2.8214  1.6350
 4236TIP3   OH234122   2.759   0.468  10.596 -0.9217 -0.6099 -0.2158
 4236TIP3    H134123   2.696   0.415  10.548  0.3546 -0.4776 -2.1235
 4236TIP3    H234124   2.743   0.558  10.568 -0.1409 -0.5304 -0.4309
 4237TIP3   OH234125   6.342   4.384  10.601 -0.2994  0.1772 -0.3713
 4237TIP3    H134126   6.330   4.292  10.624 -2.0237  0.2632 -0.8459
 4237TIP3    H234127   6.437   4.393  10.590  0.2864 -0.7768  2.7862
 4238TIP3   OH234128   2.390   3.225   1.805  0.2409 -0.1388 -0.5821
 4238TIP3    H134129   2.456   3.161   1.783 -0.0566 -0.3817 -0.7765
 4238TIP3    H234130   2.421   3.307   1.765  0.4111 -0.2552 -0.6878
 4239TIP3   OH234131   1.725   1.848  13.228  0.0521 -0.0736 -0.3563
 4239TIP3    H134132   1.726   1.845  13.324 -1.0326 -0.5855 -0.3444
 4239TIP3    H234133   1.647   1.799  13.204 -0.0345  0.6006 -1.4884
 4240TIP3   OH234134   2.271   0.598   5.101 -0.2974  0.1103  0.1356
 4240TIP3    H134135   2.189   0.555   5.125 -0.4740  0.8880  0.9891
 4240TIP3    H234136   2.298   0.555   5.020 -0.0015 -2.2590  1.3779
 4241TIP3   OH234137   1.608   2.375  16.078 -0.0208 -0.2709 -0.7454
 4241TIP3    H134138   1.694   2.417  16.074  0.4323 -1.1027 -0.1889
 4241TIP3    H234139   1.555   2.422  16.014  1.4508 -1.0795 -2.6627
 4242TIP3   OH234140   0.966   4.315   0.216 -0.2620 -0.0506  0.0162
 4242TIP3    H134141   0.968   4.385   0.151  0.8407  0.1741  0.2681
 4242TIP3    H234142   1.004   4.355   0.295  0.7441 -1.0239  0.0468
 4243TIP3   OH234143   3.304   0.998   4.770 -0.3891 -0.0759  0.0691
 4243TIP3    H134144   3.370   1.059   4.801 -2.3086  0.8433  2.6951
 4243TIP3    H234145   3.272   1.036   4.689  0.9983  0.4077 -0.2765
 4244TIP3   OH234146   3.067   1.314   4.468 -0.2028 -0.0548  0.0160
 4244TIP3    H134147   2.999   1.341   4.407  0.2073  2.7898  0.7008
 4244TIP3    H234148   3.032   1.333   4.555  0.3736 -1.2732  0.5531
 4245TIP3   OH234149   0.851   0.841   1.976  0.3584 -0.2462  0.0886
 4245TIP3    H134150   0.880   0.776   1.912 -1.1741 -0.3962 -0.4940
 4245TIP3    H234151   0.819   0.914   1.924 -0.1726 -0.0386  0.6956
 4246TIP3   OH234152   6.046   2.543  15.274  0.8854 -1.1473  0.1824
 4246TIP3    H134153   6.052   2.629  15.316  1.1952 -1.2600  0.3700
 4246TIP3    H234154   5.973   2.500  15.319 -0.3043 -0.3952 -0.9851
 4247TIP3   OH234155   0.487   3.662   0.332 -0.3366  0.3498  0.2709
 4247TIP3    H134156   0.578   3.633   0.335 -1.0719 -2.1409  1.4108
 4247TIP3    H234157   0.462   3.672   0.424 -0.9127  2.2164 -0.0492
 4248TIP3   OH234158   0.861   4.993  15.198 -0.7029 -0.1592 -0.2130
 4248TIP3    H134159   0.788   5.049  15.226  0.3215  2.5575 -2.4480
 4248TIP3    H234160   0.824   4.940  15.127 -0.7228  0.6849 -0.8483
 4249TIP3   OH234161   3.415   6.292  12.986  0.0752 -0.3589 -0.6062
 4249TIP3    H134162   3.507   6.267  12.974  0.5866  1.4258 -0.6712
 4249TIP3    H234163   3.380   6.226  13.046  1.2219 -1.4299 -1.0685
 4250TIP3   OH234164   3.120   3.903   2.767 -0.8059 -0.2229 -0.1369
 4250TIP3    H134165   3.183   3.870   2.702 -0.2350 -2.0637  1.2907
 4250TIP3    H234166   3.067   3.966   2.718  1.8759  1.1656 -1.5077
 4251TIP3   OH234167   5.702   3.739  13.145 -0.0976 -0.0150 -0.7853
 4251TIP3    H134168   5.790   3.759  13.115  0.3544 -0.4870  0.1587
 4251TIP3    H234169   5.691   3.792  13.224 -0.8361  0.3775 -1.1358
 4252TIP3   OH234170   4.596   0.911  14.333  0.5092 -0.5083 -0.6799
 4252TIP3    H134171   4.540   0.942  14.262 -0.1857  0.7376  0.3772
 4252TIP3    H234172   4.537   0.864  14.392  0.9865 -1.0806 -0.6405
 4253TIP3   OH234173   0.670   1.306  13.113  0.8094  0.0413 -0.5765
 4253TIP3    H134174   0.751   1.260  13.092  1.5758  0.5972  0.9727
 4253TIP3    H234175   0.691   1.398  13.098  0.0886  0.1101 -1.2312
 4254TIP3   OH234176   3.842   5.784   5.939 -0.1978  0.3934  0.2374
 4254TIP3    H134177   3.880   5.778   5.851 -1.9037  3.6033 -0.8690
 4254TIP3    H234178   3.752   5.754   5.928 -0.2526  0.2377  1.0480
 4255TIP3   OH234179   0.322   1.808   0.935 -0.0224 -0.5631 -0.2404
 4255TIP3    H134180   0.249   1.748   0.922 -0.7103  0.5129 -1.6921
 4255TIP3    H234181   0.338   1.807   1.030 -1.6765 -1.1169  0.0650
 4256TIP3   OH234182   4.928   0.286  14.572  0.4722  0.0021 -0.3923
 4256TIP3    H134183   5.015   0.327  14.570 -0.6512  2.7250 -3.4386
 4256TIP3    H234184   4.867   0.360  14.571 -1.8544 -1.8065 -0.6777
 4257TIP3   OH234185   1.222   5.050   0.186  0.5092 -0.3556  0.2214
 4257TIP3    H134186   1.141   5.052   0.236  0.4784 -0.6383  0.1844
 4257TIP3    H234187   1.286   5.010   0.244  1.2676  2.0257  1.1718
 4258TIP3   OH234188   6.267   2.401  10.834  0.9536 -0.6303 -0.0848
 4258TIP3    H134189   6.337   2.364  10.888 -0.6193  1.7656  4.0082
 4258TIP3    H234190   6.236   2.326  10.783  0.2540 -4.3759  4.9795
 4259TIP3   OH234191   6.699   1.322  10.925 -0.1624  0.5396 -0.2057
 4259TIP3    H134192   6.791   1.348  10.914  0.1294 -0.3298  0.1042
 4259TIP3    H234193   6.660   1.333  10.839  0.5022 -0.0992 -0.5955
 4260TIP3   OH234194   4.944   1.588  11.163  0.1814  0.0372 -0.0560
 4260TIP3    H134195   5.014   1.543  11.116  0.7529  1.5921 -0.7876
 4260TIP3    H234196   4.955   1.680  11.138 -0.5421  0.6841  1.8344
 4261TIP3   OH234197   5.179   2.332   5.644 -0.1169  0.0169 -0.0273
 4261TIP3    H134198   5.089   2.349   5.673 -0.8277  0.5398 -2.3170
 4261TIP3    H234199   5.171   2.318   5.550  2.2912  0.5467 -0.3664
 4262TIP3   OH234200   0.701   3.496  14.933 -0.3613  0.2407  0.3478
 4262TIP3    H134201   0.666   3.534  14.853  2.9447  1.3064 -0.7478
 4262TIP3    H234202   0.690   3.565  14.999 -0.8186  0.3312  0.1808
 4263TIP3   OH234203   1.109   2.226  14.952 -0.3463 -0.3181  0.1824
 4263TIP3    H134204   1.190   2.219  15.002  0.0015 -0.4199 -0.3918
 4263TIP3    H234205   1.080   2.316  14.966 -0.6153 -0.5385  1.1163
 4264TIP3   OH234206   6.108   0.482   5.734  0.2946  0.2558  0.3623
 4264TIP3    H134207   6.143   0.412   5.790 -0.4072 -1.6247 -1.3991
 4264TIP3    H234208   6.185   0.522   5.695  0.6690 -0.2070  0.6201
 4265TIP3   OH234209   0.785   0.176  15.251  0.0495  0.4561  0.1569
 4265TIP3    H134210   0.808   0.264  15.220 -1.9691  0.5311 -1.3004
 4265TIP3    H234211   0.841   0.118  15.200  0.6523  0.8414  0.3680
 4266TIP3   OH234212   2.984   3.741   4.345 -0.1817  0.1479 -0.2536
 4266TIP3    H134213   2.967   3.647   4.336  0.8305  0.1191 -5.5445
 4266TIP3    H234214   3.080   3.748   4.344 -0.2403  1.2115  0.1492
 4267TIP3   OH234215   6.494   0.222  14.040  0.0349  0.6395 -0.4444
 4267TIP3    H134216   6.409   0.239  14.000  0.0723  0.6556 -0.5180
 4267TIP3    H234217   6.484   0.137  14.082 -0.2698  1.0203  0.2595
 4268TIP3   OH234218   3.829   4.984  11.466 -0.3332  0.5405 -0.9335
 4268TIP3    H134219   3.745   4.970  11.422 -1.0003 -0.4659  0.5913
 4268TIP3    H234220   3.876   5.044  11.408 -3.2343  3.6118 -0.4315
 4269TIP3   OH234221   6.563   6.469   0.314  0.3709  0.1548 -0.2257
 4269TIP3    H134222   6.622   6.410   0.362 -0.6961  0.5800  1.7055
 4269TIP3    H234223   6.574   6.554   0.357 -0.3201  0.6583 -1.0168
 4270TIP3   OH234224   6.260   6.410   5.145  0.0139  0.2637 -0.2667
 4270TIP3    H134225   6.286   6.483   5.201 -1.3451 -0.2430  1.1020
 4270TIP3    H234226   6.313   6.337   5.176 -0.5174  0.0581  0.1787
 4271TIP3   OH234227   6.064   0.672  13.908  0.1419 -0.4890 -0.2266
 4271TIP3    H134228   5.973   0.662  13.934 -0.2489  0.1757 -1.3007
 4271TIP3    H234229   6.077   0.605  13.841  0.0422  0.3200 -1.0657
 4272TIP3   OH234230   3.759   5.190  15.432  0.2162 -0.6668  0.2284
 4272TIP3    H134231   3.811   5.123  15.389  1.6722  0.2253  0.5370
 4272TIP3    H234232   3.778   5.270  15.383 -0.4658 -0.2246  0.6702
 4273TIP3   OH234233   5.350   1.220  16.176 -0.1470 -0.4538  0.2870
 4273TIP3    H134234   5.424   1.219  16.238 -0.6063  0.8970  0.9083
 4273TIP3    H234235   5.361   1.303  16.128 -0.9291 -0.5309 -0.0278
 4274TIP3   OH234236   2.562   2.371   1.843  0.1476  0.2473  0.3895
 4274TIP3    H134237   2.478   2.353   1.885  0.5275 -0.4519  0.8633
 4274TIP3    H234238   2.627   2.326   1.897  0.7758  0.3228 -0.2764
 4275TIP3   OH234239   5.324   4.530  16.464 -0.0486 -0.2887 -0.1200
 4275TIP3    H134240   5.236   4.496  16.449  0.4842 -0.7833 -2.6185
 4275TIP3    H234241   5.357   4.552  16.376  1.9015  0.9668  0.8440
 4276TIP3   OH234242   3.801   2.490   0.052  0.4937  0.4444  0.5152
 4276TIP3    H134243   3.753   2.409   0.063  1.3062 -0.0710  0.3458
 4276TIP3    H234244   3.838   2.485  -0.036  0.4032  1.0824  0.4331
 4277TIP3   OH234245   5.702   0.422  13.470 -0.0460 -0.6269 -0.1520
 4277TIP3    H134246   5.643   0.376  13.409  1.5250 -1.2115 -1.2973
 4277TIP3    H234247   5.773   0.455  13.415  0.6379  0.1818  1.1635
 4278TIP3   OH234248   3.595   5.196   5.531 -0.1513  0.2460 -0.6855
 4278TIP3    H134249   3.673   5.244   5.505  0.4814 -0.1130  0.4629
 4278TIP3    H234250   3.554   5.251   5.598 -1.8560  1.2524 -2.4638
 4279TIP3   OH234251   1.900   2.004   0.194 -0.5791  0.4605 -0.3981
 4279TIP3    H134252   1.819   2.051   0.216 -1.8289 -0.2396 -3.1794
 4279TIP3    H234253   1.956   2.071   0.154  0.5480  1.0759  2.0268
 4280TIP3   OH234254   0.151   4.980   3.041  0.2429 -0.4185  0.2674
 4280TIP3    H134255   0.058   4.980   3.022  0.6480  0.4540 -2.0158
 4280TIP3    H234256   0.190   4.928   2.970  1.4701 -1.1689  1.4420
 4281TIP3   OH234257   0.192   0.528   2.851 -0.5279  0.2251 -0.2994
 4281TIP3    H134258   0.170   0.473   2.776  2.0880 -1.1165 -0.1877
 4281TIP3    H234259   0.109   0.568   2.877 -1.9071 -1.0531 -2.4783
 4282TIP3   OH234260   3.434   3.271   0.356  0.2935 -0.0810 -0.5997
 4282TIP3    H134261   3.446   3.350   0.408  1.3767 -0.2947 -0.5031
 4282TIP3    H234262   3.349   3.283   0.314 -0.2149  0.4783  0.5390
 4283TIP3   OH234263   1.870   0.332   2.498 -0.7423  0.4388 -0.1993
 4283TIP3    H134264   1.925   0.386   2.440 -2.5833 -0.3694 -2.8645
 4283TIP3    H234265   1.785   0.375   2.498 -1.2607 -0.5408  0.5425
 4284TIP3   OH234266   2.739   0.457   1.150 -0.5577 -0.5192 -0.2450
 4284TIP3    H134267   2.791   0.413   1.217  0.2640 -0.0424 -0.5468
 4284TIP3    H234268   2.798   0.524   1.115 -0.7941 -1.0598 -1.7529
 4285TIP3   OH234269   5.298   2.240  12.496 -0.0853  0.3750 -0.7116
 4285TIP3    H134270   5.319   2.189  12.574 -0.4946  1.3558  0.0706
 4285TIP3    H234271   5.236   2.186  12.448  0.4201 -0.3846 -0.5350
 4286TIP3   OH234272   0.149   1.966  17.114 -0.3352  0.1593  0.6251
 4286TIP3    H134273   0.169   1.990  17.204 -0.8465 -0.0687  0.8022
 4286TIP3    H234274   0.053   1.969  17.109 -0.2984  0.4852  0.0024
 4287TIP3   OH234275   0.228   3.331   3.093  0.1421  0.0127  0.5028
 4287TIP3    H134276   0.178   3.284   3.160  0.3038 -0.4115  0.3260
 4287TIP3    H234277   0.198   3.294   3.010 -0.5733  1.0252  0.2872
 4288TIP3   OH234278   0.869   0.810  16.095  0.2585 -0.6675  0.2071
 4288TIP3    H134279   0.949   0.792  16.145  0.6401 -3.0307 -1.1170
 4288TIP3    H234280   0.855   0.732  16.042 -1.2603  0.8698 -1.8634
 4289TIP3   OH234281   5.367   1.500  13.707  0.2113 -0.7388  0.6686
 4289TIP3    H134282   5.329   1.412  13.704 -0.8528 -0.2902  0.1391
 4289TIP3    H234283   5.374   1.526  13.615 -0.1354 -0.0156  0.8362
 4290TIP3   OH234284   3.864   5.625  12.634  0.4754 -0.2301 -0.0892
 4290TIP3    H134285   3.930   5.673  12.684 -0.3278  0.4958  0.2949
 4290TIP3    H234286   3.886   5.533  12.648  0.0599 -0.0716  1.9131
 4291TIP3   OH234287   2.815   2.611  15.446 -0.4596  0.4141 -0.6163
 4291TIP3    H134288   2.893   2.664  15.430 -0.7383  0.7749 -0.8045
 4291TIP3    H234289   2.749   2.647  15.386 -0.9991  0.6345  0.0852
 4292TIP3   OH234290   0.997   6.680   2.949 -0.0453 -0.1163 -0.0276
 4292TIP3    H134291   0.933   6.609   2.938 -0.2942  0.3543 -1.9709
 4292TIP3    H234292   0.946   6.753   2.982  0.0992 -0.6089  1.3801
 4293TIP3   OH234293   5.462   1.440   4.084  0.5866  0.2546  0.5308
 4293TIP3    H134294   5.417   1.520   4.056 -0.3381  0.0965  1.5476
 4293TIP3    H234295   5.473   1.390   4.003 -0.4816  0.5832  0.1690
 4294TIP3   OH234296   5.913   4.196  14.116  0.0552 -0.4099  0.0173
 4294TIP3    H134297   5.933   4.126  14.054 -0.3891  0.7117 -1.4692
 4294TIP3    H234298   5.948   4.275  14.075 -0.5013  0.4180  1.0687
 4295TIP3   OH234299   3.251   0.490  16.299 -0.1837  0.0996 -0.3813
 4295TIP3    H134300   3.261   0.398  16.274  0.2126  0.6528 -2.4462
 4295TIP3    H234301   3.253   0.538  16.216 -1.4226  1.9011  0.5615
 4296TIP3   OH234302   5.866   5.521  14.980 -0.4602 -0.1094  0.3143
 4296TIP3    H134303   5.788   5.550  15.028  0.1001  2.4363 -0.1796
 4296TIP3    H234304   5.939   5.559  15.027  0.4911 -1.8046  0.2990
 4297TIP3   OH234305   6.229   0.059  14.677  0.2937 -0.3118 -0.0433
 4297TIP3    H134306   6.271   0.030  14.758  0.5792 -1.4448 -0.5657
 4297TIP3    H234307   6.224   0.154  14.685 -0.2074 -0.4327  1.5437
 4298TIP3   OH234308   5.049   1.823   4.380 -0.6798  0.2536  0.8170
 4298TIP3    H134309   4.980   1.801   4.443 -0.4843 -2.1439  0.3018
 4298TIP3    H234310   5.003   1.867   4.309 -1.5415 -0.4307  0.9336
 4299TIP3   OH234311   3.630   3.492   1.628  0.1362 -0.1176  0.5121
 4299TIP3    H134312   3.697   3.473   1.695  0.2088 -0.2071  0.4147
 4299TIP3    H234313   3.626   3.412   1.575  0.8246  0.3285 -0.2315
 4300TIP3   OH234314   3.868   3.128   0.686 -0.1364 -0.0106  0.5651
 4300TIP3    H134315   3.943   3.150   0.741 -0.2064  0.2960  0.5346
 4300TIP3    H234316   3.864   3.197   0.620  2.5129 -2.4051 -2.4910
 4301TIP3   OH234317   2.207   5.002  11.272 -0.1624 -0.4692 -0.2845
 4301TIP3    H134318   2.238   5.091  11.256 -0.3267 -0.5923 -1.3173
 4301TIP3    H234319   2.280   4.958  11.315  0.3326 -0.1701 -0.8187
 4302TIP3   OH234320   3.186   2.642  16.042 -0.0785  0.4229  0.6245
 4302TIP3    H134321   3.246   2.696  15.991  1.4277 -2.0491 -0.3857
 4302TIP3    H234322   3.212   2.656  16.133  0.6814  0.9155  0.3446
 4303TIP3   OH234323   5.201   3.626  11.744 -0.2821 -0.1517 -0.1254
 4303TIP3    H134324   5.255   3.702  11.719  1.0995 -1.4822 -1.4212
 4303TIP3    H234325   5.133   3.623  11.677 -0.1259 -0.2661 -0.2787
 4304TIP3   OH234326   2.352   6.373  12.918 -0.3487  0.3152  0.0471
 4304TIP3    H134327   2.291   6.441  12.888 -2.0732 -1.2046 -0.0227
 4304TIP3    H234328   2.438   6.413  12.906 -1.2758  2.4101 -0.1878
 4305TIP3   OH234329   1.344   5.116  11.407  0.4951 -0.0397  0.1126
 4305TIP3    H134330   1.265   5.079  11.447 -0.1077 -0.6312 -1.5079
 4305TIP3    H234331   1.320   5.206  11.386  0.6590  0.1335  0.6549
 4306TIP3   OH234332   6.773   3.589  14.784  0.5828  0.1638  0.0981
 4306TIP3    H134333   6.775   3.513  14.726  0.5124 -0.0881  0.4257
 4306TIP3    H234334   6.833   3.652  14.743  0.1011  0.2120 -0.5620
 4307TIP3   OH234335   3.262   0.211   3.151  0.3488 -0.3301  0.0401
 4307TIP3    H134336   3.242   0.301   3.177  0.9232  0.4305 -1.9695
 4307TIP3    H234337   3.329   0.182   3.214  0.3968  0.7600  0.5162
 4308TIP3   OH234338   2.179   1.010  13.253  0.8080  0.4093 -0.2031
 4308TIP3    H134339   2.144   1.098  13.240  0.1447  0.1255 -0.3888
 4308TIP3    H234340   2.227   1.015  13.336 -0.7413  0.5005  0.7321
 4309TIP3   OH234341   3.499   4.175   5.890 -0.3419 -0.3270 -0.4455
 4309TIP3    H134342   3.448   4.202   5.967 -0.0375  1.6465 -0.8871
 4309TIP3    H234343   3.587   4.207   5.907  0.0030 -0.8998 -1.1154
 4310TIP3   OH234344   3.049   6.668  15.084 -0.0839 -0.0520 -0.4599
 4310TIP3    H134345   3.102   6.709  15.153 -0.1937  1.3873 -1.2118
 4310TIP3    H234346   2.966   6.715  15.086 -0.6636 -1.0490 -0.5516
 4311TIP3   OH234347   4.890   1.323   2.645  0.0475  0.4762  0.0076
 4311TIP3    H134348   4.797   1.339   2.628 -0.1887 -1.4402 -0.8786
 4311TIP3    H234349   4.935   1.370   2.575 -0.5164 -1.2430 -1.6314
 4312TIP3   OH234350   1.146   4.573  13.246 -0.2788 -0.1236  0.4259
 4312TIP3    H134351   1.106   4.558  13.160  0.6867  0.6403 -0.1888
 4312TIP3    H234352   1.093   4.522  13.307  0.4642 -2.6826 -0.9384
 4313TIP3   OH234353   1.149   3.042  11.853 -0.1815  0.1534 -0.5778
 4313TIP3    H134354   1.112   2.955  11.864  2.3199 -1.0558 -1.1257
 4313TIP3    H234355   1.181   3.043  11.763  0.3775  1.4292 -0.3841
 4314TIP3   OH234356   0.678   6.655  11.765  0.2684 -0.0019  0.2565
 4314TIP3    H134357   0.743   6.604  11.717  0.0499 -0.1671  0.1349
 4314TIP3    H234358   0.612   6.678  11.700 -1.1576 -2.0613  0.8595
 4315TIP3   OH234359   3.299   6.118  16.105  1.1732 -0.1222 -0.3865
 4315TIP3    H134360   3.237   6.088  16.172 -1.4760 -0.9301 -2.9720
 4315TIP3    H234361   3.384   6.088  16.136 -0.1741 -2.1867  1.6637
 4316TIP3   OH234362   4.522   0.805  12.007 -0.3878 -0.4425  0.6252
 4316TIP3    H134363   4.616   0.807  12.023 -0.3869 -1.9729  1.0421
 4316TIP3    H234364   4.514   0.773  11.917 -0.5076 -0.3554  0.6045
 4317TIP3   OH234365   6.387   0.349  15.306  0.4609  0.1674 -0.1128
 4317TIP3    H134366   6.467   0.314  15.266 -0.4465 -0.7355 -1.2203
 4317TIP3    H234367   6.328   0.364  15.232 -0.7606 -0.1809  0.7604
 4318TIP3   OH234368   3.993   4.271  12.448 -0.0230  0.3870  0.4195
 4318TIP3    H134369   3.989   4.342  12.384 -0.6992  0.6788  0.7765
 4318TIP3    H234370   3.910   4.225  12.438 -0.1181  0.4164  1.0673
 4319TIP3   OH234371   2.315   5.321  13.815 -0.2289  0.0173 -0.5638
 4319TIP3    H134372   2.405   5.353  13.815  0.0033 -0.4881  1.6024
 4319TIP3    H234373   2.320   5.236  13.772 -0.5242  1.7402 -4.5323
 4320TIP3   OH234374   3.607   4.432   1.695 -0.1473  0.0118  0.0496
 4320TIP3    H134375   3.648   4.356   1.736  2.3630  0.9500 -0.5031
 4320TIP3    H234376   3.623   4.420   1.601  1.5062  1.7845  0.0425
 4321TIP3   OH234377   1.518   0.874  14.659 -0.3436  0.1097  0.2927
 4321TIP3    H134378   1.600   0.902  14.698 -0.0725 -0.7384  0.3422
 4321TIP3    H234379   1.470   0.833  14.730 -1.2110  1.3965  0.4893
 4322TIP3   OH234380   0.742   3.767   1.174  0.4225  0.0614  0.0911
 4322TIP3    H134381   0.650   3.754   1.196  0.6384 -1.3675  0.2359
 4322TIP3    H234382   0.781   3.680   1.182  2.0105  0.8211  1.0729
 4323TIP3   OH234383   0.858   5.721  11.158 -0.1120 -0.2975  0.2177
 4323TIP3    H134384   0.847   5.669  11.079 -0.8598 -0.2672  0.2958
 4323TIP3    H234385   0.912   5.666  11.216  1.0782 -0.0111 -0.5838
 4324TIP3   OH234386   4.703   0.272  15.712  0.6533  0.1855  0.2625
 4324TIP3    H134387   4.616   0.303  15.739  0.9627  0.0134  1.4988
 4324TIP3    H234388   4.685   0.203  15.648 -0.1405 -0.2411  0.9266
 4325TIP3   OH234389   3.041   2.202  11.326  0.5850  0.5623  0.5380
 4325TIP3    H134390   3.014   2.186  11.235 -0.9012  2.0490  0.6780
 4325TIP3    H234391   3.004   2.128  11.375  0.8454  0.0963  0.0454
 4326TIP3   OH234392   3.549   1.760   6.338  0.2900  0.3095  0.0168
 4326TIP3    H134393   3.639   1.791   6.346 -0.5361  3.1218 -0.3776
 4326TIP3    H234394   3.496   1.837   6.358 -2.0427 -1.2502  0.1577
 4327TIP3   OH234395   5.614   5.029   5.961 -0.2229 -0.1446  0.7191
 4327TIP3    H134396   5.563   5.053   5.884  0.8685 -0.5450 -0.1565
 4327TIP3    H234397   5.550   4.996   6.023 -1.1441  0.3485  0.0516
 4328TIP3   OH234398   1.364   3.940  16.017 -0.0341  0.3717 -0.2866
 4328TIP3    H134399   1.312   3.863  15.993 -1.5641  1.2527  0.1039
 4328TIP3    H234400   1.405   3.968  15.936  0.8280 -1.0367 -0.3769
 4329TIP3   OH234401   2.282   5.699   1.162  0.6053  0.2295 -0.3138
 4329TIP3    H134402   2.299   5.763   1.231  1.1592 -0.6497  0.3784
 4329TIP3    H234403   2.359   5.642   1.162  0.6211  0.2162 -1.6687
 4330TIP3   OH234404   5.533   0.238   0.109  0.1579  0.0769 -0.1171
 4330TIP3    H134405   5.508   0.288   0.032 -2.5267  1.4181  1.4504
 4330TIP3    H234406   5.584   0.164   0.075  0.9557  1.7708 -2.8930
 4331TIP3   OH234407   3.388   5.615   2.770  0.6127  0.4736 -0.6809
 4331TIP3    H134408   3.314   5.563   2.739 -0.9685  1.1590  1.6786
 4331TIP3    H234409   3.362   5.706   2.755  1.9306  0.7046 -1.7489
 4332TIP3   OH234410   0.719   2.100   4.067  0.1886  0.8672  0.5383
 4332TIP3    H134411   0.644   2.114   4.009  0.7614 -0.8722 -0.7165
 4332TIP3    H234412   0.770   2.031   4.024  1.3965  0.5168  2.4150
 4333TIP3   OH234413   5.724   1.568   1.040  0.2128  0.1083  0.0145
 4333TIP3    H134414   5.794   1.502   1.037  2.1530  1.9830  0.8471
 4333TIP3    H234415   5.698   1.579   0.949  0.5962 -1.0432 -0.2574
 4334TIP3   OH234416   1.159   2.248   4.036 -0.2353  0.0381  0.0859
 4334TIP3    H134417   1.094   2.232   4.105  0.8634  0.7960  1.3320
 4334TIP3    H234418   1.202   2.329   4.062 -0.9519  1.3369 -2.4238
 4335TIP3   OH234419   2.032   5.663  11.624  0.3644 -0.0532  0.0066
 4335TIP3    H134420   2.119   5.700  11.610  0.5144  0.4579  1.9332
 4335TIP3    H234421   2.023   5.596  11.556  0.9436  2.0039 -2.2343
 4336TIP3   OH234422   1.801   1.953   5.546  0.1184 -0.0128  0.1372
 4336TIP3    H134423   1.765   2.017   5.607  0.1918 -0.7465  0.9792
 4336TIP3    H234424   1.728   1.931   5.488  0.0004  0.5641  0.0628
 4337TIP3   OH234425   2.866   3.370  13.518 -0.7681  0.0984 -0.3372
 4337TIP3    H134426   2.899   3.431  13.584 -0.3130  1.1080 -1.4454
 4337TIP3    H234427   2.810   3.310  13.566 -0.9996  1.2160  0.8513
 4338TIP3   OH234428   3.202   0.699  13.539 -0.4528  0.8366 -0.0505
 4338TIP3    H134429   3.233   0.638  13.605 -1.7390 -0.1535 -0.3285
 4338TIP3    H234430   3.237   0.665  13.456 -1.9496 -0.1127 -0.3268
 4339TIP3   OH234431   6.039   4.526   3.228  0.5359 -0.4121 -0.1995
 4339TIP3    H134432   6.040   4.529   3.132 -0.5063  0.7806 -0.2165
 4339TIP3    H234433   6.125   4.557   3.254  0.7344 -0.4853 -0.7617
 4340TIP3   OH234434   0.294   4.328  11.564 -0.5007 -0.3421 -0.3593
 4340TIP3    H134435   0.212   4.332  11.613 -0.7379 -0.8956 -0.7100
 4340TIP3    H234436   0.271   4.355  11.475 -0.4460 -1.1325 -0.6238
 4341TIP3   OH234437   5.399   2.141   5.683  0.8662  0.4112 -0.2489
 4341TIP3    H134438   5.331   2.206   5.701  0.7935 -0.3282  2.7100
 4341TIP3    H234439   5.361   2.086   5.615 -0.9865  0.8107  0.3862
 4342TIP3   OH234440   5.069   2.275   1.094 -0.3662  0.6261 -0.5356
 4342TIP3    H134441   5.076   2.272   1.189 -0.9814  1.1075 -0.4696
 4342TIP3    H234442   5.159   2.283   1.063 -0.1685  0.5135  0.0052
 4343TIP3   OH234443   1.804   5.150  15.852  0.6130  0.0557  0.1789
 4343TIP3    H134444   1.748   5.100  15.792 -0.3683  3.2676 -1.8097
 4343TIP3    H234445   1.745   5.179  15.921  0.8488 -0.2570  0.5151
 4344TIP3   OH234446   3.870   5.650   3.180  0.0595 -0.2762  0.0418
 4344TIP3    H134447   3.838   5.636   3.091  1.3807  3.0288 -1.1428
 4344TIP3    H234448   3.956   5.691   3.168  0.8288 -0.8431  2.8964
 4345TIP3   OH234449   1.608   3.201  11.454  0.2589  0.7719  0.1206
 4345TIP3    H134450   1.542   3.153  11.405  1.1317 -1.4308  0.9811
 4345TIP3    H234451   1.582   3.293  11.446 -1.6216  0.1703 -1.3912
 4346TIP3   OH234452   0.758   1.450   2.286 -0.4032  0.3606  0.1969
 4346TIP3    H134453   0.803   1.366   2.294 -0.5045  0.4617  2.6867
 4346TIP3    H234454   0.665   1.427   2.286 -0.4257  0.3820 -1.1679
 4347TIP3   OH234455   6.259   1.336   4.284  0.7713  0.4239 -0.0339
 4347TIP3    H134456   6.232   1.426   4.303 -0.0548 -0.1092  1.4840
 4347TIP3    H234457   6.192   1.303   4.224 -0.1770  0.1435  1.1468
 4348TIP3   OH234458   4.450   4.421   4.638  0.3663  0.0097 -0.2717
 4348TIP3    H134459   4.480   4.511   4.652 -2.9356  1.1918 -0.0353
 4348TIP3    H234460   4.430   4.388   4.725  0.3053 -0.4885 -0.4710
 4349TIP3   OH234461   5.809   6.568  12.740 -0.0622  0.3830  0.2037
 4349TIP3    H134462   5.851   6.653  12.754  1.2925 -0.1843 -0.2327
 4349TIP3    H234463   5.824   6.520  12.822 -0.4070  0.3892  0.2728
 4350TIP3   OH234464   5.485   4.974   5.126 -0.1244  0.4055  0.0352
 4350TIP3    H134465   5.569   4.958   5.169 -0.2625 -0.3420  0.0447
 4350TIP3    H234466   5.438   5.032   5.186  0.0757  0.1852  0.4112
 4351TIP3   OH234467   3.562   3.599  13.500 -0.2494  0.2061  0.0249
 4351TIP3    H134468   3.511   3.520  13.482  0.1247  0.1733 -0.9623
 4351TIP3    H234469   3.499   3.671  13.493 -0.3000  0.1107 -0.5149
 4352TIP3   OH234470   5.042   0.156  11.074 -0.5653 -0.0199  0.2938
 4352TIP3    H134471   4.961   0.156  11.023 -0.7268 -0.3140  0.5462
 4352TIP3    H234472   5.047   0.067  11.110  0.1878 -0.1988 -0.2251
 4353TIP3   OH234473   4.047   5.416   1.754 -0.0767 -0.2404  0.3624
 4353TIP3    H134474   4.117   5.376   1.804  0.2394 -1.7639 -1.2249
 4353TIP3    H234475   4.071   5.509   1.751  1.3618 -0.5729  0.6346
 4354TIP3   OH234476   3.308   5.380   1.635  0.0830  0.3164  0.3085
 4354TIP3    H134477   3.282   5.451   1.693 -1.1491 -0.5600  0.8781
 4354TIP3    H234478   3.226   5.340   1.607  0.7489 -1.5993  0.9380
 4355TIP3   OH234479   6.111   3.330  13.644  0.7294 -0.6902 -0.4714
 4355TIP3    H134480   6.130   3.313  13.552 -0.5498  0.8038 -1.0516
 4355TIP3    H234481   6.143   3.418  13.660 -1.3117  0.0742 -0.2337
 4356TIP3   OH234482   0.614   6.783  14.471 -0.3509  0.0990 -0.2794
 4356TIP3    H134483   0.630   6.793  14.377  1.3214  0.1406 -0.0176
 4356TIP3    H234484   0.632   6.870  14.507 -0.1750 -0.1247  0.1710
 4357TIP3   OH234485   5.849   4.155  11.345 -0.4200  0.5065  0.5605
 4357TIP3    H134486   5.932   4.200  11.328  0.6674 -0.7528  2.1776
 4357TIP3    H234487   5.855   4.075  11.293 -0.3145  0.1028  1.1868
 4358TIP3   OH234488   5.541   6.177  10.867 -0.3174  0.2188  0.4994
 4358TIP3    H134489   5.575   6.104  10.919 -0.7545 -0.1929  0.2153
 4358TIP3    H234490   5.508   6.137  10.787 -0.8010  0.6917  0.4517
 4359TIP3   OH234491   3.928   3.923  16.882  0.1379 -0.5236  0.0420
 4359TIP3    H134492   3.909   3.924  16.976 -1.3525  1.0492 -0.2307
 4359TIP3    H234493   4.015   3.883  16.876  1.7565  2.2548  2.3836
 4360TIP3   OH234494   2.335   4.034   2.330 -0.0105  0.0730 -0.4263
 4360TIP3    H134495   2.377   4.091   2.394 -0.7918 -0.5060  0.6402
 4360TIP3    H234496   2.278   4.091   2.279 -1.4038  0.1695  1.1604
 4361TIP3   OH234497   2.033   5.160   1.278 -0.1727 -0.1317 -0.2803
 4361TIP3    H134498   2.100   5.210   1.326 -0.5161  0.9011 -0.8470
 4361TIP3    H234499   2.034   5.074   1.320 -0.0931  0.5673  1.2510
 4362TIP3   OH234500   3.249   6.816  15.724  0.3968  0.9628 -0.2446
 4362TIP3    H134501   3.184   6.853  15.664 -1.5855 -1.3879  0.3027
 4362TIP3    H234502   3.211   6.827  15.811  1.2553  0.5132  0.2075
 4363TIP3   OH234503   1.379   5.631  13.879  0.4148  0.0590  0.2659
 4363TIP3    H134504   1.469   5.605  13.862 -0.4822 -2.4398 -1.2701
 4363TIP3    H234505   1.351   5.574  13.950 -0.9878 -2.0253 -1.7955
 4364TIP3   OH234506   1.377   2.749  15.950  0.0507  0.2473  0.5339
 4364TIP3    H134507   1.446   2.697  15.911 -0.4464 -0.4295  0.5467
 4364TIP3    H234508   1.422   2.825  15.988  0.7704 -0.1724  0.5192
 4365TIP3   OH234509   0.902   0.791  15.262  0.4065  0.0642  0.0349
 4365TIP3    H134510   0.908   0.828  15.173  0.5597 -1.7400 -0.7354
 4365TIP3    H234511   0.846   0.714  15.252  0.2117 -0.0125  1.5786
 4366TIP3   OH234512   4.405   0.640   6.208  0.1778 -0.0446  0.0594
 4366TIP3    H134513   4.437   0.722   6.246 -1.4676  0.6611 -0.0073
 4366TIP3    H234514   4.470   0.619   6.141  2.1010 -0.3027  1.9065
 4367TIP3   OH234515   3.685   1.973   1.276  0.2682 -0.2949 -0.1273
 4367TIP3    H134516   3.779   1.992   1.285  0.4567 -1.1047 -0.3124
 4367TIP3    H234517   3.651   1.981   1.365  0.6560 -0.7101  0.0638
 4368TIP3   OH234518   4.320   2.877   2.212 -0.0343 -0.1264  0.2859
 4368TIP3    H134519   4.329   2.787   2.243  1.9293  0.0394  0.2834
 4368TIP3    H234520   4.304   2.869   2.118 -0.1556 -0.4627  0.3357
 4369TIP3   OH234521   1.065   2.566  16.506 -0.7111  0.0895 -0.6752
 4369TIP3    H134522   1.144   2.620  16.504 -0.2438 -0.5465 -3.3706
 4369TIP3    H234523   1.068   2.515  16.425 -2.8071 -1.5739  0.1689
 4370TIP3   OH234524   6.218   4.322  16.051 -0.3789  0.1717  0.3106
 4370TIP3    H134525   6.153   4.276  16.104  0.6320  0.7802  2.1481
 4370TIP3    H234526   6.213   4.413  16.079 -1.2362  0.9936 -2.1623
 4371TIP3   OH234527   3.107   6.396  14.961  0.2190  0.5190  0.3078
 4371TIP3    H134528   3.090   6.489  14.981 -0.4582  0.6001 -0.5728
 4371TIP3    H234529   3.143   6.397  14.872 -1.6849 -0.1846 -0.5272
 4372TIP3   OH234530   1.511   5.322  15.587 -0.4740  0.2543 -0.4958
 4372TIP3    H134531   1.474   5.376  15.656  2.1665  2.4590 -0.6506
 4372TIP3    H234532   1.457   5.342  15.510 -0.5526  1.4549 -0.1520
 4373TIP3   OH234533   3.400   6.603  14.061 -0.3416 -0.0551  0.5505
 4373TIP3    H134534   3.490   6.592  14.091  0.5979  1.3378 -1.5174
 4373TIP3    H234535   3.356   6.647  14.133  0.6384 -0.6765  1.5669
 4374TIP3   OH234536   4.547   1.092   5.476 -0.2900 -0.3245  0.1601
 4374TIP3    H134537   4.620   1.154   5.467 -0.9486  0.4045 -0.2415
 4374TIP3    H234538   4.514   1.108   5.564  1.8484 -2.7079  1.5218
 4375TIP3   OH234539   3.875   2.009  12.205 -0.5659 -0.3108 -0.4684
 4375TIP3    H134540   3.834   1.925  12.224 -1.2128 -0.1677 -1.1911
 4375TIP3    H234541   3.844   2.068  12.274 -0.2696 -0.6053 -0.0785
 4376TIP3   OH234542   4.837   6.013  12.771  0.5274 -0.4585  0.5257
 4376TIP3    H134543   4.929   6.003  12.744  0.7586  2.1457  0.1103
 4376TIP3    H234544   4.838   6.088  12.829 -1.1518 -1.4076  1.8509
 4377TIP3   OH234545   2.695   2.448  14.587  0.5501  0.1006 -0.1112
 4377TIP3    H134546   2.723   2.519  14.646  1.0877  0.2064 -0.4842
 4377TIP3    H234547   2.705   2.368  14.640  0.0906  0.2867  0.2599
 4378TIP3   OH234548   5.343   2.669  10.899 -0.1319 -0.2528  0.5284
 4378TIP3    H134549   5.395   2.708  10.829  1.2719 -2.6467  0.1397
 4378TIP3    H234550   5.257   2.710  10.890 -0.7670 -1.9621 -4.0988
 4379TIP3   OH234551   0.920   2.364   2.760  0.2129 -0.1182  0.7156
 4379TIP3    H134552   0.878   2.437   2.807 -1.6016  0.4782 -1.6476
 4379TIP3    H234553   0.937   2.398   2.673  2.0421 -1.6628  0.4108
 4380TIP3   OH234554   4.643   1.783  14.456 -0.1556  0.1255  0.2219
 4380TIP3    H134555   4.680   1.836  14.385  0.8823 -2.6325 -1.4423
 4380TIP3    H234556   4.718   1.756  14.508 -0.1476 -2.4434 -0.9843
 4381TIP3   OH234557   1.138   1.641  15.839  0.1491  0.3558  0.8623
 4381TIP3    H134558   1.108   1.683  15.919  1.8149  0.4482  1.4702
 4381TIP3    H234559   1.229   1.668  15.830 -0.1678  0.8825 -1.4313
 4382TIP3   OH234560   5.620   3.810   3.696 -0.0903 -0.8960  0.4125
 4382TIP3    H134561   5.580   3.823   3.782 -1.3408 -1.8604  0.0077
 4382TIP3    H234562   5.714   3.809   3.713 -0.1960  1.2406  1.4253
 4383TIP3   OH234563   6.544   0.068   0.410 -0.1416  0.1904  0.4529
 4383TIP3    H134564   6.506  -0.015   0.440 -1.7423  0.4191 -0.7721
 4383TIP3    H234565   6.618   0.083   0.468 -0.2388 -1.7406  1.1568
 4384TIP3   OH234566   0.782   3.442   2.070  0.2431  0.0198 -0.5917
 4384TIP3    H134567   0.822   3.364   2.108  0.7700  0.5759  0.0225
 4384TIP3    H234568   0.741   3.487   2.144 -0.0714  0.3174 -0.9398
 4385TIP3   OH234569   4.608   4.511  14.514 -0.0490 -0.2491  0.2853
 4385TIP3    H134570   4.600   4.442  14.447 -2.3561 -0.4037  0.6143
 4385TIP3    H234571   4.656   4.581  14.471 -0.3897 -0.8364 -1.1164
 4386TIP3   OH234572   0.493   1.382   2.341  0.0277 -0.8526  0.1564
 4386TIP3    H134573   0.426   1.320   2.312 -1.1825  0.3621  0.2191
 4386TIP3    H234574   0.487   1.381   2.436 -0.3436 -0.2833  0.1415
 4387TIP3   OH234575   2.157   4.661   2.201 -0.0992 -0.1975  0.0492
 4387TIP3    H134576   2.082   4.657   2.142 -0.9881 -2.7126  1.1958
 4387TIP3    H234577   2.117   4.661   2.289  1.2237  1.1168  0.6897
 4388TIP3   OH234578   1.945   6.599  16.737  0.7116  0.3370 -0.0601
 4388TIP3    H134579   1.938   6.678  16.685 -2.5353  1.0520  1.2369
 4388TIP3    H234580   1.883   6.538  16.697 -0.1507  0.1008  1.5667
 4389TIP3   OH234581   5.249   3.820  15.521 -0.3358 -0.4590 -0.1525
 4389TIP3    H134582   5.198   3.751  15.479 -1.5710 -0.6566  1.6036
 4389TIP3    H234583   5.335   3.780  15.536 -0.5101 -1.0450 -0.6579
 4390TIP3   OH234584   6.148   4.711   6.254 -0.1252 -0.2092  0.3661
 4390TIP3    H134585   6.085   4.673   6.316 -1.5527 -0.2883 -1.0938
 4390TIP3    H234586   6.222   4.649   6.255 -0.4589 -0.6184  1.3805
 4391TIP3   OH234587   4.705   6.300   0.155  1.0278  0.3179  0.5495
 4391TIP3    H134588   4.632   6.261   0.203 -0.6103  1.9739 -0.4762
 4391TIP3    H234589   4.781   6.249   0.183 -0.0427  0.2051  3.6672
 4392TIP3   OH234590   3.162   6.097  14.275 -0.1008 -0.4765 -0.1375
 4392TIP3    H134591   3.077   6.130  14.303 -1.1425 -0.7620 -2.6821
 4392TIP3    H234592   3.225   6.164  14.302 -1.4204  0.8055 -0.1506
 4393TIP3   OH234593   0.972   4.208  15.805  0.0755 -0.3747 -0.0951
 4393TIP3    H134594   0.959   4.130  15.858 -1.3439 -1.0869 -1.4195
 4393TIP3    H234595   0.901   4.267  15.831  1.4820  0.7932  1.3350
 4394TIP3   OH234596   1.714   0.937  13.501  0.1902  0.4335  0.2402
 4394TIP3    H134597   1.751   1.006  13.446  1.6461  0.3807  1.0774
 4394TIP3    H234598   1.710   0.975  13.588 -0.1989 -0.1205  0.4709
 4395TIP3   OH234599   5.934   2.918  10.526 -0.0371  0.1095 -0.3821
 4395TIP3    H134600   5.952   2.885  10.438  1.0223  0.7551 -0.4323
 4395TIP3    H234601   5.972   3.006  10.526 -0.0193  0.1113  0.7176
 4396TIP3   OH234602   2.043   4.962  14.873  0.7187  0.1571  0.0895
 4396TIP3    H134603   1.977   5.025  14.900 -1.8228 -1.5006 -1.7342
 4396TIP3    H234604   2.036   4.892  14.938  2.5459  1.0500  1.3159
 4397TIP3   OH234605   6.223   2.723  13.285  0.0598  0.2313 -0.1352
 4397TIP3    H134606   6.238   2.649  13.226 -0.4597  0.4095 -0.4993
 4397TIP3    H234607   6.172   2.687  13.357 -0.4550  0.2927 -0.4634
 4398TIP3   OH234608   3.084   4.366   4.347 -0.0982 -0.0211 -0.0144
 4398TIP3    H134609   3.161   4.329   4.390  0.0550  0.6194  0.2765
 4398TIP3    H234610   3.026   4.392   4.419  0.7732  2.3963 -0.0855
 4399TIP3   OH234611   1.792   2.657  14.828 -0.2693 -0.6338 -0.3142
 4399TIP3    H134612   1.720   2.605  14.793 -0.2909 -0.5526 -0.3904
 4399TIP3    H234613   1.781   2.651  14.923 -0.7307 -0.1212 -0.3340
 4400TIP3   OH234614   2.000   6.483   5.730 -0.5492 -0.6333 -0.4911
 4400TIP3    H134615   2.030   6.568   5.698  1.0535 -0.8683  0.2765
 4400TIP3    H234616   2.052   6.420   5.681 -0.0371 -1.0814  0.6037
 4401TIP3   OH234617   1.448   3.783  12.169  0.2090  0.3789  0.5772
 4401TIP3    H134618   1.537   3.761  12.142  0.4375  0.8827  0.8997
 4401TIP3    H234619   1.436   3.738  12.253  0.0083 -0.0346  0.3254
 4402TIP3   OH234620   6.789   5.034  15.826  0.0520  0.1948  0.5416
 4402TIP3    H134621   6.808   5.125  15.803  0.8545 -0.0876  0.0533
 4402TIP3    H234622   6.701   5.037  15.864 -0.2123  1.0744 -0.1010
 4403TIP3   OH234623   6.245   4.730   3.850  0.0621 -0.4267  0.3939
 4403TIP3    H134624   6.291   4.663   3.900 -0.3193 -0.8731  0.1532
 4403TIP3    H234625   6.157   4.732   3.889  0.3932  0.7246  1.1455
 4404TIP3   OH234626   4.300   0.015  14.337 -0.5933  0.2481 -0.4953
 4404TIP3    H134627   4.313  -0.023  14.424  1.5291 -1.2281 -1.3865
 4404TIP3    H234628   4.228   0.077  14.349 -1.9636 -1.6196  1.7814
 4405TIP3   OH234629   5.150   6.017   1.320 -0.7216  0.1789  0.0440
 4405TIP3    H134630   5.059   6.040   1.301 -0.1967  1.6431 -0.7793
 4405TIP3    H234631   5.196   6.030   1.238  0.5828  1.3192  0.9252
 4406TIP3   OH234632   1.713   2.812   0.890  0.0661 -0.0362  0.3726
 4406TIP3    H134633   1.686   2.881   0.830 -0.0918  0.8792  1.4649
 4406TIP3    H234634   1.735   2.858   0.971 -0.9312 -1.3442  1.4315
 4407TIP3   OH234635   2.858   2.400  12.452 -0.0657 -0.4555  0.0917
 4407TIP3    H134636   2.839   2.405  12.359  1.6887  1.6056 -0.2333
 4407TIP3    H234637   2.776   2.422  12.495 -0.3075  1.0164 -1.0436
 4408TIP3   OH234638   0.034   5.534  13.726  0.2390  0.3822  0.4810
 4408TIP3    H134639  -0.019   5.546  13.647 -1.6348 -0.7117  1.4918
 4408TIP3    H234640   0.113   5.586  13.710 -0.1656  0.3821 -1.9989
 4409TIP3   OH234641   4.093   3.910  16.096  0.1551  0.4453  0.1095
 4409TIP3    H134642   4.012   3.938  16.054 -0.2686  0.6148  1.0362
 4409TIP3    H234643   4.109   3.974  16.164  0.2557 -0.4304  0.9300
 4410TIP3   OH234644   1.764   5.489  12.248 -0.1404 -0.3162 -0.3756
 4410TIP3    H134645   1.723   5.435  12.316  0.0052  1.1689  0.9742
 4410TIP3    H234646   1.694   5.545  12.217  0.6717  2.1349  1.8378
 4411TIP3   OH234647   0.502   3.063  13.266 -0.3384 -0.2058  0.1913
 4411TIP3    H134648   0.438   3.132  13.285 -0.8971 -0.2126 -1.4933
 4411TIP3    H234649   0.560   3.063  13.342 -0.6600  1.7264  0.4943
 4412TIP3   OH234650   4.718   5.543   5.241 -0.4290  0.0160 -0.2958
 4412TIP3    H134651   4.745   5.629   5.271  1.5249 -0.3497 -0.8408
 4412TIP3    H234652   4.786   5.483   5.274 -1.8932 -1.3681  0.3328
 4413TIP3   OH234653   4.930   3.403  15.586 -0.3767 -0.4402  0.0220
 4413TIP3    H134654   4.898   3.473  15.642 -1.6438 -1.2374  0.3489
 4413TIP3    H234655   4.965   3.338  15.648  1.9828  0.4083 -0.3254
 4414TIP3   OH234656   4.539   4.121  12.634 -0.5573  0.1308 -0.3378
 4414TIP3    H134657   4.625   4.087  12.613 -0.1732  0.1109  1.1543
 4414TIP3    H234658   4.479   4.070  12.579  0.0689 -2.3829  1.1319
 4415TIP3   OH234659   0.443   6.466   3.641 -0.8445  0.0628 -0.1615
 4415TIP3    H134660   0.470   6.511   3.561  1.8220 -0.1635  0.5287
 4415TIP3    H234661   0.398   6.533   3.692 -0.9929  0.6829 -1.0704
 4416TIP3   OH234662   6.765   5.198  13.014 -0.0165  0.2230  0.1652
 4416TIP3    H134663   6.791   5.166  13.101  0.9712 -1.0864 -0.5778
 4416TIP3    H234664   6.682   5.155  12.997  0.1516 -0.1138  0.1675
 4417TIP3   OH234665   1.874   1.340  12.108  0.0037 -0.4538  0.1240
 4417TIP3    H134666   1.927   1.376  12.179  0.7240  0.4998 -0.8653
 4417TIP3    H234667   1.784   1.347  12.139  0.1913  1.2679  0.3855
 4418TIP3   OH234668   0.109   4.829   3.269  0.1738  0.2343 -0.5947
 4418TIP3    H134669   0.136   4.902   3.214 -0.6110  0.6145 -0.4917
 4418TIP3    H234670   0.123   4.751   3.215  2.6497  0.2723 -0.1023
 4419TIP3   OH234671   5.259   1.542  11.948  0.3122  0.8143  0.4363
 4419TIP3    H134672   5.248   1.479  11.878 -1.5377 -0.6254  1.8999
 4419TIP3    H234673   5.349   1.574  11.939  1.0836 -1.5089 -0.8017
 4420TIP3   OH234674   2.338   3.564   4.562  0.4044 -0.3160 -0.5371
 4420TIP3    H134675   2.369   3.650   4.535  0.0594 -0.1482 -0.4041
 4420TIP3    H234676   2.411   3.505   4.544  0.8380  0.0887 -0.1219
 4421TIP3   OH234677   4.799   6.571  12.691 -0.2286 -0.2088  0.5716
 4421TIP3    H134678   4.753   6.653  12.713  1.3678  0.5197  1.3166
 4421TIP3    H234679   4.880   6.574  12.742  0.2242 -1.9149  0.0217
 4422TIP3   OH234680   3.958   1.296   3.648  0.2490  0.3112  0.5513
 4422TIP3    H134681   3.949   1.388   3.674 -1.4346  0.4016 -0.2014
 4422TIP3    H234682   3.945   1.297   3.554  0.1347 -0.7146  0.5489
 4423TIP3   OH234683   2.082   4.874  12.150 -0.2735 -0.0492  0.0658
 4423TIP3    H134684   2.086   4.939  12.221  1.8682 -0.3336  0.2696
 4423TIP3    H234685   2.163   4.888  12.101  0.1658 -2.4403  0.0090
 4424TIP3   OH234686   4.759   1.849   5.022 -0.4921  0.5151 -0.2862
 4424TIP3    H134687   4.716   1.885   4.945  0.6324  2.2092 -0.1992
 4424TIP3    H234688   4.690   1.839   5.087 -1.1307  0.9404 -0.8948
 4425TIP3   OH234689   1.373   3.211   2.177  0.8279  0.0758 -0.2415
 4425TIP3    H134690   1.413   3.130   2.210 -0.5074 -1.0971 -1.3367
 4425TIP3    H234691   1.301   3.181   2.122 -0.0359  2.0491 -0.2762
 4426TIP3   OH234692   6.714   5.322  13.521 -0.1618  0.1996 -0.0432
 4426TIP3    H134693   6.659   5.280  13.455 -0.6153  0.6364  0.0443
 4426TIP3    H234694   6.767   5.385  13.472 -0.7344  0.7587  0.0411
 4427TIP3   OH234695   2.310   0.677  11.079 -0.2783  0.0113 -0.6615
 4427TIP3    H134696   2.341   0.677  10.988  0.6994  3.0841 -0.4498
 4427TIP3    H234697   2.338   0.592  11.114  1.1517 -0.4144 -2.6550
 4428TIP3   OH234698   0.968   0.312   3.770 -0.1922 -0.0791  0.1395
 4428TIP3    H134699   0.962   0.395   3.818  1.3394 -0.2615  0.7127
 4428TIP3    H234700   0.916   0.251   3.823 -0.2458  0.2108  0.4298
 4429TIP3   OH234701   0.336   4.519   2.627  0.2632 -0.6253 -0.5526
 4429TIP3    H134702   0.377   4.436   2.653  1.2004  0.8278  3.1388
 4429TIP3    H234703   0.285   4.546   2.703  0.3548  2.4394 -1.4396
 4430TIP3   OH234704   0.334   4.628   3.149  0.0519 -0.0908  0.1504
 4430TIP3    H134705   0.269   4.560   3.129  1.1374 -0.6697 -1.6795
 4430TIP3    H234706   0.415   4.595   3.110  1.7275  0.1874  3.0932
 4431TIP3   OH234707   5.421   1.976  14.018  0.3537  0.4656 -0.8119
 4431TIP3    H134708   5.456   2.051  13.970 -0.5416  2.6740  1.6986
 4431TIP3    H234709   5.374   2.015  14.092 -2.3949 -2.5205 -0.7663
 4432TIP3   OH234710   0.856   1.816   5.011  0.0672 -0.0320 -0.5337
 4432TIP3    H134711   0.863   1.836   5.104 -2.5755  0.2190 -0.3071
 4432TIP3    H234712   0.912   1.880   4.967  1.2461 -0.0795  0.8373
 4433TIP3   OH234713   2.730   4.873   6.006 -0.0963  0.0237  0.4578
 4433TIP3    H134714   2.817   4.868   6.047 -0.2507 -1.8986  0.6236
 4433TIP3    H234715   2.673   4.825   6.066 -0.9044 -0.3328 -0.5728
 4434TIP3   OH234716   6.086   3.280  12.227  0.0871  0.2471  0.0656
 4434TIP3    H134717   6.024   3.239  12.288 -0.4807  2.1785  0.8815
 4434TIP3    H234718   6.118   3.357  12.274  1.2402  0.6513 -1.3120
 4435TIP3   OH234719   0.830   4.262   2.436 -0.1387  0.8858  0.4354
 4435TIP3    H134720   0.894   4.214   2.383  1.2421 -0.1495  2.9017
 4435TIP3    H234721   0.747   4.219   2.418  0.5527 -0.4279  0.2597
 4436TIP3   OH234722   2.238   3.980  13.906 -0.3416 -0.6064 -1.2213
 4436TIP3    H134723   2.325   3.951  13.880  0.3946  0.5309 -0.1953
 4436TIP3    H234724   2.207   3.912  13.965  0.2724 -0.5828 -0.8533
 4437TIP3   OH234725   6.398   4.258   0.916  1.2083  0.3563  0.6921
 4437TIP3    H134726   6.344   4.282   0.840  0.3774 -2.1529  0.3828
 4437TIP3    H234727   6.350   4.293   0.991  0.8638  0.9467  0.2148
 4438TIP3   OH234728   3.872   1.822   4.324 -0.0083 -0.2312 -0.1379
 4438TIP3    H134729   3.946   1.820   4.384  0.9557 -1.5772 -1.3016
 4438TIP3    H234730   3.810   1.759   4.362  0.6830 -1.2295 -0.6055
 4439TIP3   OH234731   5.883   6.770   1.970  0.2606  0.1452 -0.0697
 4439TIP3    H134732   5.883   6.703   1.901 -0.1346  1.3228 -1.2738
 4439TIP3    H234733   5.975   6.795   1.980  0.0945  2.2049 -2.5421
 4440TIP3   OH234734   6.385   2.160  12.305 -0.8867 -0.1864 -0.1670
 4440TIP3    H134735   6.380   2.243  12.258 -0.2691  0.2478  0.5276
 4440TIP3    H234736   6.305   2.157  12.356 -1.8688 -0.9418 -1.6588
 4441TIP3   OH234737   2.453   3.617   6.481  0.4172  0.5453 -0.2129
 4441TIP3    H134738   2.434   3.705   6.448  1.4886  0.4827 -1.0700
 4441TIP3    H234739   2.539   3.596   6.444 -0.6731 -1.6745 -1.6762
 4442TIP3   OH234740   3.102   5.006   4.827 -0.2268 -0.0130 -0.0999
 4442TIP3    H134741   3.017   4.976   4.796 -0.3553  1.3327 -1.1357
 4442TIP3    H234742   3.160   4.995   4.752 -0.2056  1.8852 -0.4125
 4443TIP3   OH234743   5.799   0.186  15.739 -0.3101 -0.5602 -0.1881
 4443TIP3    H134744   5.707   0.205  15.721 -0.5733 -0.1771  1.4142
 4443TIP3    H234745   5.848   0.248  15.684 -1.0864  1.3785  1.1930
 4444TIP3   OH234746   4.256   6.803   3.108  0.7157 -0.1624  0.1681
 4444TIP3    H134747   4.179   6.856   3.130  0.5576 -0.5064  0.4557
 4444TIP3    H234748   4.309   6.804   3.188  2.0421  1.8095 -0.6777
 4445TIP3   OH234749   3.007   0.453  10.718  0.1677  0.0349  0.1503
 4445TIP3    H134750   3.053   0.529  10.685  1.6217 -0.8592  0.0286
 4445TIP3    H234751   2.921   0.455  10.674  0.7040  0.8451 -0.8861
 4446TIP3   OH234752   3.498   4.932   3.064  0.1897 -0.1654 -0.1779
 4446TIP3    H134753   3.569   4.889   3.110  0.2826 -1.8243 -1.7563
 4446TIP3    H234754   3.429   4.867   3.059 -1.3597  1.2963  1.0081
 4447TIP3   OH234755   1.939   3.761  12.058 -0.4222 -0.0356  0.3402
 4447TIP3    H134756   1.917   3.676  12.097 -1.1487 -0.2584 -0.5240
 4447TIP3    H234757   1.855   3.797  12.029 -0.0111  0.5620 -0.1391
 4448TIP3   OH234758   0.757   4.727   1.303 -0.4867  0.3087  0.3256
 4448TIP3    H134759   0.791   4.643   1.272 -0.0704  0.9651 -1.0576
 4448TIP3    H234760   0.822   4.792   1.273 -1.0484  1.1760  0.9467
 4449TIP3   OH234761   3.365   6.277  13.666  0.4078 -0.3793 -1.1802
 4449TIP3    H134762   3.275   6.259  13.641  0.2735  1.2309 -2.0376
 4449TIP3    H234763   3.369   6.373  13.674  1.8353 -0.4716 -0.3608
 4450TIP3   OH234764   2.596   2.680  16.244  0.5291 -0.0071 -0.0832
 4450TIP3    H134765   2.509   2.652  16.215  1.4716  0.4397 -3.8275
 4450TIP3    H234766   2.636   2.601  16.281 -0.6615 -0.7741 -0.3809
 4451TIP3   OH234767   5.807   2.880   2.703  0.3198  0.0077  0.1606
 4451TIP3    H134768   5.816   2.840   2.616  0.0209 -0.9615  0.5633
 4451TIP3    H234769   5.717   2.911   2.705 -0.1098 -1.2332  0.6340
 4452TIP3   OH234770   1.462   2.629   5.204  0.4562  0.0188  0.9426
 4452TIP3    H134771   1.508   2.612   5.121  0.3843 -1.6733  1.2138
 4452TIP3    H234772   1.393   2.563   5.207 -1.5892  2.0590  0.9048
 4453TIP3   OH234773   5.977   5.352   0.144  0.1013 -0.0014  0.1937
 4453TIP3    H134774   5.948   5.290   0.077  0.0786 -0.2287  0.4120
 4453TIP3    H234775   5.914   5.340   0.215  0.0431  0.3386  0.1987
 4454TIP3   OH234776   5.742   2.533   0.611  0.5046 -0.3105  0.0053
 4454TIP3    H134777   5.737   2.448   0.655 -1.0374 -1.1470 -1.6521
 4454TIP3    H234778   5.676   2.587   0.656  2.1279  0.4167  1.6897
 4455TIP3   OH234779   0.888   6.538   1.942 -0.8422 -0.0209 -0.0170
 4455TIP3    H134780   0.913   6.454   1.980  1.5301  0.2001 -0.9244
 4455TIP3    H234781   0.933   6.541   1.858 -0.2111  2.4607  0.3140
 4456TIP3   OH234782   6.558   4.379   5.361  0.6688 -0.6107 -0.0735
 4456TIP3    H134783   6.510   4.448   5.406 -0.1980 -2.1673  1.5148
 4456TIP3    H234784   6.506   4.361   5.283  0.3372 -0.2088  0.0504
 4457TIP3   OH234785   4.937   2.755  14.950  0.3581 -0.4695  0.4274
 4457TIP3    H134786   5.031   2.745  14.934  0.3011  1.4230 -1.5941
 4457TIP3    H234787   4.931   2.814  15.025  1.0065  3.0024 -1.9778
 4458TIP3   OH234788   5.571   0.278   2.025  0.2136 -0.1512  0.1230
 4458TIP3    H134789   5.585   0.372   2.037  1.5544 -0.2368 -0.5427
 4458TIP3    H234790   5.622   0.237   2.095 -1.1957 -0.3824  1.0503
 4459TIP3   OH234791   6.033   4.446  13.544  0.8610 -0.1540 -0.1398
 4459TIP3    H134792   5.972   4.481  13.480  1.3652 -0.6311 -0.8941
 4459TIP3    H234793   6.035   4.352  13.526  0.2117 -0.4700  1.2654
 4460TIP3   OH234794   2.475   2.558   3.430 -0.6186 -0.0937 -0.3395
 4460TIP3    H134795   2.540   2.618   3.394 -1.2166  0.6238 -0.2520
 4460TIP3    H234796   2.448   2.504   3.355  0.6830 -1.0019 -0.2028
 4461TIP3   OH234797   3.029   1.206   0.682  0.1084  0.0595 -0.5668
 4461TIP3    H134798   2.996   1.130   0.634  0.4662  0.1466 -0.9582
 4461TIP3    H234799   3.009   1.187   0.774 -1.1972  0.1933 -0.8077
 4462TIP3   OH234800   4.308   0.859   0.274  0.6293 -0.7205  0.3073
 4462TIP3    H134801   4.299   0.871   0.368  1.3402  0.1486  0.2725
 4462TIP3    H234802   4.393   0.817   0.263  1.6163  1.3059 -0.0859
 4463TIP3   OH234803   2.550   4.611  12.168  0.7855  0.1310 -0.2533
 4463TIP3    H134804   2.462   4.573  12.161  1.1632 -0.7905 -0.0899
 4463TIP3    H234805   2.538   4.688  12.223  0.1685 -0.2873  0.2101
 4464TIP3   OH234806   1.435   4.748  11.523  0.6282 -0.1633 -0.2040
 4464TIP3    H134807   1.363   4.792  11.567 -0.0526 -3.0931  1.9408
 4464TIP3    H234808   1.512   4.767  11.575  1.5007  2.6659 -2.2931
 4465TIP3   OH234809   2.110   0.678   2.522  0.2198  0.8571 -0.5491
 4465TIP3    H134810   2.135   0.736   2.450 -0.1305  2.6405  0.7188
 4465TIP3    H234811   2.188   0.670   2.576 -0.0757  1.1350 -0.0743
 4466TIP3   OH234812   4.699   5.656  14.973  0.2998  0.3589  0.4856
 4466TIP3    H134813   4.665   5.736  14.934 -2.1417 -0.7651  0.1203
 4466TIP3    H234814   4.633   5.630  15.038  1.1834 -1.1670  0.8352
 4467TIP3   OH234815   4.840   2.766   2.460  0.4662 -0.1030  0.2349
 4467TIP3    H134816   4.902   2.818   2.510  2.3541 -2.1231  0.1564
 4467TIP3    H234817   4.835   2.810   2.375  2.3007 -0.2098  0.0349
 4468TIP3   OH234818   3.125   1.986   2.257 -0.1109 -0.1243 -0.2212
 4468TIP3    H134819   3.097   1.943   2.176  0.9720 -1.3980  0.0483
 4468TIP3    H234820   3.043   2.004   2.304 -0.7838  1.1120 -1.7971
 4469TIP3   OH234821   3.584   5.396   4.526  0.2282  0.6632  0.2369
 4469TIP3    H134822   3.674   5.388   4.558  0.2222 -0.4432 -0.0110
 4469TIP3    H234823   3.592   5.451   4.448  0.8543 -0.3404 -0.4265
 4470TIP3   OH234824   6.381   6.268   5.920  0.4325 -0.5131  0.0960
 4470TIP3    H134825   6.396   6.336   5.986  0.9795  0.7902 -1.2935
 4470TIP3    H234826   6.305   6.298   5.871 -0.5655 -1.9581  0.7176
 4471TIP3   OH234827   3.794   0.796   5.216 -0.0208  0.3370 -0.2184
 4471TIP3    H134828   3.708   0.820   5.182 -0.8298  0.9348  2.1100
 4471TIP3    H234829   3.854   0.818   5.145 -1.6473  1.1207 -1.4178
 4472TIP3   OH234830   0.637   5.478   5.376  0.2454 -0.0271  0.3409
 4472TIP3    H134831   0.602   5.489   5.465  1.1726 -0.7925  0.8376
 4472TIP3    H234832   0.633   5.383   5.361 -0.8980  0.1991 -0.8779
 4473TIP3   OH234833   1.276   4.630   2.899 -0.4972 -0.0471  0.2360
 4473TIP3    H134834   1.228   4.552   2.928  0.7873 -0.7997  0.4685
 4473TIP3    H234835   1.213   4.680   2.849 -1.3066 -1.3797 -0.1387
 4474TIP3   OH234836   2.045   1.253   3.069  0.4432 -0.1342 -0.0584
 4474TIP3    H134837   2.083   1.175   3.028  0.8024  0.0072  0.0042
 4474TIP3    H234838   2.053   1.321   3.003  1.4306  0.2079  0.3943
 4475TIP3   OH234839   1.987   3.897  14.536 -0.2975 -0.3647 -0.2306
 4475TIP3    H134840   1.926   3.876  14.465 -1.7282 -1.0066  1.0984
 4475TIP3    H234841   1.986   3.992  14.541  0.0869 -0.2963 -1.2776
 4476TIP3   OH234842   5.782   2.615   3.293 -0.0746 -0.1779 -0.0550
 4476TIP3    H134843   5.710   2.635   3.352 -0.8561 -0.9675 -0.7245
 4476TIP3    H234844   5.757   2.654   3.210  0.3061 -0.4040 -0.2778
 4477TIP3   OH234845   6.447   4.377   2.232 -0.7039 -0.7396  0.0609
 4477TIP3    H134846   6.400   4.302   2.270  1.1513 -2.1528 -0.2580
 4477TIP3    H234847   6.501   4.338   2.163 -0.5586  1.1091 -0.9138
 4478TIP3   OH234848   2.360   3.650   5.050 -0.3731 -0.1081  0.1329
 4478TIP3    H134849   2.313   3.624   4.970 -0.7510 -1.1973  0.6874
 4478TIP3    H234850   2.364   3.570   5.102  2.0624 -0.0561  0.1388
 4479TIP3   OH234851   5.873   3.657   0.564 -0.0784 -0.0069  0.4318
 4479TIP3    H134852   5.822   3.734   0.585  0.9029  0.9577 -0.6031
 4479TIP3    H234853   5.942   3.688   0.506  0.0256 -1.7557 -0.4684
 4480TIP3   OH234854   6.036   3.466   2.452 -0.3848 -0.3680 -0.0412
 4480TIP3    H134855   6.045   3.491   2.544  1.3040 -1.4211  0.1344
 4480TIP3    H234856   5.998   3.542   2.409 -1.3558  0.0782  1.5544
 4481TIP3   OH234857   2.675   3.753   3.411  0.0422 -0.1048 -0.1863
 4481TIP3    H134858   2.691   3.819   3.343 -0.7489  1.2048  0.8498
 4481TIP3    H234859   2.706   3.795   3.492 -3.3887  0.3743  1.0310
 4482TIP3   OH234860   2.873   6.167   5.631 -0.4335 -0.3132  0.1373
 4482TIP3    H134861   2.929   6.163   5.709 -1.1334 -0.7578  0.6292
 4482TIP3    H234862   2.851   6.260   5.623 -0.9556 -0.3624  0.9102
 4483TIP3   OH234863   1.633   6.717   5.519  0.6086 -0.0570  0.7318
 4483TIP3    H134864   1.674   6.635   5.492  0.5289 -0.5949  2.1408
 4483TIP3    H234865   1.624   6.709   5.614  0.3034  1.4568  0.8562
 4484TIP3   OH234866   0.084   4.168   6.478  0.0039 -0.1873  0.1815
 4484TIP3    H134867   0.094   4.172   6.574  0.6254  1.9602  0.0773
 4484TIP3    H234868  -0.007   4.194   6.463  0.8376  3.2509  0.1181
 4485TIP3   OH234869   3.184   2.885   0.001  0.5515 -0.4377 -0.2387
 4485TIP3    H134870   3.242   2.873   0.076 -1.4850  0.2821  1.5501
 4485TIP3    H234871   3.188   2.801  -0.046  2.0545 -0.8082  0.4855
 4486TIP3   OH234872   2.479   0.406   1.045  0.5412 -1.3323  0.5926
 4486TIP3    H134873   2.564   0.430   1.081 -0.0983 -0.4254  1.5502
 4486TIP3    H234874   2.477   0.310   1.050 -0.1962 -1.2692  4.8137
 4487TIP3   OH234875   0.095   5.145  14.099  0.3409 -0.2205 -0.2014
 4487TIP3    H134876   0.012   5.130  14.143  1.0399  0.2341  1.3577
 4487TIP3    H234877   0.145   5.199  14.161  1.7382 -0.3699 -1.1580
 4488TIP3   OH234878   5.936   4.554  16.835  0.0105  0.3187  0.4395
 4488TIP3    H134879   5.890   4.484  16.789 -0.1223  0.4074  0.4378
 4488TIP3    H234880   6.012   4.573  16.780  0.0737  0.1415  0.4658
 4489TIP3   OH234881   3.259   2.542   0.228  0.2565  0.1116  0.1305
 4489TIP3    H134882   3.297   2.602   0.292  1.6973  0.9337 -1.4380
 4489TIP3    H234883   3.167   2.535   0.254  0.6891  0.7264  2.0266
 4490TIP3   OH234884   2.433   1.333  15.381  0.0998  0.0968 -0.3842
 4490TIP3    H134885   2.519   1.371  15.359 -0.6534  1.3642 -1.2760
 4490TIP3    H234886   2.370   1.401  15.356 -1.2112 -1.1029 -0.4420
 4491TIP3   OH234887   2.457   1.032  11.889  0.5212 -0.1963 -1.2086
 4491TIP3    H134888   2.457   0.943  11.854  1.3691 -0.7652  0.1616
 4491TIP3    H234889   2.431   1.022  11.980 -0.9317  1.1671 -1.4264
 4492TIP3   OH234890   0.918   6.248   1.626 -0.0015 -0.0150 -0.6629
 4492TIP3    H134891   0.992   6.239   1.566 -1.6329 -1.5047 -2.5774
 4492TIP3    H234892   0.925   6.173   1.685 -0.0687 -0.2432 -0.9455
 4493TIP3   OH234893   4.550   4.863   0.022  0.3623  0.9820  0.9516
 4493TIP3    H134894   4.488   4.791   0.005  1.7348 -0.4704  1.7856
 4493TIP3    H234895   4.498   4.929   0.066 -1.0938  0.8001 -0.3963
 4494TIP3   OH234896   0.351   3.878  14.359  0.3192  0.0594  0.7989
 4494TIP3    H134897   0.287   3.830  14.306 -0.3497  0.8928  0.8334
 4494TIP3    H234898   0.378   3.951  14.303  0.8039  0.0393  1.0086
 4495TIP3   OH234899   1.707   5.828   4.978 -0.2846 -0.7492  0.2139
 4495TIP3    H134900   1.697   5.767   5.052 -2.7478 -0.1159  0.5008
 4495TIP3    H234901   1.646   5.795   4.912 -0.3497  0.4062 -0.3243
 4496TIP3   OH234902   3.276   4.806  16.469  0.1959 -0.1195  0.3512
 4496TIP3    H134903   3.342   4.738  16.459 -0.3612 -0.6311  0.0996
 4496TIP3    H234904   3.258   4.835  16.380  1.4914  1.4077  0.5405
 4497TIP3   OH234905   1.126   4.658   2.593  0.3311  0.2373  0.0275
 4497TIP3    H134906   1.182   4.714   2.539 -1.2376  2.1255  0.2500
 4497TIP3    H234907   1.041   4.659   2.550 -0.3405 -0.1319  1.2799
 4498TIP3   OH234908   0.828   5.854   2.291  0.3839  0.0955 -0.4333
 4498TIP3    H134909   0.769   5.921   2.327  0.8887  0.5437 -0.4166
 4498TIP3    H234910   0.916   5.893   2.300  0.9248 -1.3888  1.5076
 4499TIP3   OH234911   1.196   5.136   0.575  0.0742  0.0749  0.0308
 4499TIP3    H134912   1.124   5.095   0.529  0.0176 -0.9259  0.9494
 4499TIP3    H234913   1.237   5.064   0.624  2.5478  0.3220 -1.5208
 4500TIP3   OH234914   2.195   2.252   2.176 -0.1791  0.3914 -0.0418
 4500TIP3    H134915   2.192   2.214   2.263  0.2145 -0.4418 -0.3803
 4500TIP3    H234916   2.241   2.335   2.187 -0.3447  0.4022  0.5757
 4501TIP3   OH234917   6.188   6.571  12.346  0.6472  0.5966  0.2516
 4501TIP3    H134918   6.193   6.602  12.436  2.1470 -0.3296  0.5275
 4501TIP3    H234919   6.215   6.479  12.350 -0.4721  0.1697 -0.9831
 4502TIP3   OH234920   2.974   1.675  10.571  0.1601 -0.4476 -0.1550
 4502TIP3    H134921   3.052   1.642  10.615  1.8253  3.1367 -0.0286
 4502TIP3    H234922   2.982   1.643  10.481  2.3124  0.4528 -0.3536
 4503TIP3   OH234923   1.480   0.471   1.902  0.2561  0.0276 -0.1040
 4503TIP3    H134924   1.475   0.523   1.982  0.1407  0.8421 -0.6171
 4503TIP3    H234925   1.391   0.473   1.867  0.1748 -0.8043  0.0280
 4504TIP3   OH234926   3.781   4.473   5.434 -0.1244  0.3724 -0.3902
 4504TIP3    H134927   3.743   4.546   5.386 -2.3547  0.1135  0.8256
 4504TIP3    H234928   3.777   4.500   5.526 -0.2865 -0.9515  0.0168
 4505TIP3   OH234929   2.980   6.015  16.061 -0.2428  0.0575  0.1210
 4505TIP3    H134930   2.954   5.990  16.149 -0.3840  0.7832  0.2954
 4505TIP3    H234931   2.911   5.982  16.004  0.5542 -1.6717  0.1046
 4506TIP3   OH234932   5.370   4.797   1.269 -0.1909  0.1920 -0.0923
 4506TIP3    H134933   5.301   4.732   1.277  0.7656 -0.7517  0.8908
 4506TIP3    H234934   5.450   4.752   1.297  0.4555  1.8797  0.9786
 4507TIP3   OH234935   5.896   0.541   3.559 -0.1244  1.0231  0.3015
 4507TIP3    H134936   5.915   0.526   3.466 -1.6743  2.1301 -0.2331
 4507TIP3    H234937   5.968   0.597   3.589  1.0468 -0.3179  0.1239
 4508TIP3   OH234938   0.859   3.674   4.430 -0.1329 -0.4627 -0.1596
 4508TIP3    H134939   0.800   3.604   4.455  0.8797 -1.6182 -0.8895
 4508TIP3    H234940   0.859   3.673   4.334  0.2090  0.2736 -0.1780
 4509TIP3   OH234941   4.168   1.995  11.343  0.3800 -0.2761  0.2112
 4509TIP3    H134942   4.218   2.077  11.343 -0.5328  0.2966  0.1782
 4509TIP3    H234943   4.087   2.017  11.297 -1.2699 -0.3194  2.8825
 4510TIP3   OH234944   3.684   2.337  13.618 -0.3161 -0.6781  0.2099
 4510TIP3    H134945   3.647   2.250  13.632 -0.7500 -0.2283  2.2626
 4510TIP3    H234946   3.607   2.393  13.604 -0.3352 -0.1255  2.1933
 4511TIP3   OH234947   1.585   1.612   1.564  0.1263 -0.2510  0.2145
 4511TIP3    H134948   1.567   1.633   1.472  0.5871  0.8702  0.3589
 4511TIP3    H234949   1.511   1.647   1.612  1.4299  2.2327  0.5728
 4512TIP3   OH234950   0.460   2.763   2.671  0.0269 -0.1574 -0.6685
 4512TIP3    H134951   0.486   2.728   2.756 -0.8932 -0.0876 -0.3465
 4512TIP3    H234952   0.365   2.754   2.670  0.0214 -0.0543 -1.6466
 4513TIP3   OH234953   2.698   5.165   2.527  0.2642 -0.6862  0.0213
 4513TIP3    H134954   2.630   5.113   2.572  0.5882 -2.0623 -1.0176
 4513TIP3    H234955   2.648   5.227   2.473 -0.1305  0.6341  1.7956
 4514TIP3   OH234956   2.542   1.737   4.188  0.3961  0.1320 -0.4233
 4514TIP3    H134957   2.536   1.652   4.232  3.0600  0.4386  0.7365
 4514TIP3    H234958   2.606   1.723   4.118 -1.2919  0.5315 -2.1571
 4515TIP3   OH234959   3.323   2.492   5.751 -0.1437  0.2541  0.3014
 4515TIP3    H134960   3.283   2.431   5.811  1.0396 -0.2413  0.6132
 4515TIP3    H234961   3.266   2.569   5.753 -1.6310 -0.8054 -0.0795
 4516TIP3   OH234962   2.761   0.810  16.787  0.8529  0.1356 -0.5499
 4516TIP3    H134963   2.822   0.842  16.720  1.6073 -0.0852  0.0123
 4516TIP3    H234964   2.705   0.747  16.741 -0.0686  1.5701 -1.4656
 4517TIP3   OH234965   1.899   6.054   0.222 -0.2167 -0.1198  0.2704
 4517TIP3    H134966   1.818   6.003   0.227  0.8259 -1.8788  0.2076
 4517TIP3    H234967   1.965   5.999   0.265  1.4412  0.1935 -1.6813
 4518TIP3   OH234968   5.220   3.651   1.544 -0.0147  0.1188 -0.0658
 4518TIP3    H134969   5.306   3.669   1.581 -0.4752  0.7525  0.7304
 4518TIP3    H234970   5.204   3.559   1.563  0.4877 -0.0034 -0.2252
 4519TIP3   OH234971   6.648   4.755  11.555  0.1415  0.1159  0.5880
 4519TIP3    H134972   6.703   4.703  11.614  0.9473 -0.8260 -0.9083
 4519TIP3    H234973   6.560   4.747  11.591  0.4909 -1.0514  1.2512
 4520TIP3   OH234974   6.781   4.820  12.579 -0.3533 -0.6473  0.3990
 4520TIP3    H134975   6.843   4.766  12.628  0.2823  0.8684  1.3203
 4520TIP3    H234976   6.710   4.838  12.641 -1.2298 -1.5258 -0.3294
 4521TIP3   OH234977   6.765   3.968  14.052  0.1032 -0.2547  0.5751
 4521TIP3    H134978   6.671   3.977  14.040  0.1538 -0.0243  0.3199
 4521TIP3    H234979   6.801   3.979  13.964  0.3815 -0.1267  0.7020
 4522TIP3   OH234980   1.476   1.417   2.059  0.1428 -0.0757 -0.6559
 4522TIP3    H134981   1.559   1.371   2.053  0.1653  0.0496 -1.5667
 4522TIP3    H234982   1.446   1.423   1.968 -0.9496 -0.2874 -0.3256
 4523TIP3   OH234983   4.540   3.048  11.104 -0.4003  0.3580  0.1992
 4523TIP3    H134984   4.571   3.111  11.168  1.3036 -0.7734  0.5387
 4523TIP3    H234985   4.619   3.010  11.067 -1.3452 -2.0460  0.4819
 4524TIP3   OH234986   1.704   2.254  11.470  0.5122 -0.0664 -0.0067
 4524TIP3    H134987   1.639   2.192  11.436 -0.7425  2.1138 -1.8066
 4524TIP3    H234988   1.704   2.326  11.408  2.1201  1.6521  1.8377
 4525TIP3   OH234989   0.354   5.079   2.687 -0.1010 -0.2017 -0.4916
 4525TIP3    H134990   0.271   5.095   2.642 -0.1023 -0.6907 -0.6726
 4525TIP3    H234991   0.398   5.164   2.688 -0.3524 -0.0644 -0.9107
 4526TIP3   OH234992   6.785   0.404  11.165  0.1689 -0.4271 -0.4640
 4526TIP3    H134993   6.735   0.340  11.115 -0.9078  0.4967 -0.5950
 4526TIP3    H234994   6.722   0.472  11.187  1.3291  0.6980 -0.5079
 4527TIP3   OH234995   6.556   3.924  12.838  0.1543  0.2113  0.4155
 4527TIP3    H134996   6.505   3.892  12.764  0.1226 -0.8591  0.8742
 4527TIP3    H234997   6.604   3.847  12.868  0.2311  0.6505  1.4485
 4528TIP3   OH234998   4.991   4.503  16.038 -0.8254 -0.1100 -0.0867
 4528TIP3    H134999   5.010   4.596  16.034 -0.7862 -0.1509 -2.2967
 4528TIP3    H235000   5.077   4.460  16.026 -0.9584 -0.4246  0.0599
 4529TIP3   OH235001   4.863   2.682  12.430 -0.0989 -0.1040 -1.0984
 4529TIP3    H135002   4.863   2.654  12.521  0.3527  1.0618 -0.7188
 4529TIP3    H235003   4.777   2.722  12.418  0.2080  0.6414 -0.8782
 4530TIP3   OH235004   6.641   1.584   2.886  0.0410  0.2189  0.4175
 4530TIP3    H135005   6.626   1.577   2.792  0.5091 -0.7297  0.3995
 4530TIP3    H235006   6.590   1.660   2.913  0.3299  0.8234 -0.6897
 4531TIP3   OH235007   2.594   4.788   1.778 -0.5910 -0.7676 -0.2151
 4531TIP3    H135008   2.593   4.875   1.737 -0.8938 -0.5433  0.2603
 4531TIP3    H235009   2.594   4.805   1.872 -0.5074 -1.2824 -0.1174
 4532TIP3   OH235010   2.979   1.804   2.676 -0.2851 -0.5100 -0.4382
 4532TIP3    H135011   2.994   1.874   2.613  0.6273  0.5033  0.8420
 4532TIP3    H235012   2.890   1.773   2.657 -2.0567  3.1918  0.9232
 4533TIP3   OH235013   0.165   2.310  16.614  0.2977 -0.2736  0.3805
 4533TIP3    H135014   0.118   2.285  16.694  0.9198 -1.2369  0.4534
 4533TIP3    H235015   0.180   2.227  16.568 -1.1217  0.3739 -1.3492
 4534TIP3   OH235016   3.612   4.182   1.838 -0.0098  0.0643  0.4529
 4534TIP3    H135017   3.676   4.150   1.902 -1.4752  0.2755  2.1001
 4534TIP3    H235018   3.589   4.105   1.787  0.4998 -0.3186  0.7875
 4535TIP3   OH235019   3.869   4.594   4.642 -0.1209 -0.2621  0.0922
 4535TIP3    H135020   3.787   4.593   4.593  0.0728 -1.2766 -0.2259
 4535TIP3    H235021   3.925   4.530   4.598  1.0849  0.8793 -0.0845
 4536TIP3   OH235022   2.323   4.080  13.572  0.3772 -0.3111 -0.4934
 4536TIP3    H135023   2.252   4.021  13.598 -0.3673  0.0745 -1.5855
 4536TIP3    H235024   2.281   4.165  13.559  1.3938  0.4203  0.7958
 4537TIP3   OH235025   2.077   2.419   5.498 -0.1721  0.7151  0.4053
 4537TIP3    H135026   2.123   2.399   5.580 -0.4620  0.8622  0.6091
 4537TIP3    H235027   2.017   2.491   5.522  0.3001  1.2914 -0.1280
 4538TIP3   OH235028   4.994   2.350  12.142  0.5351  0.4114 -0.3215
 4538TIP3    H135029   4.959   2.439  12.149  2.1962  0.9818  1.3378
 4538TIP3    H235030   4.923   2.294  12.174  0.4400  1.3887  1.2720
 4539TIP3   OH235031   3.555   3.173  14.263 -0.1926  0.0543 -0.1935
 4539TIP3    H135032   3.468   3.197  14.232  0.1950  1.2088 -0.4556
 4539TIP3    H235033   3.540   3.104  14.327 -1.3508  0.5653  0.1068
 4540TIP3   OH235034   3.266   2.775  13.779  0.1275  1.0239  0.4534
 4540TIP3    H135035   3.201   2.718  13.738 -2.0775  1.6536  2.8123
 4540TIP3    H235036   3.215   2.834  13.835  2.4887  3.8758 -0.1546
 4541TIP3   OH235037   2.393   0.396   1.701  0.3322  0.2789  0.5801
 4541TIP3    H135038   2.396   0.324   1.638 -1.0122  0.0053  0.8073
 4541TIP3    H235039   2.477   0.390   1.747 -0.1885 -1.9001  1.3891
 4542TIP3   OH235040   5.823   1.628   4.344  0.3963  0.2733 -0.2276
 4542TIP3    H135041   5.813   1.701   4.283  0.4605  1.0034  0.6265
 4542TIP3    H235042   5.737   1.585   4.344  0.1456  0.7736 -0.1888
 4543TIP3   OH235043   3.779   5.941  11.442  0.6988  0.2831  0.5368
 4543TIP3    H135044   3.861   5.988  11.426  0.8830 -0.4368 -0.6808
 4543TIP3    H235045   3.778   5.927  11.537  1.6319  0.9185  0.6554
 4544TIP3   OH235046   4.113   3.883  14.988 -0.4684  0.1387 -0.6140
 4544TIP3    H135047   4.045   3.949  14.975 -0.9061 -0.1712  0.0299
 4544TIP3    H235048   4.121   3.876  15.083  0.2410 -0.0663 -0.6818
 4545TIP3   OH235049   2.645   3.035   3.875 -0.6581  0.2563  0.0150
 4545TIP3    H135050   2.608   2.958   3.831 -0.7957  0.5783 -0.4374
 4545TIP3    H235051   2.570   3.092   3.892 -0.2725  1.3822 -1.8437
 4546TIP3   OH235052   3.953   4.076  16.452 -0.4144  0.6753  0.3840
 4546TIP3    H135053   3.922   4.096  16.540  0.7535 -0.0363  0.9939
 4546TIP3    H235054   3.920   3.988  16.435 -0.4676  0.7323  0.1909
 4547TIP3   OH235055   3.414   1.702   4.696 -0.6137 -0.1457 -0.7451
 4547TIP3    H135056   3.501   1.741   4.689  0.0714 -1.1785  1.0289
 4547TIP3    H235057   3.362   1.746   4.630  0.9652  1.3128 -1.0959
 4548TIP3   OH235058   2.659   5.944  14.695 -0.4129  0.1285  0.1119
 4548TIP3    H135059   2.609   5.890  14.756 -0.4857 -1.6937 -1.4671
 4548TIP3    H235060   2.596   6.008  14.663 -2.0258 -2.2979 -2.0587
 4549TIP3   OH235061   3.627   5.886  13.873  0.1913  0.1154  0.2034
 4549TIP3    H135062   3.563   5.911  13.940  0.8282  0.4868  0.6789
 4549TIP3    H235063   3.672   5.967  13.851 -1.3493  0.4200 -2.1618
 4550TIP3   OH235064   4.832   6.795  10.714 -0.4134  0.0183 -0.4109
 4550TIP3    H135065   4.814   6.889  10.713 -0.9548 -0.0749 -0.1861
 4550TIP3    H235066   4.846   6.774  10.806 -1.0618 -0.2486 -0.3630
 4551TIP3   OH235067   4.129   0.916   1.516 -0.1672  0.4007  0.3571
 4551TIP3    H135068   4.082   0.837   1.490 -0.4675  0.4454  0.7539
 4551TIP3    H235069   4.156   0.956   1.434 -1.7436  0.9334  0.0567
 4552TIP3   OH235070   6.804   6.181   4.527 -0.1274  1.0529 -0.1497
 4552TIP3    H135071   6.858   6.200   4.450 -0.4588  1.7513 -0.2183
 4552TIP3    H235072   6.809   6.260   4.580  0.4176  0.4324  0.7522
 4553TIP3   OH235073   1.805   2.476  15.756  0.0194  0.3218  0.4607
 4553TIP3    H135074   1.737   2.409  15.751 -0.5508  0.9834 -1.7509
 4553TIP3    H235075   1.885   2.431  15.731 -0.4033  0.4710 -1.2626
 4554TIP3   OH235076   6.430   0.103  12.382 -0.2175  0.1300  0.0105
 4554TIP3    H135077   6.515   0.142  12.401  0.1935 -0.7728  0.0945
 4554TIP3    H235078   6.451   0.013  12.357 -1.0709  0.1743 -0.9246
 4555TIP3   OH235079   4.521   2.567  15.183  0.0660 -0.2866  0.1596
 4555TIP3    H135080   4.465   2.616  15.123  0.3643  0.1421  0.2299
 4555TIP3    H235081   4.464   2.545  15.257 -0.2557 -0.6628 -0.1956
 4556TIP3   OH235082   5.622   1.613   0.112  0.2643  0.4675  0.5444
 4556TIP3    H135083   5.537   1.594   0.152 -0.5313  0.8675 -0.8859
 4556TIP3    H235084   5.672   1.532   0.122  0.1442  0.5761  2.3863
 4557TIP3   OH235085   2.886   2.678   5.474 -0.5269 -0.0318 -0.1787
 4557TIP3    H135086   2.976   2.647   5.483  0.0930  1.8499  0.5038
 4557TIP3    H235087   2.839   2.636   5.546 -0.3634 -1.4882 -0.8842
 4558TIP3   OH235088   1.364   2.062   4.364 -0.3592  0.0878  0.4860
 4558TIP3    H135089   1.440   2.081   4.420  0.8272  0.3401 -1.1604
 4558TIP3    H235090   1.320   1.989   4.408  0.0622  0.7925  2.1689
 4559TIP3   OH235091   4.881   0.038  12.113  0.0586 -0.2463  0.3453
 4559TIP3    H135092   4.805  -0.018  12.128  0.7634 -0.6954  2.6611
 4559TIP3    H235093   4.858   0.122  12.153  0.7834 -0.3993  1.1076
 4560TIP3   OH235094   3.261   1.853   0.764 -0.1369  0.9976 -0.2214
 4560TIP3    H135095   3.212   1.833   0.685  1.3292  0.2338 -0.9778
 4560TIP3    H235096   3.216   1.929   0.802 -1.3062  0.9071 -1.3645
 4561TIP3   OH235097   1.351   3.332  11.680  0.1218  0.0999  0.1606
 4561TIP3    H135098   1.337   3.426  11.691  0.6161  0.1413  0.4528
 4561TIP3    H235099   1.446   3.321  11.684 -0.0217 -0.7598  2.8613
 4562TIP3   OH235100   0.180   4.356  16.605 -0.1040  0.0622  0.4329
 4562TIP3    H135101   0.135   4.288  16.655  0.0241  0.5827  1.2720
 4562TIP3    H235102   0.115   4.426  16.596 -1.0164 -0.9876 -2.3361
 4563TIP3   OH235103   4.857   1.670  14.630 -0.1268  0.4714 -0.4176
 4563TIP3    H135104   4.832   1.636  14.716 -0.8508  1.8660 -0.0471
 4563TIP3    H235105   4.941   1.628  14.612  1.4867  2.1977  2.2808
 4564TIP3   OH235106   3.652   1.969   3.663 -0.4350  0.0561  0.1442
 4564TIP3    H135107   3.735   1.930   3.636 -0.5606  0.4573 -0.8899
 4564TIP3    H235108   3.677   2.039   3.723 -0.1923 -1.3955  1.8124
 4565TIP3   OH235109   2.930   0.184  13.440  0.1210  0.5080  0.2342
 4565TIP3    H135110   2.868   0.164  13.370  0.7524  0.4097 -0.3076
 4565TIP3    H235111   2.956   0.275  13.424 -1.7695  1.4192  1.9423
 4566TIP3   OH235112   5.739   3.158   4.061 -0.2826  0.0774  0.0097
 4566TIP3    H135113   5.656   3.186   4.098 -0.0056  1.0725 -0.0862
 4566TIP3    H235114   5.773   3.236   4.017  1.1925  0.0059  0.9422
 4567TIP3   OH235115   3.182   0.516   1.532  0.6460 -0.6726 -0.2079
 4567TIP3    H135116   3.234   0.449   1.576  1.4384  0.1296  0.1094
 4567TIP3    H235117   3.233   0.539   1.454  2.2235  2.0648  1.4812
 4568TIP3   OH235118   2.755   5.638  11.921 -0.1606  0.2765  0.6173
 4568TIP3    H135119   2.791   5.562  11.967  0.9683  0.8297  0.6904
 4568TIP3    H235120   2.831   5.695  11.907 -0.7468  0.7757 -0.6486
 4569TIP3   OH235121   6.023   0.410  16.137 -0.4615  0.0128  0.0131
 4569TIP3    H135122   5.991   0.452  16.057  1.2613  0.1543 -0.6458
 4569TIP3    H235123   5.944   0.389  16.187 -1.4819  1.6545 -0.8414
 4570TIP3   OH235124   2.784   4.316   0.362  0.3418  0.6994  0.8125
 4570TIP3    H135125   2.750   4.268   0.437 -0.9261  0.7292  0.2796
 4570TIP3    H235126   2.869   4.276   0.344 -0.0930 -0.4269  1.2112
 4571TIP3   OH235127   5.202   1.581  12.527  0.1328  0.2305 -0.3444
 4571TIP3    H135128   5.267   1.651  12.537  1.5418 -1.3183  2.7766
 4571TIP3    H235129   5.178   1.583  12.435  2.6981  2.5430 -1.0942
 4572TIP3   OH235130   0.221   4.020   3.219 -0.7024 -0.4974 -0.1110
 4572TIP3    H135131   0.316   4.015   3.222 -0.6163 -0.8126 -1.9977
 4572TIP3    H235132   0.196   4.052   3.305  1.1295 -0.0191  0.2887
 4573TIP3   OH235133   3.412   4.303   1.067 -0.0044  0.5640 -0.3032
 4573TIP3    H135134   3.481   4.369   1.076  0.2748  0.2955 -0.4630
 4573TIP3    H235135   3.410   4.258   1.151 -1.0802  1.6251  0.2664
 4574TIP3   OH235136   6.588   3.325   0.924 -0.5699 -0.0907  0.1273
 4574TIP3    H135137   6.598   3.276   1.006  1.0915 -1.6226 -0.8930
 4574TIP3    H235138   6.532   3.399   0.946 -1.5905 -1.3926  2.2335
 4575TIP3   OH235139   3.984   5.055  16.601 -0.0233 -0.3169 -0.0281
 4575TIP3    H135140   3.957   4.977  16.552  0.2449 -1.5842  1.7239
 4575TIP3    H235141   4.079   5.046  16.610 -0.0508 -0.0498  0.5960
 4576TIP3   OH235142   1.229   0.457  13.060 -0.1906 -0.0679  0.1596
 4576TIP3    H135143   1.296   0.447  12.992 -0.9841  1.1915 -0.8564
 4576TIP3    H235144   1.272   0.428  13.140  1.9461  1.6933 -0.2515
 4577TIP3   OH235145   0.472   2.143  16.010 -0.3196 -0.1655  0.2146
 4577TIP3    H135146   0.456   2.186  16.094 -1.3405 -1.1027  0.5164
 4577TIP3    H235147   0.551   2.091  16.025 -0.6102 -0.4857  0.6695
 4578TIP3   OH235148   4.710   2.072   2.427 -0.2559  0.7452 -0.1067
 4578TIP3    H135149   4.734   2.071   2.520 -1.3437 -0.5412  0.1875
 4578TIP3    H235150   4.771   2.134   2.387  1.2512  0.1748  1.1997
 4579TIP3   OH235151   4.654   5.040  14.197 -0.3840 -0.6187 -0.0230
 4579TIP3    H135152   4.621   5.093  14.125 -0.2497  0.9018  1.0001
 4579TIP3    H235153   4.577   5.026  14.253 -0.6359 -2.3322 -0.7260
 4580TIP3   OH235154   5.107   0.568   1.060  0.1569  0.4614  0.8258
 4580TIP3    H135155   5.104   0.581   1.155 -0.3444 -0.2563  0.9130
 4580TIP3    H235156   5.123   0.474   1.049  1.9765  0.8003  0.2127
 4581TIP3   OH235157   0.532   5.912   4.893 -0.4419 -0.0655 -0.3588
 4581TIP3    H135158   0.508   6.004   4.906  0.3756  0.1408 -0.2486
 4581TIP3    H235159   0.614   5.915   4.843  0.7011 -0.6555  1.3599
 4582TIP3   OH235160   1.654   2.104  13.666  0.3160 -0.1830  0.1808
 4582TIP3    H135161   1.714   2.034  13.691  1.8890  0.8099 -0.6199
 4582TIP3    H235162   1.578   2.093  13.723 -0.0437 -3.2324 -0.6953
 4583TIP3   OH235163   5.081   4.725  12.804  0.1076  0.6467  0.6385
 4583TIP3    H135164   4.993   4.699  12.774  0.4888 -0.1967  0.2254
 4583TIP3    H235165   5.141   4.670  12.754  0.7958 -0.4245  2.5389
 4584TIP3   OH235166   6.337   5.558  11.184  0.5514  0.3532 -0.1015
 4584TIP3    H135167   6.302   5.609  11.257 -1.8106  0.4215 -1.1923
 4584TIP3    H235168   6.428   5.542  11.208  0.0624  0.9527  2.5274
 4585TIP3   OH235169   2.071   6.350  12.333  0.3089  1.0806 -0.1318
 4585TIP3    H135170   2.099   6.267  12.294  1.4727  0.7038  1.3870
 4585TIP3    H235171   1.988   6.330  12.376  0.8133  0.5555  0.6223
 4586TIP3   OH235172   1.216   3.289  16.510 -0.4017  0.2458  0.5374
 4586TIP3    H135173   1.255   3.371  16.540  0.0576 -0.0293  0.7137
 4586TIP3    H235174   1.200   3.239  16.590  2.6080 -1.2938  0.3392
 4587TIP3   OH235175   2.223   4.838  11.679 -0.3696  0.7068 -0.0716
 4587TIP3    H135176   2.163   4.802  11.613 -0.6414  2.1221 -0.6338
 4587TIP3    H235177   2.205   4.786  11.758  0.1123 -1.1716 -1.1357
 4588TIP3   OH235178   0.621   2.246   0.970 -0.0186 -0.0110  0.4421
 4588TIP3    H135179   0.600   2.336   0.946 -2.1791 -0.5571  0.1066
 4588TIP3    H235180   0.680   2.216   0.901 -0.6227  0.6350 -0.3793
 4589TIP3   OH235181   0.623   0.539  13.078  0.7193 -0.0540  0.2891
 4589TIP3    H135182   0.659   0.473  13.138 -2.9969  1.1385  4.3549
 4589TIP3    H235183   0.686   0.611  13.083  0.9335 -0.3066  2.2695
 4590TIP3   OH235184   4.356   1.013  12.776  0.0213  0.5627  0.1571
 4590TIP3    H135185   4.421   1.063  12.824  0.1981  1.4984 -1.0210
 4590TIP3    H235186   4.274   1.029  12.823  0.3270  0.7879  0.6225
 4591TIP3   OH235187   1.316   3.432  15.421 -0.2138  0.7126 -0.2376
 4591TIP3    H135188   1.363   3.377  15.484 -1.7738  1.1628  1.4231
 4591TIP3    H235189   1.384   3.478  15.373  1.0673  0.4917  1.2920
 4592TIP3   OH235190   0.616   4.963   2.753 -0.1492  0.3751 -0.4416
 4592TIP3    H135191   0.540   5.019   2.736  0.4504  0.8992 -1.5009
 4592TIP3    H235192   0.690   5.023   2.755  0.0499  0.1880  2.8614
 4593TIP3   OH235193   1.705   5.000  12.402 -0.2639  0.0746  0.2002
 4593TIP3    H135194   1.638   5.050  12.449  0.5087 -0.0951  1.5310
 4593TIP3    H235195   1.678   4.909  12.412  0.6863 -0.0839  1.6792
 4594TIP3   OH235196   3.882   5.994   2.991 -0.0647 -0.0174  0.0334
 4594TIP3    H135197   3.942   6.066   3.011  0.0394 -0.1535  0.2218
 4594TIP3    H235198   3.927   5.916   3.025 -1.1232  0.0809  1.7858
 4595TIP3   OH235199   1.227   0.766  13.828  0.2042  0.1572  0.7780
 4595TIP3    H135200   1.322   0.759  13.839  0.1350 -1.8911  0.4747
 4595TIP3    H235201   1.205   0.694  13.768 -1.5422  0.5885  0.8613
 4596TIP3   OH235202   5.253   1.513   6.866 -0.1172 -0.3435 -0.3129
 4596TIP3    H135203   5.331   1.539   6.816 -0.0727 -0.2068 -0.1706
 4596TIP3    H235204   5.231   1.426   6.831 -0.5622  0.0890 -1.1443
 4597TIP3   OH235205   0.517   1.731   0.046  0.0149  0.0187 -0.4057
 4597TIP3    H135206   0.467   1.750   0.126  0.0014 -0.7291 -0.2272
 4597TIP3    H235207   0.453   1.694  -0.014 -0.2788  1.8757 -1.3003
 4598TIP3   OH235208   4.991   4.207  14.006 -0.0005  0.5513  0.3891
 4598TIP3    H135209   5.012   4.160  14.086 -1.0175 -3.0001 -1.2329
 4598TIP3    H235210   5.070   4.199  13.952 -0.1384  0.7841  0.1496
 4599TIP3   OH235211   1.455   2.282   5.740 -0.9891 -0.0896 -0.1505
 4599TIP3    H135212   1.519   2.285   5.810 -0.4737 -1.0097 -0.5571
 4599TIP3    H235213   1.505   2.295   5.660 -1.3122 -0.6912 -0.4651
 4600TIP3   OH235214   3.063   3.051   0.740 -0.3082 -0.0735 -0.1113
 4600TIP3    H135215   3.014   3.004   0.673  0.2174 -0.9970  0.1403
 4600TIP3    H235216   3.114   3.116   0.692 -0.5880 -0.1520 -0.5162
 4601TIP3   OH235217   0.314   6.599  13.317 -0.7924  0.1502 -0.0955
 4601TIP3    H135218   0.265   6.593  13.399 -0.4730 -0.3922  0.0610
 4601TIP3    H235219   0.273   6.672  13.270 -0.1180  1.3857  1.1239
 4602TIP3   OH235220   3.523   6.121   1.827 -0.3908 -0.1483  0.1108
 4602TIP3    H135221   3.469   6.128   1.748  1.1124 -0.8812 -1.0317
 4602TIP3    H235222   3.574   6.041   1.814  2.2905  1.4259  0.2405
 4603TIP3   OH235223   5.910   4.291   5.246 -0.5992 -0.2719 -0.4100
 4603TIP3    H135224   5.934   4.199   5.254 -1.6124 -0.6094 -1.0810
 4603TIP3    H235225   5.860   4.296   5.165 -0.6994  0.8452 -0.3007
 4604TIP3   OH235226   2.417   0.067   4.082  0.5349 -0.1061 -0.1214
 4604TIP3    H135227   2.481   0.110   4.026  0.0395  1.0789  0.1998
 4604TIP3    H235228   2.346   0.130   4.092  0.5744 -0.2832  1.7837
 4605TIP3   OH235229   1.730   6.505   3.494 -0.0345 -0.3509  0.4539
 4605TIP3    H135230   1.655   6.563   3.509 -0.2910 -0.8395  1.1241
 4605TIP3    H235231   1.694   6.417   3.508 -0.5411 -1.0305 -3.7592
 4606TIP3   OH235232   0.980   2.289   0.663  0.7151  0.7265 -0.1960
 4606TIP3    H135233   1.030   2.208   0.672  3.3480  2.2486  0.0768
 4606TIP3    H235234   0.941   2.304   0.749 -0.7131 -0.7269 -0.5387
 4607TIP3   OH235235   4.065   2.453  16.786 -0.2965 -0.5165 -0.2363
 4607TIP3    H135236   4.038   2.473  16.697 -1.2620 -1.4069 -0.1654
 4607TIP3    H235237   4.160   2.461  16.786 -0.4566  1.9776 -0.6969
 4608TIP3   OH235238   4.920   4.674  13.405  0.1538 -0.1150 -0.5112
 4608TIP3    H135239   4.851   4.660  13.470  0.5591  2.3347  0.5503
 4608TIP3    H235240   4.890   4.748  13.353  0.5705 -1.0462 -2.1551
 4609TIP3   OH235241   2.102   4.159   4.048  0.4089  0.0965  0.6658
 4609TIP3    H135242   2.095   4.115   4.133 -1.4751  1.8365  1.4841
 4609TIP3    H235243   2.092   4.252   4.068 -0.2168  0.5295 -1.4722
 4610TIP3   OH235244   2.584   1.210   0.459  0.0179  0.5460  0.4653
 4610TIP3    H135245   2.626   1.221   0.544 -1.0903 -1.1387  1.2957
 4610TIP3    H235246   2.490   1.223   0.477 -0.1383  1.2579 -0.7378
 4611TIP3   OH235247   1.786   5.683  15.378  0.5587 -0.2494 -0.1245
 4611TIP3    H135248   1.844   5.621  15.422  0.4440 -1.4491 -1.5952
 4611TIP3    H235249   1.819   5.689  15.288 -2.1682 -1.8655 -1.3770
 4612TIP3   OH235250   3.652   1.424   3.711 -0.3912 -0.4005  1.2552
 4612TIP3    H135251   3.603   1.499   3.743  0.5765  0.8618 -0.1092
 4612TIP3    H235252   3.628   1.353   3.770 -1.0593  1.0501  2.8045
 4613TIP3   OH235253   5.755   3.321   5.385  0.1631  0.1570 -0.6955
 4613TIP3    H135254   5.750   3.225   5.390 -2.4522  0.2110 -1.0696
 4613TIP3    H235255   5.703   3.352   5.458 -1.9658  1.2071 -2.5388
 4614TIP3   OH235256   6.082   1.491  16.433 -0.0835 -0.4241  0.0509
 4614TIP3    H135257   6.026   1.413  16.427 -0.3642 -0.1997 -0.2248
 4614TIP3    H235258   6.079   1.514  16.526  1.3974 -1.7658  0.4730
 4615TIP3   OH235259   2.113   0.426   1.807  0.3512 -0.1569  0.4390
 4615TIP3    H135260   2.062   0.361   1.759 -0.4674  1.2272 -0.6609
 4615TIP3    H235261   2.203   0.413   1.776  0.2039 -0.8088  0.2759
 4616TIP3   OH235262   0.312   3.867  15.591  0.0340  0.2908  1.1784
 4616TIP3    H135263   0.221   3.885  15.568  0.3372  0.8499  0.3660
 4616TIP3    H235264   0.353   3.844  15.508  0.5443 -0.3451  1.6044
 4617TIP3   OH235265   0.838   5.309   3.189  0.1910 -0.2262  0.0054
 4617TIP3    H135266   0.791   5.230   3.161  1.0601 -0.4157 -0.9738
 4617TIP3    H235267   0.921   5.305   3.143  0.4481  1.0202  0.3262
 4618TIP3   OH235268   0.198   0.877   6.043  0.3828  0.5831  0.4037
 4618TIP3    H135269   0.158   0.963   6.056 -0.2800  0.2148  0.8494
 4618TIP3    H235270   0.236   0.856   6.129  0.2695  0.2938  0.3839
 4619TIP3   OH235271   6.093   5.877   4.973  0.7440  0.1360  0.1032
 4619TIP3    H135272   6.116   5.937   4.903 -1.1262 -1.9699 -2.5372
 4619TIP3    H235273   6.172   5.824   4.986  0.7726 -0.1819 -1.2561
 4620TIP3   OH235274   3.489   0.448  16.844 -0.0926  0.4761 -0.2988
 4620TIP3    H135275   3.583   0.431  16.850 -0.1188 -2.6160 -4.5597
 4620TIP3    H235276   3.448   0.362  16.857 -2.0815  1.1895 -1.4279
 4621TIP3   OH235277   3.499   4.429   6.236  0.6581  0.1444 -0.2847
 4621TIP3    H135278   3.584   4.470   6.219 -0.2605  1.9123 -0.7943
 4621TIP3    H235279   3.476   4.457   6.324  0.1169  0.5601 -0.5556
 4622TIP3   OH235280   0.750   0.443  15.572 -0.1029 -0.2467  0.5250
 4622TIP3    H135281   0.725   0.487  15.653 -2.0584  0.1267 -0.2029
 4622TIP3    H235282   0.837   0.478  15.551  0.3774 -0.2523  2.3579
 4623TIP3   OH235283   3.679   4.771   4.808 -0.5204  0.2459 -0.3855
 4623TIP3    H135284   3.621   4.697   4.789  0.4773 -0.4796 -0.7082
 4623TIP3    H235285   3.764   4.745   4.770  0.5821  0.3377  1.8379
 4624TIP3   OH235286   0.300   1.458  15.156 -0.4468 -0.0394 -0.1650
 4624TIP3    H135287   0.389   1.466  15.123 -0.0776 -0.2867  0.7309
 4624TIP3    H235288   0.249   1.521  15.104  0.4966  1.0336  0.1586
 4625TIP3   OH235289   6.028   5.622   3.584  0.0559  0.7341 -0.0200
 4625TIP3    H135290   6.049   5.714   3.604 -0.3786  0.9454 -0.5199
 4625TIP3    H235291   6.014   5.582   3.670 -1.4011  1.5338  0.1380
 4626TIP3   OH235292   6.418   6.734  16.474  0.0815 -0.3316  0.5080
 4626TIP3    H135293   6.325   6.724  16.453  0.2077 -0.7990  0.1522
 4626TIP3    H235294   6.426   6.824  16.504 -0.4164 -0.1670  0.1599
 4627TIP3   OH235295   2.001   1.620   4.267 -0.1562  0.1883  0.9692
 4627TIP3    H135296   1.924   1.587   4.221 -0.6897  2.1134  0.3666
 4627TIP3    H235297   2.070   1.622   4.200 -0.2512  0.6943  0.8838
 4628TIP3   OH235298   5.365   4.031  10.793 -0.4295  0.0252 -0.3137
 4628TIP3    H135299   5.430   3.973  10.832 -0.6978  0.1782  0.3650
 4628TIP3    H235300   5.354   3.997  10.704 -0.0656 -0.5315 -0.1522
 4629TIP3   OH235301   2.117   5.895   5.524 -0.2605  0.2012  0.1854
 4629TIP3    H135302   2.088   5.871   5.436 -0.6705  0.6293  0.1966
 4629TIP3    H235303   2.167   5.976   5.512 -0.6276  0.4620  0.3824
 4630TIP3   OH235304   1.253   4.066  11.442  0.1473  0.0211  0.1403
 4630TIP3    H135305   1.180   4.105  11.491 -0.8488 -1.4696 -0.0840
 4630TIP3    H235306   1.304   4.140  11.412 -1.3309  1.1207  0.2434
 4631TIP3   OH235307   4.097   3.821   5.485  0.0785 -0.5562  0.3033
 4631TIP3    H135308   4.035   3.890   5.463 -0.5699 -1.6301 -1.3731
 4631TIP3    H235309   4.073   3.748   5.429  1.7377 -1.6226  0.9144
 4632TIP3   OH235310   5.353   0.777   2.082 -0.7588 -0.2761  0.5411
 4632TIP3    H135311   5.431   0.808   2.128 -0.1379  1.1400 -1.3488
 4632TIP3    H235312   5.280   0.818   2.130 -0.2032  0.2972  0.9161
 4633TIP3   OH235313   0.833   5.131   1.803 -0.6199 -0.2547  0.0022
 4633TIP3    H135314   0.828   5.200   1.737  0.1319  0.9181  1.1069
 4633TIP3    H235315   0.743   5.118   1.831 -0.7336  0.6475  0.0990
 4634TIP3   OH235316   1.169   5.355  16.057 -0.1040 -0.5584  0.3830
 4634TIP3    H135317   1.145   5.423  16.119 -1.1793  0.2882 -0.9304
 4634TIP3    H235318   1.265   5.351  16.062 -0.1798 -1.1425  2.7000
 4635TIP3   OH235319   6.144   0.983   4.330 -0.0295 -0.1584 -0.2574
 4635TIP3    H135320   6.067   0.996   4.274  0.0615  3.2984  0.2351
 4635TIP3    H235321   6.217   1.022   4.282  0.5230  0.6457  1.1547
 4636TIP3   OH235322   5.150   0.584  11.787  0.1565  0.1887  0.1171
 4636TIP3    H135323   5.086   0.631  11.733 -1.3696 -1.6824  0.1608
 4636TIP3    H235324   5.098   0.518  11.833  1.6873  0.5844  2.5666
 4637TIP3   OH235325   6.321   4.970   1.508  0.3674  0.1451  0.1722
 4637TIP3    H135326   6.416   4.982   1.503  0.2069  1.1017 -0.8457
 4637TIP3    H235327   6.309   4.875   1.500  1.3123 -0.1682  2.0595
 4638TIP3   OH235328   5.864   5.556   2.871 -0.3450 -0.4085  0.3516
 4638TIP3    H135329   5.794   5.603   2.915 -1.6404 -1.5030 -0.4726
 4638TIP3    H235330   5.943   5.607   2.890 -1.3400  0.8105  1.3547
 4639TIP3   OH235331   3.646   0.253   3.119 -0.1551 -0.1184  0.6761
 4639TIP3    H135332   3.584   0.295   3.179 -0.1303  0.4385  0.3195
 4639TIP3    H235333   3.688   0.185   3.172 -2.6757 -2.1093  0.3419
 4640TIP3   OH235334   1.272   2.348   4.401 -0.2970 -0.2312 -0.2318
 4640TIP3    H135335   1.352   2.299   4.383  0.6203  0.5418  1.4936
 4640TIP3    H235336   1.269   2.355   4.496 -0.8916  2.1913 -0.3633
 4641TIP3   OH235337   5.583   4.679  13.242  0.4042 -0.3585 -0.7349
 4641TIP3    H135338   5.528   4.610  13.279 -1.2245  0.8162 -0.8810
 4641TIP3    H235339   5.672   4.644  13.249 -0.0867 -1.2821  1.7981
 4642TIP3   OH235340   1.338   2.509   5.663 -0.4044  0.5291  0.3280
 4642TIP3    H135341   1.245   2.486   5.673 -0.3011  0.4030  1.0736
 4642TIP3    H235342   1.385   2.427   5.683 -0.1346  0.5847 -0.0747
 4643TIP3   OH235343   5.228   1.004   3.257 -0.4418 -0.0939  0.2739
 4643TIP3    H135344   5.202   1.090   3.291  0.8276  1.1458 -1.6388
 4643TIP3    H235345   5.159   0.980   3.195  0.1840  0.5928 -0.7328
 4644TIP3   OH235346   4.924   2.158   2.272 -0.0307  0.5026  0.2074
 4644TIP3    H135347   4.889   2.186   2.188  0.3316  0.7556  0.1410
 4644TIP3    H235348   5.001   2.105   2.251 -0.3274  0.0019  0.3572
 4645TIP3   OH235349   3.163   5.161  12.806 -0.3112 -0.2331  0.3856
 4645TIP3    H135350   3.147   5.092  12.869 -0.6769  0.8424  1.5062
 4645TIP3    H235351   3.097   5.147  12.738 -0.8882 -0.5186  0.9912
 4646TIP3   OH235352   4.503   0.042  13.547  0.2961  0.2402 -0.7168
 4646TIP3    H135353   4.442   0.116  13.549  0.6114  0.5863 -2.2119
 4646TIP3    H235354   4.565   0.059  13.618 -1.0479  0.1371  0.5036
 4647TIP3   OH235355   6.246   6.531   3.942 -0.2384 -0.4149  0.2142
 4647TIP3    H135356   6.274   6.540   4.033  1.1616  1.5098 -0.3323
 4647TIP3    H235357   6.161   6.574   3.938  0.4238  0.9518  0.3295
 4648TIP3   OH235358   6.616   3.961  15.904  0.0652 -0.5990 -0.3202
 4648TIP3    H135359   6.699   4.007  15.893  0.7308 -1.7135 -0.1719
 4648TIP3    H235360   6.591   3.935  15.815 -0.1134 -0.2721 -0.3637
 4649TIP3   OH235361   2.650   6.140   0.370  0.6079 -0.2508 -0.4636
 4649TIP3    H135362   2.660   6.149   0.275  1.3515 -1.0856 -0.4798
 4649TIP3    H235363   2.740   6.140   0.404  0.3995 -1.0918  0.1202
 4650TIP3   OH235364   4.303   5.672   4.268 -0.3399  0.2850  0.0462
 4650TIP3    H135365   4.377   5.615   4.245  0.7421  1.3569  0.7094
 4650TIP3    H235366   4.239   5.658   4.199  0.0264 -1.4830  0.0182
 4651TIP3   OH235367   0.470   2.383   5.804  0.2617 -0.7590  0.0960
 4651TIP3    H135368   0.517   2.463   5.828  0.7614 -0.8704 -0.4843
 4651TIP3    H235369   0.537   2.315   5.804 -0.1619 -1.1933  0.6018
 4652TIP3   OH235370   3.179   4.225   1.217  0.2997 -0.1207  0.5863
 4652TIP3    H135371   3.146   4.305   1.176  2.4567  0.4416 -0.1576
 4652TIP3    H235372   3.257   4.253   1.264  0.9108 -1.7380  0.5860
 4653TIP3   OH235373   5.846   3.379   0.144  0.8974  0.2390  0.0983
 4653TIP3    H135374   5.825   3.400   0.235 -0.9149  2.2426 -0.6695
 4653TIP3    H235375   5.761   3.361   0.104  1.3602  1.6168 -1.6534
 4654TIP3   OH235376   5.660   3.643   3.215 -0.5681 -0.0941  0.1632
 4654TIP3    H135377   5.643   3.630   3.309 -1.5200 -0.5865 -0.0645
 4654TIP3    H235378   5.591   3.704   3.187 -0.1746  0.1924 -0.1815
 4655TIP3   OH235379   6.065   1.521  16.741  0.5091  0.6128 -0.3022
 4655TIP3    H135380   5.983   1.471  16.734  1.0949 -0.2607 -0.9739
 4655TIP3    H235381   6.078   1.531  16.836 -0.4278  0.8814 -0.1807
 4656TIP3   OH235382   2.733   4.414  12.270 -0.3701  0.3258 -0.4459
 4656TIP3    H135383   2.667   4.479  12.245 -1.7072 -0.9402 -0.3663
 4656TIP3    H235384   2.714   4.395  12.362  0.4978  0.3784 -0.2485
 4657TIP3   OH235385   2.015   5.964  11.929 -0.0439  0.0599 -0.0576
 4657TIP3    H135386   2.107   5.941  11.936 -0.0450  0.2204  0.5291
 4657TIP3    H235387   2.009   6.053  11.965 -0.4183  0.0667 -0.1268
 4658TIP3   OH235388   3.950   5.932   6.132 -0.4484 -0.2117  0.1117
 4658TIP3    H135389   3.926   5.899   6.045 -1.2086  0.8736 -0.1096
 4658TIP3    H235390   3.924   5.862   6.192 -1.9097 -0.0921 -0.3493
 4659TIP3   OH235391   3.427   4.032  12.043  0.1458 -0.0908  0.0677
 4659TIP3    H135392   3.425   4.027  11.948 -0.9391 -0.8400  0.1010
 4659TIP3    H235393   3.461   3.947  12.071 -1.1545 -0.5511  0.3553
 4660TIP3   OH235394   6.612   3.878   2.645  0.0452 -0.2658  0.1905
 4660TIP3    H135395   6.666   3.900   2.720  0.8657  1.3534 -0.8093
 4660TIP3    H235396   6.596   3.784   2.653  2.7330 -0.7515  0.7364
 4661TIP3   OH235397   2.983   1.723  13.764 -0.4477 -0.3074 -0.3938
 4661TIP3    H135398   3.007   1.786  13.831  0.1740  1.4049 -2.1303
 4661TIP3    H235399   2.915   1.767  13.713  0.3337 -0.8267 -1.9343
 4662TIP3   OH235400   2.683   3.783  13.557  0.6390 -0.1765  0.5064
 4662TIP3    H135401   2.701   3.872  13.585 -1.1534  0.9362 -1.5936
 4662TIP3    H235402   2.588   3.780  13.546  0.5015 -2.7181  1.5742
 4663TIP3   OH235403   4.165   2.415   1.801 -0.3136  0.0206  0.5609
 4663TIP3    H135404   4.173   2.388   1.892 -1.8482  1.6360  1.2365
 4663TIP3    H235405   4.217   2.495   1.795  0.8117 -0.7445 -0.3398
 4664TIP3   OH235406   0.373   1.178   0.425  0.0272  0.7067  0.4382
 4664TIP3    H135407   0.423   1.156   0.503  0.5447  0.6964  0.1133
 4664TIP3    H235408   0.309   1.243   0.454  0.7686  1.3400  0.7114
 4665TIP3   OH235409   2.830   4.484   3.498 -0.7210 -0.4522  0.3068
 4665TIP3    H135410   2.866   4.512   3.582  2.3840  1.1086 -1.3720
 4665TIP3    H235411   2.740   4.517   3.498  0.1987  2.3921  1.7464
 4666TIP3   OH235412   2.906   5.148   1.068  0.1628  0.3317 -0.0626
 4666TIP3    H135413   2.887   5.072   1.124 -1.0474  1.0580  0.5430
 4666TIP3    H235414   2.864   5.222   1.112 -0.9435  0.9160 -1.9763
 4667TIP3   OH235415   1.406   5.383   5.121 -0.1279  0.0270  0.1450
 4667TIP3    H135416   1.440   5.450   5.179  1.3215  0.4487 -1.1289
 4667TIP3    H235417   1.355   5.431   5.055  1.1082 -0.0642 -0.9073
 4668TIP3   OH235418   4.403   1.186   3.081  0.3541 -0.1140 -0.2446
 4668TIP3    H135419   4.465   1.120   3.110 -1.2252 -1.0169  1.2734
 4668TIP3    H235420   4.456   1.263   3.061  2.0891 -1.3664 -0.6535
 4669TIP3   OH235421   4.717   5.523  13.911 -0.2099  0.5004 -0.0939
 4669TIP3    H135422   4.799   5.556  13.876 -0.0055  0.5302  0.3929
 4669TIP3    H235423   4.670   5.488  13.836  0.9691 -1.0504 -0.1557
 4670TIP3   OH235424   2.493   4.243   3.462 -0.0164 -0.2018  0.0361
 4670TIP3    H135425   2.483   4.233   3.367 -1.6115 -1.5296  0.2994
 4670TIP3    H235426   2.486   4.154   3.497  1.6242  0.1309  1.3476
 4671TIP3   OH235427   5.058   2.160   5.993  0.4193  0.6365  0.1508
 4671TIP3    H135428   5.086   2.073   5.966  0.3463  0.0622  1.8342
 4671TIP3    H235429   4.971   2.170   5.954  1.8540  1.5578 -3.2504
 4672TIP3   OH235430   5.149   2.379  15.730  0.5652  0.2020  0.0771
 4672TIP3    H135431   5.108   2.323  15.796  2.5466 -0.7967  0.5505
 4672TIP3    H235432   5.076   2.418  15.682 -0.9007 -0.8469  1.3704
 4673TIP3   OH235433   4.014   1.815   0.570 -0.3295 -0.3924  0.3654
 4673TIP3    H135434   4.042   1.900   0.537 -0.8159 -0.7532 -1.0318
 4673TIP3    H235435   4.089   1.757   0.554  0.1795 -0.1542  1.7402
 4674TIP3   OH235436   3.482   3.383   4.782  0.3510 -0.0026  0.1558
 4674TIP3    H135437   3.571   3.414   4.797 -0.0262  1.8132 -1.0799
 4674TIP3    H235438   3.426   3.444   4.831 -0.2686 -0.6543  0.2828
 4675TIP3   OH235439   2.585   3.189  14.972  0.4705  0.1520  0.3229
 4675TIP3    H135440   2.495   3.195  14.939  0.8470  0.4111 -0.6969
 4675TIP3    H235441   2.575   3.167  15.064 -0.6331 -0.1595  0.1469
 4676TIP3   OH235442   4.064   2.819   5.555 -0.5429 -0.0810 -0.0584
 4676TIP3    H135443   3.995   2.841   5.618 -1.6128 -2.5114 -0.2655
 4676TIP3    H235444   4.074   2.724   5.563  0.7388 -0.1688 -2.1134
 4677TIP3   OH235445   4.700   3.624   0.452  0.4384  0.1100 -0.0750
 4677TIP3    H135446   4.744   3.679   0.517 -0.7325  1.4337 -0.3633
 4677TIP3    H235447   4.750   3.639   0.372 -0.8874  2.1961 -0.5850
 4678TIP3   OH235448   4.996   6.598   2.587 -0.3096 -0.0480  0.1466
 4678TIP3    H135449   4.993   6.602   2.682 -1.2713 -0.4704  0.1500
 4678TIP3    H235450   5.068   6.655   2.562  1.7995 -2.0477  1.2613
 4679TIP3   OH235451   0.863   6.149  11.733  0.2616  0.0858 -0.1557
 4679TIP3    H135452   0.940   6.099  11.757  0.5238  0.9101  0.7678
 4679TIP3    H235453   0.891   6.203  11.659  0.4399  0.0644 -0.1034
 4680TIP3   OH235454   0.490   1.140  15.681  0.6269  0.5984  0.0511
 4680TIP3    H135455   0.404   1.113  15.647  0.9076  1.0870 -1.1202
 4680TIP3    H235456   0.470   1.204  15.749  0.0334 -0.4414  0.8802
 4681TIP3   OH235457   5.421   2.975  13.136  0.5449  0.3292  0.3184
 4681TIP3    H135458   5.438   2.883  13.155  1.1730  0.6934  1.6338
 4681TIP3    H235459   5.412   2.979  13.040  2.2171 -0.8130  0.0831
 4682TIP3   OH235460   5.701   2.573  10.712 -0.1268 -0.6505 -0.2320
 4682TIP3    H135461   5.625   2.556  10.768  0.3677 -0.5570  0.4741
 4682TIP3    H235462   5.754   2.493  10.719  0.9382  0.1368  1.0651
 4683TIP3   OH235463   1.320   2.867  13.087  0.4171  0.2728 -0.1651
 4683TIP3    H135464   1.388   2.815  13.045  0.5293 -1.7745  2.2999
 4683TIP3    H235465   1.238   2.829  13.055  0.4980 -0.6716  0.6985
 4684TIP3   OH235466   1.033   3.496   1.154 -0.1711 -0.0781 -0.3688
 4684TIP3    H135467   1.054   3.517   1.245  1.0648 -1.7084 -0.2382
 4684TIP3    H235468   0.938   3.494   1.151 -0.2329  0.3657  0.7905
 4685TIP3   OH235469   2.630   4.237   4.864 -0.5630  0.1259  0.4593
 4685TIP3    H135470   2.615   4.269   4.953 -1.1665  1.2440 -0.0244
 4685TIP3    H235471   2.556   4.177   4.848 -1.2399  1.0007  0.2256
 4686TIP3   OH235472   6.678   5.515  16.289 -0.4204 -0.0692  0.2218
 4686TIP3    H135473   6.735   5.439  16.301 -2.4097 -1.5753  0.7297
 4686TIP3    H235474   6.593   5.477  16.266 -1.9243  1.8991  2.1097
 4687TIP3   OH235475   1.292   4.167  16.717 -0.0490 -0.3358 -0.1379
 4687TIP3    H135476   1.322   4.246  16.672 -0.3576 -0.8013 -1.1863
 4687TIP3    H235477   1.309   4.184  16.809 -1.2173  1.4532 -0.2097
 4688TIP3   OH235478   0.173   4.044  15.239  0.2029 -0.2497 -0.1790
 4688TIP3    H135479   0.214   4.128  15.218 -0.5961 -0.2764 -2.0354
 4688TIP3    H235480   0.164   4.044  15.334  2.7617  0.5457  0.1496
 4689TIP3   OH235481   1.629   0.514   3.230 -0.3137 -0.1225  0.0235
 4689TIP3    H135482   1.712   0.502   3.185 -0.2127 -0.4166  0.2865
 4689TIP3    H235483   1.605   0.427   3.261 -0.8861 -0.1002 -0.3370
 4690TIP3   OH235484   5.409   6.753  12.104  0.2447  0.0698 -0.3244
 4690TIP3    H135485   5.345   6.760  12.174 -2.9885 -0.6268 -2.9236
 4690TIP3    H235486   5.432   6.843  12.083 -1.4799  0.4926 -0.5753
 4691TIP3   OH235487   6.350   1.977  14.246  0.7408 -0.6781 -0.0811
 4691TIP3    H135488   6.443   1.980  14.266  0.6931 -0.0404  0.0635
 4691TIP3    H235489   6.327   2.066  14.219  0.2694 -0.9372 -0.5638
 4692TIP3   OH235490   5.549   5.803  14.666 -0.4107 -0.4047 -0.3979
 4692TIP3    H135491   5.597   5.726  14.698 -0.8353 -0.8280 -0.7622
 4692TIP3    H235492   5.568   5.805  14.572 -1.7958 -1.1053 -0.7238
 4693TIP3   OH235493   6.647   2.960  11.571  0.1496 -0.2504 -0.6820
 4693TIP3    H135494   6.592   2.998  11.502 -1.9128 -0.7962  0.5556
 4693TIP3    H235495   6.673   2.875  11.536 -0.8154 -0.4890 -0.8558
 4694TIP3   OH235496   3.245   2.240   2.968  0.0559 -0.3504 -0.4581
 4694TIP3    H135497   3.166   2.283   3.001 -0.5490 -1.6591 -0.1493
 4694TIP3    H235498   3.317   2.293   3.003 -0.6383 -0.2252  0.8754
 4695TIP3   OH235499   2.700   6.188   1.974 -0.3158 -0.7607  0.2662
 4695TIP3    H135500   2.739   6.102   1.957  0.4954 -0.7839  1.9380
 4695TIP3    H235501   2.711   6.200   2.069  1.9385  2.2843 -0.2488
 4696TIP3   OH235502   3.012   3.272  11.981  0.0021  0.2300  0.3548
 4696TIP3    H135503   3.022   3.324  12.061 -1.6313  0.3569  0.5067
 4696TIP3    H235504   2.930   3.302  11.943  0.2593 -0.5397 -0.8612
 4697TIP3   OH235505   6.696   4.934  16.690  0.1466  0.0251  0.0016
 4697TIP3    H135506   6.642   4.903  16.618  1.8062  1.0253 -1.7816
 4697TIP3    H235507   6.784   4.942  16.652  1.1340  0.4279  2.2001
 4698TIP3   OH235508   4.658   1.644  15.427  0.4221 -0.1288 -0.3291
 4698TIP3    H135509   4.601   1.587  15.375  0.5637  0.5075 -1.2133
 4698TIP3    H235510   4.647   1.731  15.388 -1.1882  0.8904  2.1194
 4699TIP3   OH235511   4.520   2.169  16.867  0.4442  0.2745 -0.2119
 4699TIP3    H135512   4.484   2.123  16.942 -1.1610 -1.8172 -2.1288
 4699TIP3    H235513   4.552   2.252  16.903 -0.6739 -0.4189  2.6569
 4700TIP3   OH235514   5.759   5.549  11.459  0.4037  0.1489  0.3848
 4700TIP3    H135515   5.740   5.630  11.412  1.4609  1.9358  2.8056
 4700TIP3    H235516   5.854   5.550  11.470  0.3390 -1.0051  1.2100
 4701TIP3   OH235517   0.951   5.987   1.721 -0.3551 -0.2100  0.9033
 4701TIP3    H135518   0.859   5.991   1.747 -0.0394  0.4366  2.0061
 4701TIP3    H235519   0.975   5.895   1.728 -1.1610 -0.5233 -0.3153
 4702TIP3   OH235520   0.125   0.358  16.327 -0.1217  0.5340  0.1526
 4702TIP3    H135521   0.132   0.441  16.279 -0.6330  1.8684  2.2292
 4702TIP3    H235522   0.092   0.384  16.413 -0.5037 -1.8851  0.7934
 4703TIP3   OH235523   5.097   2.377   5.373  0.0524  0.0537 -0.0740
 4703TIP3    H135524   5.011   2.366   5.413  0.5018  1.3223  1.3345
 4703TIP3    H235525   5.081   2.432   5.296 -0.6368 -1.2933 -0.9119
 4704TIP3   OH235526   5.846   1.250  13.225 -0.2232  0.3104 -0.0458
 4704TIP3    H135527   5.902   1.301  13.166 -1.3067  1.6442  0.0201
 4704TIP3    H235528   5.776   1.310  13.249 -0.7061 -0.7355  1.3129
 4705TIP3   OH235529   4.902   2.216  11.353  0.1570  0.1018 -0.1302
 4705TIP3    H135530   4.937   2.145  11.299 -0.3248 -0.1632 -0.0969
 4705TIP3    H235531   4.897   2.291  11.293 -2.6421 -0.7832 -1.1882
 4706TIP3   OH235532   3.061   0.450  14.455 -0.4789  0.9948  0.6806
 4706TIP3    H135533   3.110   0.383  14.503  0.2260  1.2536  0.3340
 4706TIP3    H235534   3.129   0.504  14.413 -1.0845  0.4422 -1.0763
 4707TIP3   OH235535   0.236   2.377   1.672  0.4450  0.0293 -0.0708
 4707TIP3    H135536   0.265   2.360   1.761  0.3257  1.3530  0.2402
 4707TIP3    H235537   0.286   2.316   1.618  1.2642 -0.0790  0.7942
 4708TIP3   OH235538   3.170   6.384   0.983  0.0367 -0.2086 -0.4265
 4708TIP3    H135539   3.086   6.398   1.026  1.0000 -0.1865  1.5555
 4708TIP3    H235540   3.203   6.472   0.966  0.2049 -0.1921 -0.0372
 4709TIP3   OH235541   1.849   4.214   2.173  0.3145 -0.9229  0.3094
 4709TIP3    H135542   1.815   4.134   2.211 -0.6993  0.1076  1.6765
 4709TIP3    H235543   1.936   4.191   2.141  0.5290 -2.2544  1.7694
 4710TIP3   OH235544   0.014   0.146   4.781 -0.6379  0.2715  0.6469
 4710TIP3    H135545   0.054   0.216   4.832 -2.1386 -0.2542  2.6617
 4710TIP3    H235546  -0.078   0.170   4.774 -0.3684  0.7364 -2.6429
 4711TIP3   OH235547   3.326   6.007   4.573 -0.6815  0.2844 -0.3484
 4711TIP3    H135548   3.353   6.003   4.664 -2.3760  1.7769  0.2727
 4711TIP3    H235549   3.288   5.921   4.555 -1.3411  0.3557  0.6865
 4712TIP3   OH235550   2.781   6.186  11.361 -1.0881 -0.3133 -0.1430
 4712TIP3    H135551   2.859   6.133  11.378 -0.8311 -0.3165 -1.3088
 4712TIP3    H235552   2.718   6.126  11.323 -1.3865 -0.1352  0.0602
 4713TIP3   OH235553   5.810   5.179  16.166 -0.0634  0.3444  0.0164
 4713TIP3    H135554   5.743   5.111  16.173  0.4195 -0.1380  0.0552
 4713TIP3    H235555   5.838   5.195  16.256  0.5949 -0.2053 -0.0772
 4714TIP3   OH235556   1.146   0.556  14.672 -0.6769 -0.4736 -0.4487
 4714TIP3    H135557   1.145   0.487  14.738 -0.0088  0.4270  0.5468
 4714TIP3    H235558   1.063   0.602  14.684 -0.4635 -0.1740 -0.0485
 4715TIP3   OH235559   1.276   0.524   3.078 -0.2801  0.0226  0.1634
 4715TIP3    H135560   1.341   0.457   3.060  0.9862  1.3102 -0.2072
 4715TIP3    H235561   1.207   0.509   3.013  0.3161 -0.4875 -0.3641
 4716TIP3   OH235562   4.853   5.931   3.343 -0.2793  0.4288  0.1329
 4716TIP3    H135563   4.846   5.861   3.279  0.0099  0.2996  0.2379
 4716TIP3    H235564   4.818   6.008   3.299  1.1895  0.6640 -0.6942
 4717TIP3   OH235565   5.413   1.729   4.800 -0.4845  0.6391  0.1192
 4717TIP3    H135566   5.374   1.759   4.883  2.0557 -0.7631  1.9817
 4717TIP3    H235567   5.370   1.645   4.783 -1.9973  1.5594 -0.8108
 4718TIP3   OH235568   1.597   0.334   0.042  0.1764 -0.3859 -0.1315
 4718TIP3    H135569   1.519   0.326   0.098  1.0067  1.6612  1.4192
 4718TIP3    H235570   1.563   0.326  -0.047 -1.9939  1.3312  0.4457
 4719TIP3   OH235571   6.663   1.616   0.383  0.1928 -0.0366  0.1372
 4719TIP3    H135572   6.693   1.702   0.353 -1.7522  0.4073 -0.6616
 4719TIP3    H235573   6.646   1.567   0.303  3.6377 -2.1567  0.5104
 4720TIP3   OH235574   0.801   2.663  16.547  0.2483 -0.1842 -0.4129
 4720TIP3    H135575   0.878   2.616  16.514 -1.0791 -2.9943  0.1868
 4720TIP3    H235576   0.837   2.725  16.611  2.1309 -0.2334 -1.3365
 4721TIP3   OH235577   0.068   4.338  13.756 -0.1401 -0.7258 -0.2257
 4721TIP3    H135578   0.134   4.342  13.687  0.9681 -1.1324  0.7666
 4721TIP3    H235579   0.074   4.423  13.800 -0.2135 -0.7946 -0.0809
 4722TIP3   OH235580   3.267   0.259  16.119  0.2458  0.3015 -0.4309
 4722TIP3    H135581   3.260   0.211  16.202 -1.5349  1.2010 -0.0133
 4722TIP3    H235582   3.255   0.191  16.052  1.3630 -0.3781  0.0217
 4723TIP3   OH235583   4.245   0.494   2.401 -0.3546  0.0802 -0.0713
 4723TIP3    H135584   4.160   0.536   2.387 -0.2021  0.2511 -0.5069
 4723TIP3    H235585   4.301   0.564   2.435 -0.2949  0.0527 -0.1130
 4724TIP3   OH235586   0.180   4.964   4.310 -0.1882  0.0370  0.0998
 4724TIP3    H135587   0.240   5.020   4.259 -0.9814  1.0476  0.2363
 4724TIP3    H235588   0.225   4.952   4.393 -0.0483  0.5619  0.1059
 4725TIP3   OH235589   5.895   6.560  16.171 -0.3746 -0.4013 -0.1575
 4725TIP3    H135590   5.907   6.465  16.174 -0.8105 -0.4511 -0.0102
 4725TIP3    H235591   5.891   6.587  16.263  0.9209 -0.0865 -0.1785
 4726TIP3   OH235592   2.421   6.253  16.197  0.2987 -0.0211 -0.3504
 4726TIP3    H135593   2.507   6.253  16.238 -0.4610 -1.0235  1.3450
 4726TIP3    H235594   2.402   6.345  16.180  1.7984  0.1960 -1.0325
 4727TIP3   OH235595   2.702   0.950   4.124  0.4351  0.2880 -0.4414
 4727TIP3    H135596   2.770   0.953   4.191  0.9879  0.5121 -1.0020
 4727TIP3    H235597   2.633   0.896   4.162  0.1233  1.5573  0.8722
 4728TIP3   OH235598   4.427   2.075  16.322  0.3947 -0.0352  0.1601
 4728TIP3    H135599   4.402   2.107  16.236  0.9465 -1.0132 -0.3767
 4728TIP3    H235600   4.520   2.093  16.329  0.1195  1.2110  1.0998
 4729TIP3   OH235601   1.974   2.187  15.877  0.3368  0.3568 -0.2136
 4729TIP3    H135602   1.997   2.280  15.872 -2.6987  1.2991  0.8497
 4729TIP3    H235603   1.981   2.165  15.970  0.4506 -0.3049 -0.3697
 4730TIP3   OH235604   2.406   4.819   1.455  0.0733 -0.2303  0.1064
 4730TIP3    H135605   2.388   4.840   1.547  1.5720  0.1897  0.3409
 4730TIP3    H235606   2.473   4.882   1.430 -0.1134 -0.5294 -1.2055
 4731TIP3   OH235607   0.198   5.514   0.288  0.4394 -0.1877  0.4401
 4731TIP3    H135608   0.287   5.508   0.253  0.7796 -0.9104  1.3867
 4731TIP3    H235609   0.160   5.427   0.272  0.0205  0.0101  0.3447
 4732TIP3   OH235610   6.182   0.653   4.328 -0.3147 -0.3545  0.1223
 4732TIP3    H135611   6.185   0.748   4.335  0.2670 -0.4283  1.0602
 4732TIP3    H235612   6.194   0.621   4.418  1.7156 -1.3241 -0.4093
 4733TIP3   OH235613   0.239   1.322   4.140 -0.2360 -0.1369 -0.6765
 4733TIP3    H135614   0.311   1.277   4.186  0.0570  0.9309 -0.0614
 4733TIP3    H235615   0.176   1.253   4.120  0.7000 -0.9994 -0.7158
 4734TIP3   OH235616   1.933   0.533  10.819  0.4542  0.4612 -0.3394
 4734TIP3    H135617   2.029   0.527  10.818  0.6246  1.9627  1.3292
 4734TIP3    H235618   1.916   0.625  10.840 -1.3503  0.0097  0.3221
 4735TIP3   OH235619   1.622   4.414   3.989  0.4149  0.5891  0.7707
 4735TIP3    H135620   1.570   4.335   4.004 -0.1467  1.0475  1.2749
 4735TIP3    H235621   1.624   4.423   3.894 -0.5469  0.6286  0.7430
 4736TIP3   OH235622   1.312   4.584   0.417  0.0315 -0.1844 -0.2346
 4736TIP3    H135623   1.394   4.603   0.371 -1.1503  0.3236 -2.2141
 4736TIP3    H235624   1.280   4.669   0.446  0.2819 -0.4050  0.7349
 4737TIP3   OH235625   4.983   0.710  17.011 -0.7186 -0.1391  0.6615
 4737TIP3    H135626   4.980   0.728  16.917  0.0253  0.5806  0.7617
 4737TIP3    H235627   4.931   0.630  17.022 -0.3001 -0.5920 -0.4504
 4738TIP3   OH235628   4.144   1.116   1.736  0.3972 -0.5447 -0.8587
 4738TIP3    H135629   4.115   1.047   1.677 -0.1549 -0.9550 -0.1235
 4738TIP3    H235630   4.107   1.196   1.699 -0.1849 -0.8359 -0.9151
 4739TIP3   OH235631   4.300   5.057  14.693 -0.0809  0.1362  0.3079
 4739TIP3    H135632   4.378   5.024  14.650 -1.2076 -0.4507 -1.3935
 4739TIP3    H235633   4.259   4.980  14.731 -0.4320  0.2508  0.1703
 4740TIP3   OH235634   3.824   1.836  16.723 -0.2468 -0.0532  0.1438
 4740TIP3    H135635   3.824   1.871  16.812 -0.7560 -0.4336  0.2984
 4740TIP3    H235636   3.859   1.908  16.670  0.3004  0.0846  0.6766
 4741TIP3   OH235637   3.963   6.601  16.199 -0.0252  0.4609 -0.4260
 4741TIP3    H135638   3.883   6.553  16.221  0.1459  0.8003  1.0049
 4741TIP3    H235639   4.010   6.541  16.141  0.5569 -1.5325  1.9358
 4742TIP3   OH235640   3.953   4.624  15.241  0.2056 -0.2934  0.3840
 4742TIP3    H135641   4.033   4.677  15.231  0.5812 -0.6022  1.6438
 4742TIP3    H235642   3.962   4.555  15.175  0.4538  0.3038 -0.2193
 4743TIP3   OH235643   3.427   6.234   3.276  0.0294 -0.3838 -0.1534
 4743TIP3    H135644   3.499   6.291   3.249  0.5882 -1.1621 -0.3518
 4743TIP3    H235645   3.459   6.145   3.258 -0.4007 -0.8218  1.0976
 4744TIP3   OH235646   2.824   1.291  11.444  0.1329  0.2823 -0.3615
 4744TIP3    H135647   2.888   1.357  11.472 -0.8605  0.5886  1.3189
 4744TIP3    H235648   2.770   1.335  11.379 -0.1823  0.9812  0.3552
 4745TIP3   OH235649   0.401   1.483   0.811  0.0907 -0.2454  0.0512
 4745TIP3    H135650   0.425   1.518   0.897 -1.6218 -1.8384  1.2714
 4745TIP3    H235651   0.315   1.522   0.793 -0.1332 -0.8958 -0.3207
 4746TIP3   OH235652   0.378   2.085  14.753 -0.6785 -0.1157  0.1847
 4746TIP3    H135653   0.315   2.058  14.820 -0.2618 -2.3810 -0.2476
 4746TIP3    H235654   0.342   2.052  14.671  0.7369 -0.9333 -0.1435
 4747TIP3   OH235655   3.852   4.681  11.543 -0.3340  0.4437  0.6982
 4747TIP3    H135656   3.864   4.602  11.596 -2.1453  0.9166  1.9227
 4747TIP3    H235657   3.763   4.711  11.565 -0.2390  2.0053 -0.8367
 4748TIP3   OH235658   3.560   6.045  16.579 -0.2222 -0.0980  0.0137
 4748TIP3    H135659   3.577   5.952  16.596  0.3366 -0.1689 -0.8808
 4748TIP3    H235660   3.549   6.050  16.484  0.6410  0.8844 -0.0522
 4749TIP3   OH235661   6.602   0.885   0.198  0.0073 -0.4743 -0.0634
 4749TIP3    H135662   6.681   0.931   0.171  0.1853 -0.8309 -0.1527
 4749TIP3    H235663   6.533   0.919   0.140  0.1205 -0.2767 -0.0847
 4750TIP3   OH235664   0.964   0.968  11.654 -0.1794 -0.2032 -0.5607
 4750TIP3    H135665   1.053   0.946  11.627  0.8333  3.7930 -1.0803
 4750TIP3    H235666   0.975   1.025  11.731 -2.3802 -0.5465  0.0928
 4751TIP3   OH235667   6.597   0.197   4.895  0.0706  0.4419  0.0793
 4751TIP3    H135668   6.552   0.191   4.979 -0.0758 -1.3057 -0.0795
 4751TIP3    H235669   6.532   0.235   4.836 -0.1721  0.7332  0.5293
 4752TIP3   OH235670   0.719   3.925   1.416  0.1489 -0.3264 -0.3414
 4752TIP3    H135671   0.709   3.914   1.321  0.0083 -0.3633 -0.3233
 4752TIP3    H235672   0.629   3.924   1.449  0.1500  0.4789 -0.2966
 4753TIP3   OH235673   1.598   2.748  16.650  0.1822 -0.1233  0.2279
 4753TIP3    H135674   1.677   2.716  16.607  0.5734  0.9552  0.1141
 4753TIP3    H235675   1.575   2.678  16.712  0.3637 -1.1022 -0.7804
 4754TIP3   OH235676   4.227   1.425  16.823 -0.5178 -0.2259 -0.1997
 4754TIP3    H135677   4.313   1.464  16.812 -0.3860 -0.3440  0.3737
 4754TIP3    H235678   4.166   1.492  16.793 -0.3830  0.9983  1.9845
 4755TIP3   OH235679   6.690   1.831   4.532  0.5868 -0.3505 -0.1630
 4755TIP3    H135680   6.709   1.780   4.453 -0.2205  0.0534 -0.6322
 4755TIP3    H235681   6.768   1.885   4.544  0.5098 -0.0417 -0.9902
 4756TIP3   OH235682   0.658   0.617   4.595  0.1895 -0.4023 -0.4217
 4756TIP3    H135683   0.656   0.522   4.581 -0.5353  0.0086 -3.9747
 4756TIP3    H235684   0.570   0.646   4.571  0.3727  1.2049  0.7102
 4757TIP3   OH235685   6.055   5.278   6.233  0.4293 -0.2652 -0.4207
 4757TIP3    H135686   5.989   5.232   6.182 -0.4068  0.7112 -0.2642
 4757TIP3    H235687   6.085   5.214   6.298  0.4730 -1.0665 -1.2160
 4758TIP3   OH235688   0.178   6.232  12.127 -1.0731 -0.6035  0.3487
 4758TIP3    H135689   0.167   6.145  12.165  1.7816 -0.0741  2.7072
 4758TIP3    H235690   0.148   6.292  12.195  0.5081  0.2946  0.2936
 4759TIP3   OH235691   4.603   5.332   6.310 -0.0560  0.0432  0.3506
 4759TIP3    H135692   4.661   5.378   6.249  0.1374 -0.5313  0.0924
 4759TIP3    H235693   4.532   5.395   6.327 -0.5167 -0.0536 -1.0673
 4760TIP3   OH235694   1.479   4.602  13.420 -0.3256  0.3847  0.0847
 4760TIP3    H135695   1.563   4.640  13.445  1.1077 -1.7953 -0.9858
 4760TIP3    H235696   1.456   4.646  13.338  1.9316 -1.6214 -1.8155
 4761TIP3   OH235697   4.067   6.556  11.898 -0.5510  0.3070  0.0554
 4761TIP3    H135698   4.017   6.530  11.975 -0.0610  0.0304  0.2790
 4761TIP3    H235699   4.004   6.549  11.825 -1.0910  0.8331  0.4585
 4762TIP3   OH235700   4.561   5.676  14.156  0.0754  0.7050 -0.3274
 4762TIP3    H135701   4.539   5.676  14.249  0.3461  0.5620 -0.2631
 4762TIP3    H235702   4.543   5.586  14.127 -2.0558  1.2444 -0.9103
 4763TIP3   OH235703   4.852   4.066   6.193  0.5591 -0.2532 -0.2579
 4763TIP3    H135704   4.793   4.135   6.164  0.0300 -0.7073 -0.2840
 4763TIP3    H235705   4.908   4.107   6.259 -0.7310 -0.1686  0.8228
 4764TIP3   OH235706   1.104   6.053   2.037  0.0022  0.0872 -0.2766
 4764TIP3    H135707   1.130   5.961   2.032 -0.7144 -0.1332 -0.1181
 4764TIP3    H235708   1.010   6.050   2.057 -0.2250  0.8394 -1.1646
 4765TIP3   OH235709   1.798   0.926  16.153 -0.3052 -0.2470 -0.9421
 4765TIP3    H135710   1.720   0.946  16.205  0.5335 -1.5850  0.9321
 4765TIP3    H235711   1.782   0.969  16.069 -3.0103 -0.3798 -0.5872
 4766TIP3   OH235712   5.990   3.482   4.508  0.6501  0.2051 -0.3984
 4766TIP3    H135713   6.023   3.413   4.564  0.6018 -0.1014 -0.7445
 4766TIP3    H235714   5.956   3.548   4.569 -0.0573 -0.4420 -0.0656
 4767TIP3   OH235715   4.878   2.000   0.005 -0.7786 -0.6507  0.2880
 4767TIP3    H135716   4.950   2.011   0.068  0.9436  0.3375 -1.7090
 4767TIP3    H235717   4.897   1.916  -0.038 -1.3041 -0.7916  0.3314
 4768TIP3   OH235718   2.005   5.308   2.848  0.1430  0.1711  0.3899
 4768TIP3    H135719   1.926   5.276   2.804  0.9579 -2.3060  0.5629
 4768TIP3    H235720   2.077   5.286   2.789  0.9556 -0.3421  1.5075
 4769TIP3   OH235721   0.818   0.235  13.572  0.5865  0.2511 -0.4411
 4769TIP3    H135722   0.763   0.184  13.512  0.7962  0.4636 -0.8189
 4769TIP3    H235723   0.758   0.264  13.640  0.4246 -0.3343 -0.3275
 4770TIP3   OH235724   2.325   3.373  13.086 -0.1424  0.2127 -0.3266
 4770TIP3    H135725   2.289   3.292  13.050  0.1633  0.1146 -0.4112
 4770TIP3    H235726   2.251   3.434  13.086 -0.3996 -0.0971 -0.1603
 4771TIP3   OH235727   0.057   3.839  14.559 -0.0482  0.5267  0.5851
 4771TIP3    H135728   0.031   3.785  14.484  0.6782  2.3226 -1.0224
 4771TIP3    H235729  -0.025   3.878  14.590 -0.5187 -1.1047  1.4976
 4772TIP3   OH235730   2.348   6.503  11.063  0.2079  0.0729  0.0493
 4772TIP3    H135731   2.286   6.460  11.003  0.8486 -1.0058  0.1313
 4772TIP3    H235732   2.292   6.541  11.131 -0.3821 -0.8248  0.0868
 4773TIP3   OH235733   3.665   1.116  16.968 -0.0703  0.2048 -0.7351
 4773TIP3    H135734   3.737   1.122  16.906 -0.3080 -1.8027 -1.2693
 4773TIP3    H235735   3.706   1.097  17.052  0.1298  0.9004 -0.6732
 4774TIP3   OH235736   2.943   1.527   2.810  0.5086  0.1529  0.0394
 4774TIP3    H135737   2.994   1.462   2.762  0.1694 -0.5404  0.5970
 4774TIP3    H235738   2.955   1.608   2.761  1.4875 -0.1773 -0.2918
 4775TIP3   OH235739   1.136   6.609   0.574  0.6787  0.3065  0.0331
 4775TIP3    H135740   1.041   6.599   0.580  0.8558 -1.2893  0.6657
 4775TIP3    H235741   1.150   6.660   0.494 -0.7006  0.5692 -0.0615
 4776TIP3   OH235742   3.764   1.512   3.492 -0.0904 -0.3366 -0.2033
 4776TIP3    H135743   3.733   1.482   3.578  1.6268 -0.4440  0.4252
 4776TIP3    H235744   3.812   1.437   3.457  1.1893  0.4458 -0.2045
 4777TIP3   OH235745   0.688   2.724   0.244 -0.1861 -0.1465 -0.0484
 4777TIP3    H135746   0.674   2.761   0.157 -0.5489  0.6579  0.3515
 4777TIP3    H235747   0.691   2.799   0.303  0.5821 -0.6430  0.5757
 4778TIP3   OH235748   1.635   0.922   1.402  0.3332 -0.9024  0.0056
 4778TIP3    H135749   1.620   0.905   1.494  1.2427 -0.4725  0.2512
 4778TIP3    H235750   1.565   0.983   1.377  1.3278  0.7458  1.0035
 4779TIP3   OH235751   6.020   6.293   3.693  0.7055  0.4254  0.0022
 4779TIP3    H135752   5.934   6.333   3.706 -0.0242 -1.2971  0.7374
 4779TIP3    H235753   6.024   6.222   3.757  2.7592  0.5627  0.0976
 4780TIP3   OH235754   2.033   5.000  16.816  0.1372  0.2020  0.1888
 4780TIP3    H135755   2.024   5.091  16.844  1.7662  0.1497  1.0594
 4780TIP3    H235756   2.008   5.000  16.724  1.4702  1.8443 -0.2263
 4781TIP3   OH235757   1.085   1.025   2.396 -0.1425  0.4041 -0.7580
 4781TIP3    H135758   1.057   0.952   2.341 -1.5893  1.2021 -1.1563
 4781TIP3    H235759   1.123   0.984   2.474 -1.7172 -0.8082 -0.5621
 4782TIP3   OH235760   0.681   4.516  13.001  0.1476 -0.0035 -0.5791
 4782TIP3    H135761   0.590   4.541  13.015  0.6451  1.3600  0.3669
 4782TIP3    H235762   0.701   4.459  13.075 -0.0012 -0.5541 -0.9510
 4783TIP3   OH235763   3.138   2.429   3.488 -0.5974  0.1311  0.3932
 4783TIP3    H135764   3.097   2.463   3.408  0.1662 -1.4577 -0.7223
 4783TIP3    H235765   3.218   2.386   3.458 -1.9606 -3.5662  1.5007
 4784TIP3   OH235766   1.947   4.815   4.702  0.3116 -0.1829 -0.6459
 4784TIP3    H135767   1.956   4.859   4.787  1.0709 -4.1518  1.5349
 4784TIP3    H235768   1.853   4.803   4.691  0.2052  0.4333 -0.4702
 4785TIP3   OH235769   1.668   4.985   1.287  0.1335 -0.0300 -0.0875
 4785TIP3    H135770   1.642   4.908   1.339 -0.2843 -0.1941 -0.5357
 4785TIP3    H235771   1.755   5.007   1.320 -0.0621 -0.2202  0.5846
 4786TIP3   OH235772   6.344   4.594   2.111  0.3618  0.1854  0.1228
 4786TIP3    H135773   6.380   4.663   2.167 -0.9902 -0.4561  1.8473
 4786TIP3    H235774   6.371   4.512   2.153  0.6956 -0.3423 -1.0855
 4787TIP3   OH235775   2.958   6.559   4.249  0.0956 -0.5517 -0.2503
 4787TIP3    H135776   2.895   6.513   4.194  1.4366 -1.9925 -0.6536
 4787TIP3    H235777   2.961   6.648   4.213 -2.4107 -0.1168  0.4310
 4788TIP3   OH235778   4.811   2.298   4.849 -0.4260 -0.1420 -0.2227
 4788TIP3    H135779   4.824   2.390   4.870  0.9350 -0.1877 -0.8280
 4788TIP3    H235780   4.766   2.298   4.765  0.3543 -0.0290 -0.6453
 4789TIP3   OH235781   5.668   5.828  13.275  0.7353  0.2447  0.1538
 4789TIP3    H135782   5.634   5.911  13.243 -1.1693 -0.1275  1.0620
 4789TIP3    H235783   5.760   5.828  13.249  0.3145  1.7669 -1.5524
 4790TIP3   OH235784   3.936   3.939  12.618 -0.3023  0.2711  0.6357
 4790TIP3    H135785   3.968   3.975  12.536 -0.6359 -1.5152 -0.3173
 4790TIP3    H235786   4.011   3.945  12.678  1.2903 -1.9506 -0.9601
 4791TIP3   OH235787   3.514   6.233  10.505  0.1034 -0.1964  0.5269
 4791TIP3    H135788   3.537   6.189  10.423  0.2204  1.8197 -0.5668
 4791TIP3    H235789   3.569   6.311  10.508  0.4934 -0.4806  2.8177
 4792TIP3   OH235790   6.203   6.551  11.451  0.2556 -0.2029  0.0237
 4792TIP3    H135791   6.263   6.507  11.390  1.0522  0.3195  0.4099
 4792TIP3    H235792   6.229   6.519  11.537 -1.1495 -1.2736  0.0864
 4793TIP3   OH235793   1.254   2.604   0.670 -0.8827 -0.3165 -0.0160
 4793TIP3    H135794   1.177   2.660   0.662 -1.1619 -0.9000 -2.1543
 4793TIP3    H235795   1.235   2.528   0.615  0.3014 -1.5757  1.2230
 4794TIP3   OH235796   0.512   2.188  12.626  0.4232  0.2632 -0.0956
 4794TIP3    H135797   0.562   2.230  12.556  2.2546  0.0264  0.9932
 4794TIP3    H235798   0.551   2.100  12.633 -1.4160 -0.6279 -0.4151
 4795TIP3   OH235799   5.838   0.166  16.602  0.2879 -0.3060 -0.0506
 4795TIP3    H135800   5.852   0.072  16.592  1.2796 -0.4132  1.9333
 4795TIP3    H235801   5.907   0.206  16.548 -0.2030 -0.6997 -0.9859
 4796TIP3   OH235802   0.086   3.880   0.613 -0.3583 -0.0901  0.0518
 4796TIP3    H135803   0.154   3.858   0.549  0.6664 -0.9828  1.3844
 4796TIP3    H235804   0.004   3.863   0.567  0.3074  0.4016 -1.3879
 4797TIP3   OH235805   2.416   0.519  11.396 -0.0411  0.4464 -0.2400
 4797TIP3    H135806   2.408   0.604  11.440  1.6864  0.4721  0.1318
 4797TIP3    H235807   2.397   0.455  11.464  0.2889  0.5221 -0.0734
 4798TIP3   OH235808   0.532   0.438  12.769 -0.2189  0.0854  0.3749
 4798TIP3    H135809   0.562   0.442  12.860 -0.1825 -0.2571  0.3785
 4798TIP3    H235810   0.580   0.508  12.725 -0.7765  0.7446  0.7751
 4799TIP3   OH235811   2.452   0.461  10.892 -0.6063  0.1685  0.0216
 4799TIP3    H135812   2.481   0.543  10.851 -0.4276  1.2463  2.1162
 4799TIP3    H235813   2.529   0.431  10.940 -1.4449  0.2839  1.4849
 4800TIP3   OH235814   0.597   0.961  12.314  0.2442 -0.0325 -0.3746
 4800TIP3    H135815   0.578   1.051  12.338 -0.9898 -0.5018  0.5455
 4800TIP3    H235816   0.627   0.921  12.395 -3.9472 -1.6451  0.6539
 4801TIP3   OH235817   1.814   2.954  15.895  0.0632  0.1239 -0.5117
 4801TIP3    H135818   1.901   2.963  15.857  0.3888  0.6713  0.3369
 4801TIP3    H235819   1.789   3.043  15.918 -0.8557  0.0121 -1.0123
 4802TIP3   OH235820   1.123   4.093  16.305 -0.2751  0.0077 -0.2812
 4802TIP3    H135821   1.068   4.124  16.234 -1.0197 -0.6303 -0.0052
 4802TIP3    H235822   1.213   4.107  16.275 -0.5498 -1.4664 -1.9015
 4803TIP3   OH235823   2.934   1.963   0.200 -0.3989  0.2494 -0.2362
 4803TIP3    H135824   2.995   1.920   0.260 -1.6618  0.6770  1.4409
 4803TIP3    H235825   2.942   2.056   0.221  0.0463  0.5470 -1.6462
 4804TIP3   OH235826   1.099   4.733   4.405 -0.1152 -0.3719 -0.4005
 4804TIP3    H135827   1.028   4.724   4.469 -0.9715  0.7195 -1.1591
 4804TIP3    H235828   1.074   4.673   4.334  0.3193 -0.8248 -0.1828
 4805TIP3   OH235829   6.100   4.032  14.632  0.0873 -0.0883  1.0161
 4805TIP3    H135830   6.191   4.041  14.604  0.5626 -3.3445  1.1307
 4805TIP3    H235831   6.090   4.094  14.704  2.2330  0.3017  1.0303
 4806TIP3   OH235832   5.446   2.167  15.287 -0.4359  0.1422  0.0329
 4806TIP3    H135833   5.479   2.077  15.288  0.6912  0.5384  0.0217
 4806TIP3    H235834   5.351   2.158  15.299 -0.3078 -1.0259  0.3081
 4807TIP3   OH235835   0.419   5.883  16.447  0.3742  0.1118 -0.4560
 4807TIP3    H135836   0.413   5.795  16.410 -1.1616  0.0575 -0.1670
 4807TIP3    H235837   0.369   5.938  16.387  1.0893  0.7485 -0.4864
 4808TIP3   OH235838   1.852   2.324  12.667 -0.4524 -0.3379 -0.1861
 4808TIP3    H135839   1.857   2.237  12.708  0.5441 -0.1751  0.0551
 4808TIP3    H235840   1.913   2.378  12.717 -2.8068  1.1847  1.2607
 4809TIP3   OH235841   5.561   6.610  11.437  0.5038 -0.6249 -0.1852
 4809TIP3    H135842   5.604   6.527  11.456 -0.0921 -0.5224  1.8265
 4809TIP3    H235843   5.557   6.614  11.341  0.5533 -2.8862 -0.3261
 4810TIP3   OH235844   5.686   4.057  12.885 -0.1902  0.1774 -0.2085
 4810TIP3    H135845   5.688   4.057  12.981 -0.9633  2.8354 -0.1167
 4810TIP3    H235846   5.673   3.965  12.862  3.4041 -1.1237  2.0665
 4811TIP3   OH235847   6.546   0.392  10.149 -0.0656  0.0208  0.3869
 4811TIP3    H135848   6.638   0.374  10.168 -0.0922  0.6226  1.1272
 4811TIP3    H235849   6.515   0.314  10.103  1.1451  0.3231 -1.0403
 4812TIP3   OH235850   2.210   2.010   1.148 -0.3926 -0.0808 -0.1769
 4812TIP3    H135851   2.273   2.002   1.078 -0.7252  1.1492 -0.6489
 4812TIP3    H235852   2.245   1.956   1.219  0.4995 -0.4637 -0.8954
 4813TIP3   OH235853   5.808   4.157  15.789 -0.2436 -0.4043  0.0069
 4813TIP3    H135854   5.739   4.218  15.763  1.1843  1.3531  0.2093
 4813TIP3    H235855   5.880   4.174  15.728  0.6914 -0.9119  0.9289
 4814TIP3   OH235856   0.586   0.912  15.786  0.3003  0.6342 -0.5351
 4814TIP3    H135857   0.566   1.005  15.781  1.6631  1.0607  0.9513
 4814TIP3    H235858   0.682   0.908  15.784  0.3139 -0.5976  0.7158
 4815TIP3   OH235859   4.673   3.628  11.112 -0.1048  0.1517 -0.4887
 4815TIP3    H135860   4.658   3.640  11.018  0.6660  1.7201 -0.4371
 4815TIP3    H235861   4.587   3.642  11.152  0.0895  2.5718 -0.7422
 4816TIP3   OH235862   2.624   4.404   6.240  0.0131 -0.1506  0.4946
 4816TIP3    H135863   2.570   4.378   6.165  0.9067 -0.8951  0.0870
 4816TIP3    H235864   2.586   4.487   6.270 -0.9873 -0.3650 -0.1349
 4817TIP3   OH235865   0.791   5.571  14.672 -0.6326 -0.1581 -0.2124
 4817TIP3    H135866   0.777   5.583  14.578 -0.2635 -1.4000 -0.4508
 4817TIP3    H235867   0.851   5.497  14.678 -0.7919 -0.2125  1.0111
 4818TIP3   OH235868   5.764   4.440  11.771  0.3439  0.0090  0.5249
 4818TIP3    H135869   5.735   4.428  11.861 -0.5259 -2.5971 -0.0095
 4818TIP3    H235870   5.849   4.396  11.767  0.6563  0.6184  0.1823
 4819TIP3   OH235871   3.450   4.419   3.007  0.4264 -0.9270  0.5511
 4819TIP3    H135872   3.497   4.342   2.976  0.6408 -0.3764 -0.5686
 4819TIP3    H235873   3.459   4.417   3.102  1.5714 -1.5635  0.4423
 4820TIP3   OH235874   6.484   6.599  16.942 -0.0682  1.0633 -0.1353
 4820TIP3    H135875   6.423   6.573  17.011  0.6273  1.6955  0.7549
 4820TIP3    H235876   6.440   6.670  16.896 -1.1361 -0.3013 -1.2921
 4821TIP3   OH235877   2.864   4.367  12.927 -0.6052 -0.5292  0.1312
 4821TIP3    H135878   2.910   4.424  12.989 -0.3762 -0.2576 -0.2793
 4821TIP3    H235879   2.861   4.282  12.969 -1.3895 -0.1045  0.9793
 4822TIP3   OH235880   2.895   5.225   5.412 -0.1423 -0.1728  0.6535
 4822TIP3    H135881   2.836   5.301   5.417  1.4824  1.2139 -0.2219
 4822TIP3    H235882   2.837   5.149   5.417 -2.1762  1.1068 -1.3727
 4823TIP3   OH235883   2.171   3.788   1.910 -0.5750 -0.3614 -0.4741
 4823TIP3    H135884   2.187   3.742   1.828 -0.6157 -2.1106  0.4446
 4823TIP3    H235885   2.257   3.796   1.951 -0.8237 -1.6831  0.3766
 4824TIP3   OH235886   5.588   6.415  13.203  0.3631  0.2559  0.3076
 4824TIP3    H135887   5.639   6.376  13.274  1.0695  0.0374 -0.3115
 4824TIP3    H235888   5.545   6.341  13.161  2.2005  0.0252 -1.2623
 4825TIP3   OH235889   0.248   5.096  13.569  0.2162  0.5674 -0.0280
 4825TIP3    H135890   0.255   5.060  13.657 -0.1994  1.6940  0.4799
 4825TIP3    H235891   0.189   5.037  13.523 -0.7761  0.8074  0.9084
 4826TIP3   OH235892   0.967   6.783   2.463 -0.3784 -0.0829  0.3411
 4826TIP3    H135893   0.931   6.773   2.375  1.5067  0.1404 -0.5068
 4826TIP3    H235894   0.954   6.876   2.484 -0.0418  0.0564 -0.0665
 4827TIP3   OH235895   4.079   3.473  14.793 -0.0210  0.0012 -0.2964
 4827TIP3    H135896   4.083   3.401  14.729 -2.7329 -0.2423 -0.2896
 4827TIP3    H235897   4.131   3.542  14.753  0.1326 -0.9044 -1.7515
 4828TIP3   OH235898   6.557   1.354   2.554  0.6297  0.0708  0.2802
 4828TIP3    H135899   6.522   1.283   2.607 -1.9558  2.5016  2.1320
 4828TIP3    H235900   6.564   1.317   2.466 -2.2359 -2.0319  0.7918
 4829TIP3   OH235901   1.224   2.581  12.799  0.2911 -0.1256  0.3218
 4829TIP3    H135902   1.319   2.572  12.793  0.4180  0.7868  0.8193
 4829TIP3    H235903   1.190   2.523  12.731  1.1965 -0.5650  0.2343
 4830TIP3   OH235904   5.205   1.497   1.269 -0.0862  0.0668  0.0526
 4830TIP3    H135905   5.221   1.415   1.222  0.1364  0.4080 -0.4624
 4830TIP3    H235906   5.117   1.486   1.306  0.0438 -0.5038  0.1994
 4831TIP3   OH235907   3.954   1.709   4.680  0.3722  0.4892 -0.1401
 4831TIP3    H135908   3.901   1.629   4.682  1.7557 -0.4406  1.5929
 4831TIP3    H235909   4.044   1.678   4.686  0.9376  2.1863  0.5849
 4832TIP3   OH235910   2.871   4.022  15.099 -0.0309  0.0604  0.1429
 4832TIP3    H135911   2.821   4.083  15.044  1.8832  1.6996  0.1086
 4832TIP3    H235912   2.896   3.951  15.039 -0.4645  0.3337 -0.3681
 4833TIP3   OH235913   0.815   0.563   2.564 -0.0978 -0.8343  0.1375
 4833TIP3    H135914   0.903   0.528   2.557  0.1596 -0.1002 -0.4949
 4833TIP3    H235915   0.775   0.516   2.637  0.7975 -1.2071  0.3919
 4834TIP3   OH235916   4.247   6.139  11.712  0.3396 -0.1181 -0.2897
 4834TIP3    H135917   4.218   6.079  11.781  0.4021 -0.9431 -0.9656
 4834TIP3    H235918   4.336   6.165  11.739  1.2256 -2.1348 -1.1156
 4835TIP3   OH235919   3.902   4.398  15.709  0.2240 -0.0812  0.0207
 4835TIP3    H135920   3.877   4.483  15.672 -0.7378 -0.0780  0.6373
 4835TIP3    H235921   3.941   4.351  15.636  1.1329  1.0288 -0.2427
 4836TIP3   OH235922   1.007   2.908  17.081  0.1422 -0.3267  0.4441
 4836TIP3    H135923   0.975   2.983  17.032 -1.1028 -1.2633 -0.2190
 4836TIP3    H235924   1.100   2.904  17.059  0.6518  1.9965  1.8285
 4837TIP3   OH235925   2.135   3.177   5.393 -0.3203 -0.0072  0.8503
 4837TIP3    H135926   2.193   3.246   5.424 -1.2529  0.6030  1.2673
 4837TIP3    H235927   2.193   3.117   5.345  0.3771  1.4986 -0.2851
 4838TIP3   OH235928   0.047   5.148  10.773  0.2860 -0.2795  0.1936
 4838TIP3    H135929  -0.037   5.164  10.729 -0.2862 -0.1775  1.2797
 4838TIP3    H235930   0.113   5.181  10.712 -0.3424 -1.7319 -1.3436
 4839TIP3   OH235931   4.128   4.393   2.796  0.1411 -0.2885 -0.2056
 4839TIP3    H135932   4.111   4.484   2.818 -0.1876  0.0451 -1.7650
 4839TIP3    H235933   4.059   4.369   2.735  0.8333 -1.2568 -0.6361
 4840TIP3   OH235934   1.491   4.131  14.674  0.1214  0.2645  0.0779
 4840TIP3    H135935   1.468   4.197  14.739  1.3013 -1.5216  2.4622
 4840TIP3    H235936   1.578   4.100  14.701 -0.2006 -1.9523 -1.1750
 4841TIP3   OH235937   4.811   3.802  13.266  0.4971 -0.1417  0.5596
 4841TIP3    H135938   4.725   3.765  13.245  1.1482  0.0681 -3.2329
 4841TIP3    H235939   4.837   3.849  13.187  3.6885  0.6877  1.9304
 4842TIP3   OH235940   0.965   5.167  16.506 -0.8130 -1.0182  0.2344
 4842TIP3    H135941   1.048   5.184  16.461 -1.1649 -0.2934 -0.1476
 4842TIP3    H235942   0.920   5.251  16.507 -0.5908 -0.8678  2.4109
 4843TIP3   OH235943   6.420   1.039  10.689  0.3703 -1.0283 -0.4272
 4843TIP3    H135944   6.501   1.082  10.661  0.8346 -1.6968 -0.1183
 4843TIP3    H235945   6.409   0.967  10.627 -0.7930 -0.0587 -1.3932
 4844TIP3   OH235946   0.241   1.906   4.855  0.6238  0.0886 -0.2011
 4844TIP3    H135947   0.214   1.922   4.764  0.2374  1.0339  0.0711
 4844TIP3    H235948   0.167   1.860   4.894  0.0878  1.1681  0.0811
 4845TIP3   OH235949   1.248   5.933   0.431  0.0995  0.1165 -0.1004
 4845TIP3    H135950   1.252   5.955   0.524  0.8463  1.4944 -0.4406
 4845TIP3    H235951   1.294   6.004   0.387 -2.2653  0.7401 -1.7629
 4846TIP3   OH235952   1.898   6.757   4.547  0.1104  0.2757  0.1035
 4846TIP3    H135953   1.847   6.774   4.626 -0.4747  0.0998 -0.2238
 4846TIP3    H235954   1.842   6.698   4.495 -0.3513  1.8290 -1.2574
 4847TIP3   OH235955   2.732   2.406   2.590 -0.0677  0.0021  0.6385
 4847TIP3    H135956   2.739   2.496   2.622 -2.2052  1.7018 -3.0072
 4847TIP3    H235957   2.818   2.367   2.606  0.6571  2.3184  3.1000
 4848TIP3   OH235958   0.076   3.163  13.681 -0.7103  0.4640  0.4839
 4848TIP3    H135959   0.147   3.226  13.691 -0.9818  0.9029 -0.3075
 4848TIP3    H235960  -0.003   3.214  13.696 -1.2067  1.2685 -3.7322
 4849TIP3   OH235961   4.942   5.244   2.025  0.6591  0.2060 -0.3982
 4849TIP3    H135962   4.896   5.227   2.107  1.1538 -0.1524 -0.1862
 4849TIP3    H235963   4.965   5.336   2.028  2.1542 -0.1588  0.6570
 4850TIP3   OH235964   5.276   2.985   3.896 -0.2310  0.5114 -0.1791
 4850TIP3    H135965   5.280   2.911   3.835 -0.0631  0.3862 -0.0165
 4850TIP3    H235966   5.351   2.973   3.953  0.4867  1.4692 -0.8945
 4851TIP3   OH235967   4.881   1.870  13.594  0.1196 -0.4932 -0.2106
 4851TIP3    H135968   4.816   1.855  13.663  0.5073  0.2791  0.3314
 4851TIP3    H235969   4.866   1.961  13.567  1.4362 -0.0609  0.4250
 4852TIP3   OH235970   6.211   1.873  11.592  0.0877 -0.5556  0.0700
 4852TIP3    H135971   6.250   1.847  11.675 -2.7660 -1.2647  1.2962
 4852TIP3    H235972   6.204   1.968  11.598 -2.8059 -0.7747  2.0707
 4853TIP3   OH235973   5.779   6.458  13.926  0.2472 -0.3003 -0.1780
 4853TIP3    H135974   5.684   6.459  13.938 -0.1487 -0.5234 -2.6606
 4853TIP3    H235975   5.814   6.506  14.001 -1.8326  0.0383  0.6384
 4854TIP3   OH235976   3.498   4.745  12.824 -0.4796 -0.8334 -0.5556
 4854TIP3    H135977   3.554   4.811  12.865 -0.6606  0.5171 -2.3527
 4854TIP3    H235978   3.558   4.689  12.774 -0.4565 -1.2012 -0.1176
 4855TIP3   OH235979   1.642   3.450  13.835  0.0883 -0.2284 -0.0123
 4855TIP3    H135980   1.627   3.401  13.916  1.2914 -0.9521 -0.1936
 4855TIP3    H235981   1.566   3.507  13.827  0.8422  1.3444  2.6931
 4856TIP3   OH235982   0.823   3.357   3.922 -0.0952 -0.5523 -0.1797
 4856TIP3    H135983   0.910   3.325   3.947 -0.1145  0.6913  1.5873
 4856TIP3    H235984   0.840   3.415   3.848  0.8976  1.3500  1.4556
 4857TIP3   OH235985   4.088   4.997   0.004 -0.4327 -0.0470 -0.7031
 4857TIP3    H135986   4.120   4.970   0.090 -0.9499  0.1297 -0.4512
 4857TIP3    H235987   3.994   5.008   0.016 -0.3266  1.2601 -0.9439
 4858TIP3   OH235988   1.992   1.664  12.206  0.2209 -0.0160  0.2354
 4858TIP3    H135989   2.007   1.665  12.111  0.1564  1.4932  0.2201
 4858TIP3    H235990   2.071   1.624  12.243  1.1817  1.2847 -0.3307
 4859TIP3   OH235991   1.002   4.361  14.035 -0.4359  0.6839  0.7173
 4859TIP3    H135992   0.986   4.332  14.125  1.3814 -1.0747  0.5534
 4859TIP3    H235993   1.088   4.404  14.039 -0.5183  0.9369 -0.1063
 4860TIP3   OH235994   4.758   4.605   1.714  0.2449 -0.3152 -0.2387
 4860TIP3    H135995   4.671   4.594   1.752  0.5817 -0.4958  0.5055
 4860TIP3    H235996   4.758   4.548   1.637 -0.4524  0.0594 -0.5231
 4861TIP3   OH235997   5.756   4.474   4.818  0.3262  0.4762 -0.0266
 4861TIP3    H135998   5.829   4.426   4.778 -0.1088  0.2721 -0.5927
 4861TIP3    H235999   5.797   4.528   4.885  0.7265 -1.3376  1.2548
 4862TIP3   OH236000   3.188   1.385   2.693 -0.1909  0.1887 -0.2730
 4862TIP3    H136001   3.228   1.301   2.673 -1.3665 -0.5165  0.2664
 4862TIP3    H236002   3.239   1.420   2.766 -1.1413 -1.1833  1.1118
 4863TIP3   OH236003   1.143   3.048  13.304 -0.1925 -0.3239  0.0146
 4863TIP3    H136004   1.166   2.960  13.274 -1.0742 -0.7669  0.6080
 4863TIP3    H236005   1.050   3.043  13.323  0.0979  0.2635  1.7257
 4864TIP3   OH236006   2.023   5.399  14.967  0.4683 -0.2731 -0.1396
 4864TIP3    H136007   1.996   5.447  14.888 -0.5904 -0.9505 -0.2043
 4864TIP3    H236008   2.031   5.466  15.035 -0.5278  0.0617 -0.3454
 4865TIP3   OH236009   5.054   2.472   5.967 -0.3268 -0.1056  0.3618
 4865TIP3    H136010   4.986   2.520   5.919  0.2515 -0.7920 -1.2311
 4865TIP3    H236011   5.032   2.380   5.952  0.3486 -0.3292  0.7332
 4866TIP3   OH236012   5.985   3.680   2.292 -0.1781  0.0003  0.5596
 4866TIP3    H136013   6.031   3.712   2.214 -0.2599  2.4178  1.3932
 4866TIP3    H236014   5.895   3.665   2.262  0.3348 -1.4703 -0.3221
 4867TIP3   OH236015   6.680   0.551  12.256 -0.0127  0.0968 -0.5918
 4867TIP3    H136016   6.665   0.457  12.243  1.1352 -0.2794  0.5382
 4867TIP3    H236017   6.613   0.578  12.318  1.2413 -0.6302  1.1811
 4868TIP3   OH236018   4.949   6.750   1.887 -0.6216 -0.0241  0.0426
 4868TIP3    H136019   4.877   6.812   1.876 -0.3943  0.2280 -0.0452
 4868TIP3    H236020   5.028   6.805   1.884 -0.4750 -0.1324  1.3817
 4869TIP3   OH236021   4.312   2.690  15.053 -0.1869 -0.5396 -0.0350
 4869TIP3    H136022   4.270   2.608  15.028 -0.2033 -0.5675  0.0824
 4869TIP3    H236023   4.260   2.722  15.127 -1.6360  0.7825 -1.5369
 4870TIP3   OH236024   4.727   0.019   1.378 -0.0844 -0.8814  0.0022
 4870TIP3    H136025   4.652   0.005   1.320 -0.6110 -2.9117  1.1033
 4870TIP3    H236026   4.804  -0.002   1.324 -0.2553  0.8243 -1.0059
 4871TIP3   OH236027   6.130   2.064   0.734  0.4292  0.3185 -0.2408
 4871TIP3    H136028   6.095   2.149   0.760  2.5638  1.4365 -0.7684
 4871TIP3    H236029   6.076   2.037   0.660 -1.4245  0.3006  1.0509
 4872TIP3   OH236030   4.294   3.531   4.585 -0.0796 -0.0893 -0.0792
 4872TIP3    H136031   4.295   3.511   4.492  0.9497 -1.0767  0.1199
 4872TIP3    H236032   4.215   3.486   4.618 -0.4734  0.3082 -0.4771
 4873TIP3   OH236033   1.480   0.810  16.125 -0.2491 -0.2927  0.7150
 4873TIP3    H136034   1.392   0.772  16.123  0.1169 -1.1213  0.2543
 4873TIP3    H236035   1.469   0.898  16.087 -0.5916 -0.9915 -0.8674
 4874TIP3   OH236036   0.546   2.170   2.461  0.6222 -0.4179 -0.1198
 4874TIP3    H136037   0.546   2.088   2.511 -0.7632 -0.4422 -0.1142
 4874TIP3    H236038   0.566   2.143   2.371 -0.2637 -0.8445 -0.2052
 4875TIP3   OH236039   1.966   5.369   2.234 -0.4699 -0.0712 -0.2718
 4875TIP3    H136040   2.012   5.448   2.263  0.4221 -1.0325  1.0324
 4875TIP3    H236041   2.035   5.303   2.223 -1.2569 -0.8294 -0.8208
 4876TIP3   OH236042   5.510   4.425   4.713 -1.2332  0.7230 -0.5385
 4876TIP3    H136043   5.464   4.434   4.796 -1.4612  2.5692 -0.8194
 4876TIP3    H236044   5.591   4.473   4.725 -0.6217 -0.1796 -0.9503
 4877TIP3   OH236045   4.794   6.350  12.890 -0.3182  0.3659  0.3341
 4877TIP3    H136046   4.797   6.399  12.807 -0.0720  1.2519  0.8554
 4877TIP3    H236047   4.810   6.416  12.957 -0.0010 -0.4394  1.0611
 4878TIP3   OH236048   3.121   6.742   0.540  0.8286  0.6996  0.4053
 4878TIP3    H136049   3.115   6.773   0.450 -2.3733  0.0704  0.2927
 4878TIP3    H236050   3.082   6.811   0.593  0.7555  0.1715  1.0588
 4879TIP3   OH236051   0.906   4.790  16.774  0.5230 -0.4377  0.3065
 4879TIP3    H136052   0.894   4.770  16.682 -1.1251 -0.3083  0.4684
 4879TIP3    H236053   0.905   4.886  16.778 -2.6268 -0.3951  0.7688
 4880TIP3   OH236054   0.755   3.523   0.806  0.2263  0.5663  0.6688
 4880TIP3    H136055   0.698   3.446   0.811  0.6933 -0.0004 -1.4593
 4880TIP3    H236056   0.720   3.584   0.871 -0.5972 -1.1525  1.9050
 4881TIP3   OH236057   0.827   1.738   3.246  0.2215  0.1450  0.0813
 4881TIP3    H136058   0.734   1.742   3.266  0.2078 -0.0695  0.0614
 4881TIP3    H236059   0.836   1.791   3.166  0.1903  0.5366  0.3317
 4882TIP3   OH236060   1.845   6.531  13.601  0.0367  0.2527  0.3485
 4882TIP3    H136061   1.790   6.485  13.539  1.2047  0.0376 -0.5510
 4882TIP3    H236062   1.885   6.462  13.654  1.8529  0.1851 -1.0551
 4883TIP3   OH236063   5.180   3.062  11.446  0.3037 -0.3438  0.2192
 4883TIP3    H136064   5.152   3.121  11.516 -1.0110 -0.4505 -0.1788
 4883TIP3    H236065   5.228   2.993  11.491 -0.5007 -0.3998  1.0359
 4884TIP3   OH236066   0.768   2.498   2.936 -0.1956  0.4805  0.0093
 4884TIP3    H136067   0.823   2.483   3.012  0.1485  0.6505 -0.2053
 4884TIP3    H236068   0.700   2.431   2.942  0.9476 -0.7770 -0.5929
 4885TIP3   OH236069   6.528   3.668  14.902 -0.1600  0.9689 -0.2358
 4885TIP3    H136070   6.526   3.639  14.811 -0.8994 -2.0131  0.5883
 4885TIP3    H236071   6.620   3.684  14.920  0.3942 -1.1089 -0.8474
 4886TIP3   OH236072   0.935   4.969   0.234 -0.3125 -0.0633 -0.6660
 4886TIP3    H136073   0.978   4.884   0.225 -1.1593 -0.4320 -1.4330
 4886TIP3    H236074   0.919   4.998   0.144 -0.6962  0.5618 -0.4085
 4887TIP3   OH236075   5.963   1.824   1.787 -0.4911  0.0874 -0.4840
 4887TIP3    H136076   5.871   1.807   1.807 -0.3506 -0.7410 -0.5124
 4887TIP3    H236077   5.973   1.796   1.696 -0.0891 -0.3359 -0.3118
 4888TIP3   OH236078   6.562   2.527  12.061 -0.0260  0.1041 -0.0803
 4888TIP3    H136079   6.621   2.513  12.135 -0.3513 -0.2778  0.1114
 4888TIP3    H236080   6.592   2.608  12.022  1.5891 -0.8546 -0.9107
 4889TIP3   OH236081   0.594   2.854   3.942  0.1162  0.3712  0.0614
 4889TIP3    H136082   0.541   2.781   3.910 -0.3018  0.8503 -0.3638
 4889TIP3    H236083   0.684   2.824   3.934 -0.0869 -0.4743  0.8323
 4890TIP3   OH236084   2.650   3.358  13.060  0.0643 -0.0131  0.4499
 4890TIP3    H136085   2.743   3.356  13.085  0.6581 -1.2330 -1.6628
 4890TIP3    H236086   2.651   3.369  12.965 -1.9530 -0.5639  0.3267
 4891TIP3   OH236087   5.233   3.137  15.269  0.2344 -0.0744  0.1029
 4891TIP3    H136088   5.160   3.190  15.237  0.9274 -0.5489 -2.4909
 4891TIP3    H236089   5.202   3.102  15.352 -2.8863 -0.9835 -1.2843
 4892TIP3   OH236090   4.481   3.226  11.771  0.0823 -0.0438 -0.3700
 4892TIP3    H136091   4.424   3.266  11.836 -0.5426 -2.6136  0.7796
 4892TIP3    H236092   4.422   3.172  11.718  0.9275  0.2137 -1.6181
 4893TIP3   OH236093   1.329   2.633  16.537  0.0765 -0.1257  0.0605
 4893TIP3    H136094   1.363   2.597  16.619 -1.1944 -1.6531 -0.0312
 4893TIP3    H236095   1.385   2.596  16.469  2.3491  2.6199  0.2446
 4894TIP3   OH236096   2.337   3.195  14.845 -0.0781 -0.2632  0.8889
 4894TIP3    H136097   2.336   3.128  14.776  1.1952 -0.4562  1.0339
 4894TIP3    H236098   2.267   3.169  14.905 -2.1077  0.6270 -0.9637
 4895TIP3   OH236099   6.814   3.151   5.374 -0.2555 -0.5961 -0.2575
 4895TIP3    H136100   6.804   3.095   5.297 -0.1210 -2.0740  0.7751
 4895TIP3    H236101   6.861   3.097   5.437 -1.4259  0.1576  1.3117
 4896TIP3   OH236102   4.003   1.700  12.464 -0.1352 -0.6829  0.0042
 4896TIP3    H136103   4.045   1.761  12.404  0.5645 -0.9594  0.2073
 4896TIP3    H236104   4.054   1.620  12.458  0.8004 -0.3121  1.9323
 4897TIP3   OH236105   6.432   3.959   0.072  1.2110 -0.1096  0.8403
 4897TIP3    H136106   6.379   3.904   0.014  1.2010  1.2886 -0.5479
 4897TIP3    H236107   6.517   3.915   0.075  2.0275  0.9937 -2.2977
 4898TIP3   OH236108   3.654   6.439   4.930  0.8174 -0.0161  1.0266
 4898TIP3    H136109   3.584   6.376   4.947  1.1180 -0.4468  0.7099
 4898TIP3    H236110   3.730   6.384   4.910  0.9878  0.4546  0.3659
 4899TIP3   OH236111   3.483   6.349  14.874  0.0851 -0.1494  0.7384
 4899TIP3    H136112   3.405   6.326  14.824  0.4563  1.5242 -0.6969
 4899TIP3    H236113   3.549   6.285  14.846  0.3019  0.7863 -1.0345
 4900TIP3   OH236114   3.454   5.832  12.614  0.0131 -0.2672 -0.4488
 4900TIP3    H136115   3.546   5.804  12.618  0.0965  0.1534  1.4388
 4900TIP3    H236116   3.413   5.792  12.690 -1.0221  0.7486 -0.4454
 4901TIP3   OH236117   0.409   5.257  16.446  0.0296  0.4280  0.0790
 4901TIP3    H136118   0.422   5.309  16.367  0.1202  1.6460  0.8618
 4901TIP3    H236119   0.335   5.299  16.490  1.4840  1.3147  1.8198
 4902TIP3   OH236120   3.728   4.764  15.299 -0.1680 -0.0035 -0.0477
 4902TIP3    H136121   3.768   4.844  15.334  0.6086 -1.0124  1.4431
 4902TIP3    H236122   3.800   4.701  15.293 -0.7932 -0.6480 -1.0916
 4903TIP3   OH236123   6.630   3.774   0.013  0.2723 -0.0332 -0.3031
 4903TIP3    H136124   6.725   3.783   0.019  0.1474  0.3367  2.7506
 4903TIP3    H236125   6.616   3.688  -0.026  1.9244 -0.9844  1.0440
 4904TIP3   OH236126   4.509   6.790   4.282  0.1587 -0.5359  0.2323
 4904TIP3    H136127   4.492   6.855   4.214 -1.0620 -1.1132 -0.0390
 4904TIP3    H236128   4.471   6.829   4.361  1.1514 -0.0762  0.4917
 4905TIP3   OH236129   2.375   0.213   4.641 -0.1453  0.3445 -0.4313
 4905TIP3    H136130   2.316   0.146   4.607 -0.3320  0.8892 -1.2098
 4905TIP3    H236131   2.363   0.288   4.582  0.3668  0.9158  0.1705
 4906TIP3   OH236132   0.311   0.630  17.036 -0.4185 -0.1803 -0.1620
 4906TIP3    H136133   0.227   0.668  17.011 -0.8330 -1.8049 -1.4266
 4906TIP3    H236134   0.292   0.581  17.116 -0.1216  1.3193  0.8599
 4907TIP3   OH236135   6.797   5.685  16.818  0.0074  0.5056  0.3377
 4907TIP3    H136136   6.799   5.592  16.798  3.1467  0.8342 -1.5357
 4907TIP3    H236137   6.793   5.728  16.733  0.5712  2.0961  1.0713
 4908TIP3   OH236138   0.894   2.173   1.138 -0.2499  0.1267 -0.2982
 4908TIP3    H136139   0.824   2.120   1.176  1.1873 -0.9514  0.9625
 4908TIP3    H236140   0.858   2.261   1.135 -1.3649 -0.2403  1.1335
 4909TIP3   OH236141   4.442   1.096   5.746 -0.5428 -0.6250 -0.2383
 4909TIP3    H136142   4.418   1.013   5.787  1.0579 -0.0888  1.9547
 4909TIP3    H236143   4.508   1.134   5.804 -0.3830  1.6675 -1.7686
 4910TIP3   OH236144   3.682   6.050   1.464 -0.0381 -0.2220  0.3050
 4910TIP3    H136145   3.750   6.090   1.520 -0.1327 -1.0349  1.0223
 4910TIP3    H236146   3.730   6.007   1.394  0.2375 -1.1501  1.0401
 4911TIP3   OH236147   0.409   5.125   1.113 -0.1436  0.5050 -0.2239
 4911TIP3    H136148   0.337   5.097   1.056  0.2759  0.3805 -0.6915
 4911TIP3    H236149   0.488   5.092   1.071  0.0720 -1.0402  1.2730
 4912TIP3   OH236150   6.526   0.337  13.316  0.2537 -0.0070  0.6605
 4912TIP3    H136151   6.601   0.358  13.260 -0.2267 -1.5287 -0.6045
 4912TIP3    H236152   6.565   0.292  13.391  0.6704 -0.2915  0.2812
 4913TIP3   OH236153   0.469   3.886  14.088  0.7335  0.0121 -0.3372
 4913TIP3    H136154   0.516   3.935  14.155  2.1533 -0.3492 -1.0313
 4913TIP3    H236155   0.447   3.951  14.021 -0.5746  0.3484  0.3756
 4914TIP3   OH236156   6.078   3.428   1.633  0.2778  0.7642  0.3970
 4914TIP3    H136157   6.143   3.369   1.670 -1.0974 -0.2284  1.2918
 4914TIP3    H236158   6.093   3.424   1.538  0.2344 -1.0232  0.4360
 4915TIP3   OH236159   4.136   6.455  12.629  0.2434 -0.1785 -0.2843
 4915TIP3    H136160   4.093   6.495  12.553  0.0513 -0.9583 -0.5993
 4915TIP3    H236161   4.095   6.497  12.705 -0.4316 -0.2691 -0.5944
 4916TIP3   OH236162   6.417   1.613   4.108  0.9090  0.3149 -0.2342
 4916TIP3    H136163   6.458   1.693   4.075 -0.5491  1.1329 -0.1303
 4916TIP3    H236164   6.370   1.642   4.187 -0.4209 -0.4320 -0.7232
 4917TIP3   OH236165   5.666   3.817  13.469  0.8094  0.4595 -0.2500
 4917TIP3    H136166   5.632   3.863  13.545  0.7465  0.6532 -0.3933
 4917TIP3    H236167   5.625   3.731  13.471 -1.8432  1.5736 -1.9053
 4918TIP3   OH236168   6.582   0.612   1.379  0.7755 -0.2913  0.4670
 4918TIP3    H136169   6.674   0.619   1.407  1.4363  2.1490 -1.9949
 4918TIP3    H236170   6.585   0.557   1.301 -0.0654 -1.0047  0.9098
 4919TIP3   OH236171   3.016   3.276   1.093 -0.4465  0.4074  0.5096
 4919TIP3    H136172   2.950   3.255   1.027 -1.3559  0.9268  1.2156
 4919TIP3    H236173   2.990   3.224   1.169  1.9218 -2.0062 -0.1881
 4920TIP3   OH236174   1.324   6.710  15.424 -0.4518 -0.1519  0.0446
 4920TIP3    H136175   1.412   6.732  15.392  0.9293 -1.5335  2.5666
 4920TIP3    H236176   1.276   6.686  15.345  2.1658 -1.6073 -1.2662
 4921TIP3   OH236177   3.575   1.073   5.460  0.5651 -0.3437 -0.5726
 4921TIP3    H136178   3.486   1.050   5.435  0.8405 -0.7830 -1.1619
 4921TIP3    H236179   3.585   1.165   5.435 -0.1238  0.0962  0.6447
 4922TIP3   OH236180   5.946   0.585   4.821 -0.0482 -0.0998 -0.1925
 4922TIP3    H136181   5.959   0.674   4.789 -1.2868  0.2723  0.2627
 4922TIP3    H236182   5.929   0.596   4.915  3.0667 -1.1245  0.6152
 4923TIP3   OH236183   2.440   3.672  14.655 -0.8035 -0.2079 -0.6603
 4923TIP3    H136184   2.399   3.756  14.635  3.8970  2.0429 -2.5414
 4923TIP3    H236185   2.462   3.677  14.748 -3.4572 -0.9972  0.0934
 4924TIP3   OH236186   0.038   1.830   2.716  0.4768  0.4742 -0.2323
 4924TIP3    H136187   0.081   1.745   2.730  2.8278  1.7841  1.3192
 4924TIP3    H236188  -0.054   1.809   2.704  0.8295 -2.2436  0.9937
 4925TIP3   OH236189   1.007   3.844   2.249  0.0991  0.2598 -0.0950
 4925TIP3    H136190   1.100   3.830   2.232 -0.2559 -0.1690 -1.7813
 4925TIP3    H236191   1.000   3.938   2.266  0.7710  0.3594 -0.3382
 4926TIP3   OH236192   5.060   0.012  16.388  0.2460 -0.1478 -0.2657
 4926TIP3    H136193   5.020   0.098  16.402 -0.6110 -0.4928 -0.5215
 4926TIP3    H236194   5.149   0.021  16.422  0.1827  0.8543 -0.3472
 4927TIP3   OH236195   5.804   1.901   4.222  0.2166  0.5943  0.2951
 4927TIP3    H136196   5.870   1.966   4.247  0.1901  0.7732 -0.0992
 4927TIP3    H236197   5.820   1.884   4.130 -0.4242  0.7942  0.1419
 4928TIP3   OH236198   1.769   3.956  10.918 -0.2050 -0.4418 -0.1147
 4928TIP3    H136199   1.774   3.993  11.006 -1.3407 -1.0960  0.2506
 4928TIP3    H236200   1.687   3.990  10.882 -0.7049 -1.6433 -0.1894
 4929TIP3   OH236201   0.674   2.873   5.873  0.4304 -0.0379 -0.4175
 4929TIP3    H136202   0.652   2.859   5.966 -0.5690  0.9404 -0.4862
 4929TIP3    H236203   0.696   2.785   5.841 -2.3522 -0.9845 -0.0282
 4930TIP3   OH236204   1.992   2.159   3.835 -0.7765 -0.0764  0.1587
 4930TIP3    H136205   1.923   2.130   3.776  2.9609 -1.8683 -3.8838
 4930TIP3    H236206   2.040   2.224   3.786  1.9732 -0.8544  1.6013
 4931TIP3   OH236207   0.045   2.505   2.387  0.0498  0.6054  0.3055
 4931TIP3    H136208   0.096   2.456   2.452 -0.5130 -2.9062 -1.6307
 4931TIP3    H236209  -0.042   2.464   2.390 -0.7351  2.0759 -0.9458
 4932TIP3   OH236210   2.349   5.979  13.296  0.8647  0.2157 -0.0594
 4932TIP3    H136211   2.424   6.037  13.282  0.5918  0.6444  0.2395
 4932TIP3    H236212   2.312   5.968  13.208  1.4948 -0.3031 -0.2670
 4933TIP3   OH236213   2.740   4.451  16.122 -0.4511  0.9590 -0.1696
 4933TIP3    H136214   2.665   4.448  16.181 -0.6335  1.0547 -0.3986
 4933TIP3    H236215   2.708   4.494  16.043  0.0064  1.5829 -0.0295
 4934TIP3   OH236216   3.498   5.166  14.355 -0.6345 -0.9541 -0.3362
 4934TIP3    H136217   3.514   5.199  14.443 -0.1103  1.9744 -1.3971
 4934TIP3    H236218   3.585   5.150  14.319 -0.7796 -0.9601 -0.6939
 4935TIP3   OH236219   3.315   0.974   3.289 -0.3789  0.4709  0.5471
 4935TIP3    H136220   3.359   1.054   3.316  3.1383 -1.7882  2.3694
 4935TIP3    H236221   3.272   0.942   3.368 -2.9939  1.1392 -0.5093
 4936TIP3   OH236222   4.029   0.611  15.406 -0.8114 -0.0947 -0.2050
 4936TIP3    H136223   4.034   0.644  15.496  0.3843  0.6654 -0.5190
 4936TIP3    H236224   3.944   0.642  15.374 -0.0039  2.2456 -0.2704
 4937TIP3   OH236225   6.717   2.363  13.161  0.8222  0.0028  0.0047
 4937TIP3    H136226   6.626   2.334  13.171  0.7711  0.4274  0.9081
 4937TIP3    H236227   6.770   2.287  13.185  0.6899  0.2343  1.1105
 4938TIP3   OH236228   4.463   6.728   3.600 -0.0686 -0.2198 -0.2994
 4938TIP3    H136229   4.404   6.763   3.667  0.3070 -0.7815  0.3377
 4938TIP3    H236230   4.550   6.741   3.637  0.0818 -2.0116  0.0676
 4939TIP3   OH236231   0.480   3.515   0.662 -0.2772  0.3622  0.0142
 4939TIP3    H136232   0.545   3.502   0.594  0.7883  3.5615  0.2478
 4939TIP3    H236233   0.507   3.457   0.733 -0.1347 -1.3827 -1.3934
 4940TIP3   OH236234   2.354   5.658  13.750  0.4256  0.3030 -0.5562
 4940TIP3    H136235   2.330   5.715  13.823 -0.5088  0.0876 -0.6889
 4940TIP3    H236236   2.398   5.716  13.688  0.4036  0.6675 -0.2350
 4941TIP3   OH236237   0.958   2.770   1.466  0.6190  0.3382 -0.1130
 4941TIP3    H136238   0.907   2.740   1.391  2.0314 -2.1092 -0.1965
 4941TIP3    H236239   0.913   2.849   1.496 -1.7313 -0.3268 -1.6648
 4942TIP3   OH236240   4.978   6.021   2.321 -0.5778 -0.3161  0.2100
 4942TIP3    H136241   4.920   6.081   2.369  0.1905  1.7478 -1.2941
 4942TIP3    H236242   5.043   6.078   2.281 -0.0371 -2.1455 -1.6939
 4943TIP3   OH236243   2.301   0.933  16.243 -0.1623 -0.7749 -0.8913
 4943TIP3    H136244   2.371   0.868  16.246  0.9834  0.3376 -1.9319
 4943TIP3    H236245   2.253   0.912  16.162  0.4512 -0.1242 -1.4388
 4944TIP3   OH236246   4.024   5.806  17.076  0.0723  0.1408 -0.5382
 4944TIP3    H136247   4.075   5.726  17.093  0.1855  0.0379 -1.3289
 4944TIP3    H236248   4.088   5.877  17.081  0.1969  0.0626 -1.0199
 4945TIP3   OH236249   3.878   1.732  12.028 -0.5173 -0.1468  0.3575
 4945TIP3    H136250   3.887   1.646  11.987 -0.7020 -0.3795  0.8041
 4945TIP3    H236251   3.818   1.779  11.969  0.2829 -0.0052 -0.3691
 4946TIP3   OH236252   0.186   6.380   3.531  0.4558 -0.4766 -0.1408
 4946TIP3    H136253   0.199   6.321   3.606  1.0982  2.2656  2.0737
 4946TIP3    H236254   0.272   6.419   3.516 -0.6601  2.8301  1.1993
 4947TIP3   OH236255   1.708   5.742   3.232  0.0945  0.1502 -0.3898
 4947TIP3    H136256   1.793   5.722   3.191  0.1065  0.1019 -0.3409
 4947TIP3    H236257   1.730   5.801   3.305  0.2804 -1.1966  0.6816
 4948TIP3   OH236258   1.145   0.782  12.775 -0.2703  0.4585 -0.5699
 4948TIP3    H136259   1.221   0.812  12.725 -0.7302 -0.6497 -2.0104
 4948TIP3    H236260   1.179   0.760  12.861  0.9970  0.2060 -1.1213
 4949TIP3   OH236261   6.149   6.314  14.320 -0.8986  0.3761  0.3374
 4949TIP3    H136262   6.077   6.265  14.279  1.2947 -0.8915 -2.3261
 4949TIP3    H236263   6.186   6.365  14.248  1.4453  0.2261  1.3598
 4950TIP3   OH236264   0.936   5.127   4.565 -0.2939  0.0361 -0.0111
 4950TIP3    H136265   1.010   5.090   4.613 -0.5283  0.6268  0.8286
 4950TIP3    H236266   0.961   5.119   4.473  0.2880 -0.8481  0.2139
 4951TIP3   OH236267   0.642   6.781   0.666 -0.3388 -1.1169 -0.0707
 4951TIP3    H136268   0.620   6.823   0.583 -2.3650  0.2612  1.0871
 4951TIP3    H236269   0.558   6.770   0.711  0.8741  0.9526  3.0488
 4952TIP3   OH236270   6.191   4.826   5.969  0.2940 -0.6327  0.3749
 4952TIP3    H136271   6.193   4.903   5.913 -1.6156 -1.7088 -1.3092
 4952TIP3    H236272   6.107   4.832   6.015 -0.8225 -2.5936 -1.2457
 4953TIP3   OH236273   2.641   1.445  12.797 -0.0971  0.1589 -0.0580
 4953TIP3    H136274   2.626   1.539  12.790  1.4548  0.5845  1.3810
 4953TIP3    H236275   2.675   1.419  12.712 -1.4111  0.7006 -0.7635
 4954TIP3   OH236276   4.450   5.242   3.262 -0.6519  0.4642  0.6061
 4954TIP3    H136277   4.447   5.146   3.269 -2.7958  0.4756  0.4704
 4954TIP3    H236278   4.420   5.272   3.348 -0.8369  0.9989  0.3526
 4955TIP3   OH236279   3.863   4.096   2.852 -0.5936  1.2232 -0.0309
 4955TIP3    H136280   3.906   4.056   2.927 -0.2557  0.6453 -0.5296
 4955TIP3    H236281   3.916   4.071   2.777 -0.6351  2.2293 -0.4103
 4956TIP3   OH236282   6.085   0.287   3.940 -0.0852  0.1146  0.3624
 4956TIP3    H136283   5.999   0.324   3.958 -0.0378 -0.2545  1.3937
 4956TIP3    H236284   6.073   0.240   3.857 -0.4759  1.2920 -0.2721
 4957TIP3   OH236285   0.942   6.608   0.887  0.1053  0.0133  0.2730
 4957TIP3    H136286   0.854   6.574   0.904  0.3969 -2.0394 -1.7834
 4957TIP3    H236287   0.964   6.658   0.965 -2.0098 -1.2646  1.7989
 4958TIP3   OH236288   0.741   5.665   3.676  0.0177  0.0573 -0.3906
 4958TIP3    H136289   0.703   5.744   3.635  0.5796 -0.8030 -2.7366
 4958TIP3    H236290   0.801   5.631   3.610 -0.3378 -2.4471  0.4909
 4959TIP3   OH236291   6.810   1.974   2.211  0.2165  0.0618 -0.3495
 4959TIP3    H136292   6.735   2.002   2.264  1.3103  0.5442  1.0121
 4959TIP3    H236293   6.856   2.055   2.191 -0.5028 -0.0247 -2.6748
 4960TIP3   OH236294   6.230   1.459   0.111  0.3610 -0.2093 -0.8408
 4960TIP3    H136295   6.260   1.491   0.196 -1.2252  0.3475 -0.4480
 4960TIP3    H236296   6.266   1.521   0.047  1.0104 -0.2507 -0.5192
 4961TIP3   OH236297   5.844   3.667  11.822  0.4384  0.2080  0.4394
 4961TIP3    H136298   5.927   3.642  11.863  0.2047  0.7932  1.2888
 4961TIP3    H236299   5.792   3.587  11.821  0.9834 -0.1476 -0.0423
 4962TIP3   OH236300   5.981   3.289   0.699 -0.3036  0.3735  0.0861
 4962TIP3    H136301   5.999   3.234   0.623 -0.9339  0.3833 -0.0737
 4962TIP3    H236302   6.054   3.351   0.702  0.9428 -1.0610  0.8430
 4963TIP3   OH236303   4.144   1.592   2.189 -0.0617  0.1376 -0.0393
 4963TIP3    H136304   4.177   1.614   2.276  0.6603 -0.3175 -0.1883
 4963TIP3    H236305   4.075   1.527   2.205  1.4317 -1.4861  0.1065
 4964TIP3   OH236306   3.067   2.465  12.800  0.1616 -0.4728  0.1867
 4964TIP3    H136307   3.015   2.543  12.815  0.8689  0.1478 -0.5193
 4964TIP3    H236308   3.130   2.463  12.871 -1.0354 -1.4488  1.2803
 4965TIP3   OH236309   4.092   3.429   2.921 -0.6430  0.6682 -0.1686
 4965TIP3    H136310   4.070   3.417   2.828 -0.2906  0.0254 -0.1769
 4965TIP3    H236311   4.008   3.423   2.966 -0.6090 -0.9121 -0.2770
 4966TIP3   OH236312   1.965   4.671   1.502 -0.0555 -0.5058  0.3047
 4966TIP3    H136313   2.035   4.705   1.447 -0.8381 -0.9841 -1.0318
 4966TIP3    H236314   1.957   4.579   1.478 -1.1152 -0.4686  0.4423
 4967TIP3   OH236315   2.228   0.661   4.537 -0.0614  0.4430 -0.4402
 4967TIP3    H136316   2.133   0.654   4.548 -0.0035  0.2817 -0.0068
 4967TIP3    H236317   2.259   0.698   4.620  0.4884 -1.4776  0.2628
 4968TIP3   OH236318   0.936   0.853  14.969 -0.2824  0.0546 -0.0669
 4968TIP3    H136319   1.013   0.909  14.972 -0.9033  1.1061 -1.9785
 4968TIP3    H236320   0.971   0.764  14.963  0.8725  0.5767 -2.1725
 4969TIP3   OH236321   1.042   6.698   0.269  0.0490 -0.1481  0.4570
 4969TIP3    H136322   1.097   6.698   0.191 -1.1255  2.3562 -0.4565
 4969TIP3    H236323   0.954   6.713   0.238 -0.5291  0.4304  2.2331
 4970TIP3   OH236324   2.635   0.241  12.520 -0.0866 -0.1588  0.7246
 4970TIP3    H136325   2.571   0.242  12.591 -1.8391 -0.5486 -0.7657
 4970TIP3    H236326   2.621   0.325  12.475 -0.1589 -0.6006 -0.0980
 4971TIP3   OH236327   5.486   2.043   4.706 -0.2041 -0.7308 -0.3254
 4971TIP3    H136328   5.474   1.948   4.698  1.4570 -1.0270  0.2674
 4971TIP3    H236329   5.459   2.078   4.621 -2.0632 -1.5636 -0.1347
 4972TIP3   OH236330   1.944   3.846  12.750 -0.2019  0.3213  0.2415
 4972TIP3    H136331   1.854   3.815  12.739 -0.6630  1.4925  0.6416
 4972TIP3    H236332   1.937   3.940  12.763  1.0334  0.3387  0.9810
 4973TIP3   OH236333   1.203   4.026  14.345  0.1628 -0.2588 -0.3891
 4973TIP3    H136334   1.198   4.106  14.397 -0.0415 -0.6879  0.2750
 4973TIP3    H236335   1.278   4.039  14.287  0.3020  0.2969 -0.0864
 4974TIP3   OH236336   4.812   1.145  16.663 -0.4601 -0.3412  0.2545
 4974TIP3    H136337   4.821   1.157  16.758  2.0312 -0.9881  0.1695
 4974TIP3    H236338   4.834   1.230  16.626  1.0789 -0.7385  0.2046
 4975TIP3   OH236339   0.280   2.394   0.989 -0.0886  0.5964  0.1606
 4975TIP3    H136340   0.211   2.397   0.924 -1.3421 -0.7575  1.3437
 4975TIP3    H236341   0.238   2.420   1.071  1.0229  0.6245  0.7506
 4976TIP3   OH236342   0.263   4.298  15.214 -0.1963 -0.0173 -0.2130
 4976TIP3    H136343   0.214   4.314  15.133  0.7038 -1.4394 -1.0871
 4976TIP3    H236344   0.240   4.371  15.271 -1.8999  0.3146 -1.2520
 4977TIP3   OH236345   1.061   1.315  13.997 -0.2376  0.1117  0.0860
 4977TIP3    H136346   1.091   1.252  14.063 -1.1514  1.1194  1.5371
 4977TIP3    H236347   1.128   1.382  13.996 -0.1812  0.0533 -0.0812
 4978TIP3   OH236348   6.626   1.653   1.154  0.6962 -0.2417 -0.6964
 4978TIP3    H136349   6.660   1.699   1.231  1.1860 -1.3441 -0.2366
 4978TIP3    H236350   6.575   1.581   1.190 -4.0181  2.4233 -1.2645
 4979TIP3   OH236351   0.665   3.160   4.894  0.4525 -0.5909  0.1085
 4979TIP3    H136352   0.587   3.207   4.926  0.3641 -1.3194  1.0027
 4979TIP3    H236353   0.630   3.083   4.850  0.5644  0.4894 -2.0091
 4980TIP3   OH236354   0.574   1.324   3.079 -0.1324 -0.2900 -0.0707
 4980TIP3    H136355   0.563   1.339   3.173  0.0054 -2.7400  0.4085
 4980TIP3    H236356   0.665   1.296   3.070 -0.6512 -1.9813 -0.5733
 4981TIP3   OH236357   6.311   3.735   4.303 -0.8891 -0.0225 -0.1271
 4981TIP3    H136358   6.372   3.793   4.349 -0.9874  1.1627 -1.4318
 4981TIP3    H236359   6.293   3.665   4.366  0.1470  0.7374  1.0658
 4982TIP3   OH236360   4.680   0.946  15.846 -0.1217  0.7230 -0.4324
 4982TIP3    H136361   4.634   0.886  15.787  0.2022  0.8634 -0.8344
 4982TIP3    H236362   4.628   0.945  15.926 -0.1111 -0.1076 -0.4236
 4983TIP3   OH236363   1.024   0.756   2.779  0.7934  0.1852  0.1022
 4983TIP3    H136364   1.089   0.686   2.786  1.5439  0.8131 -0.3801
 4983TIP3    H236365   0.979   0.755   2.863  0.5287 -1.1224 -0.0336
 4984TIP3   OH236366   2.199   1.319   2.327 -0.4115  0.8294 -0.5870
 4984TIP3    H136367   2.250   1.394   2.297 -0.0034  1.5475  1.7565
 4984TIP3    H236368   2.255   1.243   2.311 -1.0350  0.8226 -3.4835
 4985TIP3   OH236369   6.483   4.528  13.303  0.1974 -0.1640 -0.5690
 4985TIP3    H136370   6.499   4.469  13.228  1.0021 -0.0825 -0.4675
 4985TIP3    H236371   6.524   4.610  13.278  1.7858 -0.5672  0.5564
 4986TIP3   OH236372   1.115   1.234   3.015  0.0108  0.5234 -0.0869
 4986TIP3    H136373   1.139   1.317   2.975  0.0178  0.4162 -0.3050
 4986TIP3    H236374   1.029   1.213   2.978 -0.0531  0.5024  0.0720
 4987TIP3   OH236375   5.539   2.695   0.290  0.2855  0.3020  0.0722
 4987TIP3    H136376   5.613   2.634   0.296  0.3074  0.3874  0.8357
 4987TIP3    H236377   5.484   2.671   0.365 -1.0365 -0.5109 -1.1170
 4988TIP3   OH236378   2.558   3.140  15.240 -0.0647 -0.3011  0.4420
 4988TIP3    H136379   2.503   3.212  15.273 -1.0521 -0.8854  0.1082
 4988TIP3    H236380   2.604   3.108  15.318 -1.0785 -0.5487  0.9650
 4989TIP3   OH236381   3.276   3.923   5.144  1.0977  0.0947 -0.0992
 4989TIP3    H136382   3.259   4.014   5.169 -1.7012 -0.7289  1.5283
 4989TIP3    H236383   3.193   3.893   5.106  2.0697 -1.6942 -0.9057
 4990TIP3   OH236384   4.849   5.546   4.709 -0.2401  0.0605 -0.0625
 4990TIP3    H136385   4.769   5.574   4.754 -0.9958  1.3210 -2.0488
 4990TIP3    H236386   4.909   5.619   4.720 -0.8268  0.8994 -1.9195
 4991TIP3   OH236387   1.317   1.729   3.823 -0.0924  0.0629  0.2275
 4991TIP3    H136388   1.266   1.661   3.779  2.6327 -1.7994 -0.3367
 4991TIP3    H236389   1.344   1.787   3.752  0.8387 -0.5810  0.0235
 4992TIP3   OH236390   1.236   3.239  14.192  0.2265  0.0927 -0.3609
 4992TIP3    H136391   1.311   3.231  14.251  0.0003 -0.3229 -0.1297
 4992TIP3    H236392   1.250   3.170  14.126 -0.4463 -0.6300  0.2323
 4993TIP3   OH236393   0.313   3.787   4.521  0.0104 -0.1429 -0.1367
 4993TIP3    H136394   0.405   3.809   4.533 -0.1151 -0.6074  1.9546
 4993TIP3    H236395   0.314   3.698   4.485  0.3608  0.0186 -0.5410
 4994TIP3   OH236396   1.122   3.216   0.284  0.2795  0.9359 -0.1936
 4994TIP3    H136397   1.138   3.185   0.373 -0.7966 -0.3769 -0.4296
 4994TIP3    H236398   1.187   3.171   0.231 -0.8350 -0.4706 -0.4340
 4995TIP3   OH236399   3.815   1.371  14.041 -0.0229 -0.3281  0.6240
 4995TIP3    H136400   3.869   1.427  14.097  0.0357  0.0556  0.1942
 4995TIP3    H236401   3.807   1.420  13.959  0.3466 -1.1139  0.0986
 4996TIP3   OH236402   6.648   5.462  14.162  0.3727 -0.0529  0.7388
 4996TIP3    H136403   6.677   5.521  14.092  0.1232  0.2434  0.8837
 4996TIP3    H236404   6.655   5.375  14.123  0.5814  0.0831  0.4640
 4997TIP3   OH236405   3.346   5.649   3.513 -0.3381  0.0328 -0.0300
 4997TIP3    H136406   3.326   5.556   3.505 -1.1788  0.3306 -2.0185
 4997TIP3    H236407   3.266   5.687   3.551 -1.2375  0.3157 -2.0527
 4998TIP3   OH236408   3.937   1.084  12.350 -0.1083  0.1286  0.1451
 4998TIP3    H136409   3.958   1.144  12.278  1.3475 -0.0948  0.3671
 4998TIP3    H236410   4.003   1.016  12.344 -0.3961 -0.2648  1.2852
 4999TIP3   OH236411   0.526   6.556  16.104  0.0237  0.5342 -0.1728
 4999TIP3    H136412   0.451   6.611  16.083  0.2990  0.2281 -2.1460
 4999TIP3    H236413   0.587   6.614  16.150 -0.6823  1.2241 -0.0988
 5000TIP3   OH236414   0.658   3.130  15.018  0.5875 -0.0372  0.1549
 5000TIP3    H136415   0.711   3.193  15.066 -0.2591  1.1295 -0.4070
 5000TIP3    H236416   0.621   3.073  15.086 -0.7349  1.6887  0.9532
 5001TIP3   OH236417   2.326   5.425  15.868  0.1335 -0.0571 -0.1705
 5001TIP3    H136418   2.269   5.353  15.892 -1.8576  1.5772  0.3036
 5001TIP3    H236419   2.337   5.416  15.773  0.9145 -1.6180  0.0384
 5002TIP3   OH236420   0.201   0.379  14.045  0.0148 -0.1934  0.5668
 5002TIP3    H136421   0.220   0.366  13.952 -0.7423  0.5974  0.2862
 5002TIP3    H236422   0.217   0.293  14.085 -0.4970 -0.7860 -0.4412
 5003TIP3   OH236423   6.326   4.660   2.448 -0.2419  0.1007 -0.1103
 5003TIP3    H136424   6.257   4.608   2.491 -0.2628  1.6838  1.8869
 5003TIP3    H236425   6.407   4.617   2.473 -0.1454  1.8448  2.9152
 5004TIP3   OH236426   2.159   5.446  13.991  0.4245  0.6489 -0.9553
 5004TIP3    H136427   2.208   5.412  13.916  0.6869  0.8212 -0.8629
 5004TIP3    H236428   2.068   5.422  13.973  0.4083  1.1774 -1.6008
 5005TIP3   OH236429   3.429   5.523  10.784 -0.6451 -0.1150 -0.4346
 5005TIP3    H136430   3.519   5.500  10.810 -0.8357 -0.0917  0.2681
 5005TIP3    H236431   3.379   5.442  10.797 -0.7033 -0.1636 -0.9473
 5006TIP3   OH236432   0.361   5.179  14.445  0.0580 -0.2696  0.2255
 5006TIP3    H136433   0.316   5.244  14.391  1.3465  0.6102  0.1438
 5006TIP3    H236434   0.292   5.121  14.477 -1.0402  0.7299 -0.2746
 5007TIP3   OH236435   1.614   3.212   1.208 -0.2126  0.1129 -0.1135
 5007TIP3    H136436   1.684   3.175   1.155 -0.2001  0.5403 -0.4023
 5007TIP3    H236437   1.536   3.163   1.182 -0.0038 -0.4513  0.3019
 5008TIP3   OH236438   5.404   4.324  12.528  0.1054  0.5284 -0.2556
 5008TIP3    H136439   5.395   4.232  12.553  2.6018  0.1299 -0.5630
 5008TIP3    H236440   5.372   4.327  12.437 -1.4544  0.3493  0.2478
 5009TIP3   OH236441   5.446   5.787   3.773  0.1909  0.5040 -0.5940
 5009TIP3    H136442   5.355   5.758   3.762 -0.0069  1.4484 -1.6674
 5009TIP3    H236443   5.497   5.721   3.726  0.1256 -0.3437  0.4993
 5010TIP3   OH236444   1.804   4.688   6.103  0.5738  0.1607 -0.5240
 5010TIP3    H136445   1.765   4.606   6.071  1.1422 -1.1204  1.8096
 5010TIP3    H236446   1.750   4.712   6.178  2.2415  0.1694  0.7169
 5011TIP3   OH236447   4.964   5.945   1.525 -0.4925  0.4086  0.1047
 5011TIP3    H136448   4.971   6.009   1.596  0.0426  0.0353  0.3956
 5011TIP3    H236449   5.031   5.971   1.462  0.6814 -0.6553  0.8718
 5012TIP3   OH236450   2.794   3.659   6.103  0.0651  0.1092  0.5309
 5012TIP3    H136451   2.741   3.668   6.182 -0.5409 -1.4817  0.3337
 5012TIP3    H236452   2.881   3.688   6.130  0.2214 -1.7348  2.2304
 5013TIP3   OH236453   0.206   3.696  16.517  0.0068 -0.1028  0.1921
 5013TIP3    H136454   0.286   3.716  16.566 -0.1393  0.4340  0.2152
 5013TIP3    H236455   0.238   3.669  16.431  0.3630 -2.8573  1.0991
 5014TIP3   OH236456   0.961   2.593   5.212 -0.7202 -0.3935  0.1984
 5014TIP3    H136457   0.880   2.632   5.244  0.1153  0.8542  0.9008
 5014TIP3    H236458   1.022   2.601   5.286  0.1091 -1.0946 -0.3908
 5015TIP3   OH236459   0.113   6.150   2.510 -0.7427 -0.4545 -0.0722
 5015TIP3    H136460   0.184   6.134   2.572 -1.1630 -1.3728  0.1778
 5015TIP3    H236461   0.058   6.072   2.515 -1.7690  0.2375 -0.2765
 5016TIP3   OH236462   5.352   6.739   0.664 -0.0895 -0.3023 -0.2550
 5016TIP3    H136463   5.368   6.645   0.652 -0.2384 -0.2447 -0.9759
 5016TIP3    H236464   5.280   6.758   0.604 -0.0100  0.2880 -0.1655
 5017TIP3   OH236465   5.646   0.865   3.868 -0.0835  0.0315 -0.0470
 5017TIP3    H136466   5.645   0.895   3.958  0.8847 -0.8473  0.2800
 5017TIP3    H236467   5.680   0.940   3.818 -0.4952  0.4718  0.3241
 5018TIP3   OH236468   3.664   4.191   4.911  0.1532 -0.7168  0.7304
 5018TIP3    H136469   3.574   4.204   4.942 -0.4906 -2.0915 -0.4427
 5018TIP3    H236470   3.677   4.262   4.847 -1.0395 -1.9083 -0.9300
 5019TIP3   OH236471   1.331   6.120   4.862 -0.2423  0.4000 -0.7590
 5019TIP3    H136472   1.332   6.212   4.888  1.7398  0.0595  0.5997
 5019TIP3    H236473   1.423   6.095   4.856 -0.7108 -1.1320 -2.5791
 5020TIP3   OH236474   5.355   3.705   6.484 -0.2249  0.3972 -0.1828
 5020TIP3    H136475   5.345   3.611   6.468  1.8910 -0.6377  3.3532
 5020TIP3    H236476   5.266   3.738   6.491 -1.0224 -1.3276 -1.4358
 5021TIP3   OH236477   3.347   4.610  13.438  0.1925  0.0503 -0.0609
 5021TIP3    H136478   3.294   4.677  13.480  1.3228  0.6033  0.5288
 5021TIP3    H236479   3.437   4.641  13.447  0.6050 -0.6413 -1.4117
 5022TIP3   OH236480   0.888   3.344   0.210 -0.3389  0.0855 -0.1859
 5022TIP3    H136481   0.850   3.265   0.172  0.0389 -0.4408  0.5089
 5022TIP3    H236482   0.967   3.314   0.255 -1.0743  0.5699  1.5382
 5023TIP3   OH236483   4.709   5.434   1.028  0.0462 -0.5478  0.5052
 5023TIP3    H136484   4.733   5.359   1.082 -0.9816 -1.0569  0.2819
 5023TIP3    H236485   4.684   5.396   0.944 -0.1518  0.0822  0.2742
 5024TIP3   OH236486   5.867   3.315   5.879 -0.0088  0.2748 -0.4299
 5024TIP3    H136487   5.952   3.331   5.838  0.6030  0.3320  0.8306
 5024TIP3    H236488   5.852   3.391   5.935 -0.9348  0.2999 -0.6854
 5025TIP3   OH236489   6.584   4.602   6.256 -0.2791 -0.1132 -0.2333
 5025TIP3    H136490   6.496   4.572   6.277 -0.5484  0.0193 -1.1580
 5025TIP3    H236491   6.621   4.629   6.340 -1.1973  0.0449  0.1215
 5026TIP3   OH236492   4.965   4.520   3.158  0.5867  0.6153 -0.5846
 5026TIP3    H136493   4.960   4.511   3.063 -3.3161 -0.8993 -0.4079
 5026TIP3    H236494   4.903   4.590   3.179 -0.4898 -0.7295  0.9339
 5027TIP3   OH236495   2.655   3.185  11.629  0.4030 -0.1699  0.0164
 5027TIP3    H136496   2.602   3.246  11.578 -1.0008 -1.5878 -0.2978
 5027TIP3    H236497   2.725   3.159  11.570  0.8061  0.8347  0.0306
 5028TIP3   OH236498   4.496   1.187   1.164 -0.8363 -0.0017  0.2923
 5028TIP3    H136499   4.555   1.127   1.208 -0.9020 -0.8175 -0.6884
 5028TIP3    H236500   4.408   1.156   1.187 -0.9908 -2.8686 -3.3221
 5029TIP3   OH236501   3.265   6.267  10.380 -0.2136 -0.1671  0.3434
 5029TIP3    H136502   3.208   6.223  10.316 -1.7438 -1.7511  2.6384
 5029TIP3    H236503   3.326   6.200  10.408 -0.2550  0.1891  1.3065
 5030TIP3   OH236504   5.702   4.813  12.265  0.0410  0.6583  0.1034
 5030TIP3    H136505   5.782   4.813  12.213 -1.3242 -0.8803 -2.1578
 5030TIP3    H236506   5.703   4.729  12.311 -0.9393 -0.0714 -1.1397
 5031TIP3   OH236507   0.193   1.327   1.056  0.4632 -0.5770 -0.5970
 5031TIP3    H136508   0.168   1.413   1.092 -0.7947 -0.7667 -0.9871
 5031TIP3    H236509   0.117   1.300   1.004  1.6746 -0.9642 -2.2370
 5032TIP3   OH236510   1.311   0.358   3.536 -0.0286 -0.3046 -0.1395
 5032TIP3    H136511   1.277   0.400   3.457  2.1689 -0.0556 -1.0186
 5032TIP3    H236512   1.308   0.264   3.517  0.6891 -0.2362 -0.6347
 5033TIP3   OH236513   6.155   0.001   0.911 -0.1717  0.6530  0.0666
 5033TIP3    H136514   6.072   0.003   0.957  0.2072 -0.8763  0.9054
 5033TIP3    H236515   6.185   0.092   0.911 -1.8170  1.2241 -0.2533
 5034TIP3   OH236516   4.516   1.510   1.263 -0.0201 -0.0702 -0.4887
 5034TIP3    H136517   4.456   1.448   1.305  0.2294  1.2366  2.0303
 5034TIP3    H236518   4.458   1.576   1.223 -0.4052  1.2649  2.0473
 5035TIP3   OH236519   3.369   4.113  15.159  0.1146 -0.1380  0.4336
 5035TIP3    H136520   3.360   4.033  15.211 -1.0707  0.4138  1.1162
 5035TIP3    H236521   3.357   4.184  15.222  0.9944  0.5856 -0.1920
 5036TIP3   OH236522   3.952   0.020  11.157 -0.2116 -0.2702 -0.5118
 5036TIP3    H136523   4.022  -0.045  11.162  1.0468  1.1395  1.9887
 5036TIP3    H236524   3.877  -0.021  11.200  0.3739 -0.3129  0.4771
 5037TIP3   OH236525   2.321   0.865   0.111  0.5930  0.0700 -0.2050
 5037TIP3    H136526   2.292   0.806   0.181 -1.3009 -0.0386 -1.0077
 5037TIP3    H236527   2.369   0.808   0.050 -0.4542 -0.4978 -0.5295
 5038TIP3   OH236528   3.547   2.494  15.586 -0.6672  0.1959 -0.8728
 5038TIP3    H136529   3.496   2.419  15.617 -0.7646  0.4879 -0.3157
 5038TIP3    H236530   3.638   2.468  15.598 -0.6894 -0.0909 -1.3054
 5039TIP3   OH236531   2.842   0.738  17.037 -0.2966 -0.4938 -0.3401
 5039TIP3    H136532   2.855   0.644  17.019  1.5750 -0.1816 -0.9195
 5039TIP3    H236533   2.799   0.772  16.959 -2.2446 -1.0644  0.4222
 5040TIP3   OH236534   4.098   1.385   1.017  0.0656  0.0974  0.6009
 5040TIP3    H136535   4.060   1.456   1.069  0.7344  0.2106  0.9455
 5040TIP3    H236536   4.145   1.429   0.947 -0.2253 -0.0365  0.3184
 5041TIP3   OH236537   5.092   5.509  16.567  0.0019 -0.3320 -0.1840
 5041TIP3    H136538   5.023   5.506  16.634 -1.4212  3.1708 -1.2186
 5041TIP3    H236539   5.060   5.453  16.497 -1.0201 -0.0830  0.0555
 5042TIP3   OH236540   2.974   0.775   4.174  0.2917 -0.3175 -0.7699
 5042TIP3    H136541   3.038   0.718   4.130  0.8237  0.3796 -0.9301
 5042TIP3    H236542   2.982   0.858   4.127 -0.1468  0.0198 -0.2450
 5043TIP3   OH236543   3.381   1.269   4.765 -0.0111 -0.5937  0.2189
 5043TIP3    H136544   3.295   1.304   4.790 -0.0224 -1.4901  1.5129
 5043TIP3    H236545   3.378   1.268   4.669 -1.3085 -0.2718  0.2283
 5044TIP3   OH236546   1.506   6.121  14.204  0.4302 -0.4051 -0.2615
 5044TIP3    H136547   1.567   6.048  14.211 -0.2227 -0.8751  1.1274
 5044TIP3    H236548   1.432   6.095  14.259  0.7787  1.8919  1.4664
 5045TIP3   OH236549   3.441   4.568  16.430  0.3627 -0.4844 -0.5211
 5045TIP3    H136550   3.377   4.504  16.401 -0.2786  0.0562 -0.3231
 5045TIP3    H236551   3.503   4.518  16.483 -0.0998 -0.9426 -0.4071
 5046TIP3   OH236552   6.406   3.860  15.328 -0.4435 -0.0209 -0.0767
 5046TIP3    H136553   6.344   3.903  15.269  1.3109 -0.6793 -2.5680
 5046TIP3    H236554   6.433   3.781  15.281  2.1517  0.1843  0.9286
 5047TIP3   OH236555   2.977   2.846  14.596  0.2129  0.1981  0.5138
 5047TIP3    H136556   3.004   2.798  14.674  0.1459 -0.2956  0.2337
 5047TIP3    H236557   2.982   2.938  14.622 -1.3463  0.0033  1.5973
 5048TIP3   OH236558   2.218   6.030  12.780 -0.2869 -0.3992  0.0500
 5048TIP3    H136559   2.135   6.046  12.735  0.2097 -0.5184 -0.9404
 5048TIP3    H236560   2.284   6.070  12.723  0.0450  3.8261  2.9101
 5049TIP3   OH236561   0.498   6.467   5.181 -0.2186 -0.3679 -0.1581
 5049TIP3    H136562   0.592   6.448   5.189  0.0595  1.2825  1.0480
 5049TIP3    H236563   0.485   6.483   5.088  0.7357 -0.4038 -0.3123
 5050TIP3   OH236564   6.643   0.014   5.599 -0.1868 -0.5269 -0.3573
 5050TIP3    H136565   6.699   0.091   5.612  1.3784 -1.3166 -2.0875
 5050TIP3    H236566   6.609  -0.005   5.687  2.3047 -0.0367  0.8151
 5051TIP3   OH236567   4.253   4.117   0.765  0.0014 -0.5848  0.2598
 5051TIP3    H136568   4.326   4.059   0.744  0.0614 -0.4408  0.0582
 5051TIP3    H236569   4.265   4.192   0.706 -0.2294 -0.4956  0.3246
 5052TIP3   OH236570   3.807   3.638  13.380  0.1515  0.8669  0.6099
 5052TIP3    H136571   3.841   3.554  13.412 -0.5696 -0.4117 -1.7673
 5052TIP3    H236572   3.725   3.650  13.428  0.6358  0.6198  1.5297
 5053TIP3   OH236573   0.708   2.226   1.435 -0.7493  0.3514 -0.0675
 5053TIP3    H136574   0.780   2.206   1.494  0.7906  1.3209 -1.5191
 5053TIP3    H236575   0.684   2.142   1.396  0.3685  0.1524 -0.3663
 5054TIP3   OH236576   1.276   1.384  15.369  0.0589  0.1759 -0.1746
 5054TIP3    H136577   1.257   1.364  15.277 -0.0121 -1.2617  0.1194
 5054TIP3    H236578   1.191   1.402  15.408 -0.2976 -1.9749  0.1852
 5055TIP3   OH236579   4.860   0.950   2.656 -0.4095 -0.7058  0.2763
 5055TIP3    H136580   4.810   1.031   2.650  0.8172 -0.0077 -1.3854
 5055TIP3    H236581   4.853   0.910   2.570  0.7965 -1.2458  0.4023
 5056TIP3   OH236582   0.499   5.619   5.827  0.4133 -0.3553 -0.0760
 5056TIP3    H136583   0.459   5.700   5.858 -0.7153 -0.8109 -0.2934
 5056TIP3    H236584   0.593   5.632   5.840  0.2423  0.9284  0.0157
 5057TIP3   OH236585   4.369   6.135  12.223  0.4064 -0.0482 -0.0175
 5057TIP3    H136586   4.460   6.144  12.196 -0.4019 -0.5116 -3.3736
 5057TIP3    H236587   4.330   6.221  12.205 -0.3499 -0.6260 -1.3487
 5058TIP3   OH236588   4.452   6.361   2.356  0.1614 -0.1528 -0.6697
 5058TIP3    H136589   4.441   6.438   2.300 -1.0018 -1.6106 -2.6148
 5058TIP3    H236590   4.441   6.394   2.445 -0.7477  1.8661 -1.4612
 5059TIP3   OH236591   5.144   1.977  12.833  0.1649 -0.4304 -0.0205
 5059TIP3    H136592   5.095   1.925  12.769  0.3723 -0.2875 -0.2973
 5059TIP3    H236593   5.109   1.949  12.918  0.1039 -0.8473 -0.1782
 5060TIP3   OH236594   1.095   5.961  11.796 -0.3954  0.2153 -0.5167
 5060TIP3    H136595   1.127   5.934  11.882 -2.0212 -0.2720 -0.0285
 5060TIP3    H236596   1.158   6.028  11.768  1.9997 -1.8233 -0.4050
 5061TIP3   OH236597   4.544   5.179  12.160  0.6284  0.6164  0.0224
 5061TIP3    H136598   4.497   5.187  12.076  0.8223  0.5159 -0.0963
 5061TIP3    H236599   4.590   5.096  12.153  0.7967  0.6997  0.1532
 5062TIP3   OH236600   6.794   0.109  10.998 -0.1082 -0.3421 -0.1761
 5062TIP3    H136601   6.833   0.066  11.074  1.0725 -2.1675 -1.7183
 5062TIP3    H236602   6.700   0.098  11.010  0.0759 -0.9642  0.8276
 5063TIP3   OH236603   3.640   6.242   2.847 -0.2500  0.4577 -0.0001
 5063TIP3    H136604   3.631   6.233   2.752 -0.7078  0.1445  0.0664
 5063TIP3    H236605   3.733   6.231   2.864  0.1752  2.6733 -0.6251
 5064TIP3   OH236606   0.115   4.922  16.538 -0.1912  0.1417  0.0434
 5064TIP3    H136607   0.124   4.894  16.447 -1.2206  2.4576 -0.8622
 5064TIP3    H236608   0.151   4.850  16.589  2.8359 -0.1642 -2.2559
 5065TIP3   OH236609   3.607   1.384   1.655 -0.4832 -0.1386  0.3867
 5065TIP3    H136610   3.529   1.359   1.606  0.9183 -0.7773 -1.6258
 5065TIP3    H236611   3.680   1.365   1.597  1.2510 -0.0719  2.4037
 5066TIP3   OH236612   0.506   4.169  11.302  0.4371  0.0313  0.2410
 5066TIP3    H136613   0.531   4.245  11.249 -0.9402 -0.1791 -0.7690
 5066TIP3    H236614   0.509   4.201  11.393  0.3137  1.1621 -0.1366
 5067TIP3   OH236615   2.623   2.377   1.318 -0.1906  0.4218  0.0501
 5067TIP3    H136616   2.626   2.285   1.291 -1.3823  0.1548  0.7250
 5067TIP3    H236617   2.675   2.380   1.398  1.2858  0.7093 -0.8880
 5068TIP3   OH236618   6.199   3.479   4.966 -0.1263  0.2109  0.5099
 5068TIP3    H136619   6.198   3.573   4.946 -1.6206  0.5898  2.1329
 5068TIP3    H236620   6.112   3.449   4.941  0.6048 -0.9622 -0.7562
 5069TIP3   OH236621   6.625   4.478  12.239  0.2412  0.0830 -0.2043
 5069TIP3    H136622   6.673   4.551  12.278  0.0519  0.1479 -0.0902
 5069TIP3    H236623   6.683   4.403  12.249 -0.2440 -0.1345  1.2043
 5070TIP3   OH236624   1.904   5.585  14.222  0.5205 -0.1126 -0.2978
 5070TIP3    H136625   1.879   5.663  14.172 -0.8010 -0.4585 -0.2095
 5070TIP3    H236626   1.830   5.568  14.280  0.9798 -1.1706  0.0085
 5071TIP3   OH236627   2.458   6.171  16.560  0.5385  0.3618 -0.1237
 5071TIP3    H136628   2.382   6.227  16.547 -1.5164 -1.7787  1.7768
 5071TIP3    H236629   2.458   6.111  16.486 -0.7557 -0.7491  0.7269
 5072TIP3   OH236630   5.419   2.669   4.988 -0.0796  0.0274 -0.3816
 5072TIP3    H136631   5.393   2.717   4.910 -1.2383 -0.1588 -0.1271
 5072TIP3    H236632   5.349   2.605   5.001 -0.1044  0.3039  1.0202
 5073TIP3   OH236633   5.163   5.443   4.053 -0.4060 -0.2915  0.1128
 5073TIP3    H136634   5.129   5.466   3.966  0.5662 -2.2652 -0.8766
 5073TIP3    H236635   5.253   5.475   4.052 -0.9810  1.4772  1.2229
 5074TIP3   OH236636   2.195   1.745   6.004 -0.3773  0.1579 -0.7170
 5074TIP3    H136637   2.213   1.651   6.008 -0.2894  0.2100  0.4205
 5074TIP3    H236638   2.271   1.783   5.960 -0.1052 -0.2304 -0.5825
 5075TIP3   OH236639   0.841   0.283   5.628 -0.0868  0.8175  0.0509
 5075TIP3    H136640   0.919   0.339   5.631 -1.5919  3.0191  0.2008
 5075TIP3    H236641   0.787   0.313   5.702  0.0842 -2.5711  1.7357
 5076TIP3   OH236642   1.992   4.437  12.466  0.0947 -0.2998  0.4002
 5076TIP3    H136643   1.951   4.523  12.474  1.0705  0.3806 -1.4908
 5076TIP3    H236644   2.017   4.430  12.374  2.8323 -1.2890  1.1152
 5077TIP3   OH236645   6.647   5.016  13.557  0.0621  0.1713  0.4800
 5077TIP3    H136646   6.560   5.043  13.586 -0.1795 -0.4447  0.3321
 5077TIP3    H236647   6.708   5.064  13.614 -0.3851 -0.0637  1.1585
 5078TIP3   OH236648   1.124   0.658   5.395  0.1370 -0.1259  0.6678
 5078TIP3    H136649   1.040   0.705   5.400 -0.6066 -0.8402 -2.5005
 5078TIP3    H236650   1.179   0.699   5.462 -1.6519  2.7401  0.5665
 5079TIP3   OH236651   0.105   5.909   4.816  0.2790 -0.4794  0.1949
 5079TIP3    H136652   0.021   5.907   4.862 -1.5675  2.0622 -2.6745
 5079TIP3    H236653   0.100   5.834   4.756  0.8490 -1.2884  1.1202
 5080TIP3   OH236654   4.609   6.271  15.516 -0.2136 -0.1365 -0.1962
 5080TIP3    H136655   4.601   6.297  15.424 -1.5110 -0.1964 -0.1293
 5080TIP3    H236656   4.679   6.326  15.551 -0.2509  0.4559 -1.0275
 5081TIP3   OH236657   3.350   0.771   1.554 -0.3050  0.1898 -0.5810
 5081TIP3    H136658   3.264   0.731   1.567 -0.4430  0.5108 -0.5004
 5081TIP3    H236659   3.361   0.831   1.628  0.0237  0.0915 -0.5461
 5082TIP3   OH236660   5.501   1.674  14.564  0.0870 -0.0854 -0.7136
 5082TIP3    H136661   5.439   1.685  14.636 -0.0377 -1.6342 -0.5472
 5082TIP3    H236662   5.450   1.690  14.485 -0.1820  0.0138 -0.5199
 5083TIP3   OH236663   0.113   6.516  15.435  0.3714  0.9859  0.2987
 5083TIP3    H136664   0.025   6.548  15.454  0.6898  1.9607  0.1999
 5083TIP3    H236665   0.124   6.440  15.492 -1.5893 -0.9777 -1.7317
 5084TIP3   OH236666   3.007   4.621   4.759  0.2127 -0.1009  0.4407
 5084TIP3    H136667   2.918   4.605   4.791 -0.6570  1.7743 -0.8175
 5084TIP3    H236668   3.052   4.663   4.832  0.6723 -2.5739  1.6794
 5085TIP3   OH236669   5.457   1.033  11.638  0.0145  0.5345 -0.2776
 5085TIP3    H136670   5.448   0.968  11.568 -0.2106  0.7286 -0.4303
 5085TIP3    H236671   5.531   1.088  11.612 -0.3640  0.8941 -0.5937
 5086TIP3   OH236672   3.452   1.913   1.165 -0.3896  0.0749  0.1755
 5086TIP3    H136673   3.395   1.863   1.223 -0.0643 -0.4173  0.0810
 5086TIP3    H236674   3.533   1.925   1.215  0.1734 -1.0049 -0.4371
 5087TIP3   OH236675   4.610   3.181   1.383  0.0254  0.1235 -0.0471
 5087TIP3    H136676   4.660   3.260   1.400 -1.3761  0.7195  1.5201
 5087TIP3    H236677   4.653   3.114   1.436  0.0351  0.2814  0.1452
 5088TIP3   OH236678   1.098   5.655  15.705 -0.0487  0.2581 -0.2907
 5088TIP3    H136679   1.091   5.671  15.799 -2.2677  0.2971 -0.4118
 5088TIP3    H236680   1.133   5.736  15.669  1.2964  0.0776  0.5118
 5089TIP3   OH236681   0.846   1.699  14.112 -0.4886 -0.1272  0.2558
 5089TIP3    H136682   0.941   1.692  14.112 -0.4104  0.1827  2.2898
 5089TIP3    H236683   0.818   1.627  14.170 -1.3652  0.7247  0.9143
 5090TIP3   OH236684   3.561   4.054   4.619 -0.3740 -0.4988  0.1902
 5090TIP3    H136685   3.624   4.036   4.689 -1.3300 -0.6999  1.0244
 5090TIP3    H236686   3.479   4.018   4.651 -0.9778 -0.0199 -0.7744
 5091TIP3   OH236687   1.218   2.807  16.820 -0.0768  0.2725 -0.2683
 5091TIP3    H136688   1.303   2.824  16.860 -0.3662  0.1650  0.4131
 5091TIP3    H236689   1.214   2.712  16.810 -0.2736  0.2430  0.0700
 5092TIP3   OH236690   0.641   2.223   1.972  0.3413  0.0082 -0.1699
 5092TIP3    H136691   0.676   2.194   2.056  1.0464 -1.6100 -0.9787
 5092TIP3    H236692   0.560   2.269   1.995  0.4027 -0.5859  1.3732
 5093TIP3   OH236693   1.953   4.486  16.882 -0.0310  0.4091 -0.3194
 5093TIP3    H136694   1.858   4.485  16.883 -0.0575 -1.7391 -0.4456
 5093TIP3    H236695   1.977   4.573  16.914 -2.0126  0.7921  0.2344
 5094TIP3   OH236696   6.801   4.283   3.627  0.1259 -0.0669 -0.9908
 5094TIP3    H136697   6.848   4.300   3.709  0.3557 -0.9843 -0.9222
 5094TIP3    H236698   6.847   4.334   3.561  0.0029  0.5953 -0.5688
 5095TIP3   OH236699   4.939   1.749   3.743  0.3078 -0.6576  0.8933
 5095TIP3    H136700   4.945   1.663   3.702 -1.8457 -0.4332 -0.0067
 5095TIP3    H236701   4.921   1.731   3.835  0.1089 -1.1801  0.7547
 5096TIP3   OH236702   5.034   0.180  15.266 -0.1126 -0.0429 -0.4111
 5096TIP3    H136703   4.988   0.262  15.285  0.8273  1.1889 -2.9734
 5096TIP3    H236704   4.992   0.147  15.187  0.3842 -1.3886 -0.1405
 5097TIP3   OH236705   5.546   0.827   4.976  0.3686  0.3111  0.1089
 5097TIP3    H136706   5.552   0.917   5.008 -1.6495  0.5305 -0.0107
 5097TIP3    H236707   5.586   0.774   5.045 -0.4759  1.0979  1.2355
 5098TIP3   OH236708   4.854   3.148   2.484 -0.0361 -0.0438  0.4685
 5098TIP3    H136709   4.918   3.084   2.517 -1.3229 -1.8869 -0.3993
 5098TIP3    H236710   4.769   3.110   2.506 -0.8720  0.7128 -1.2179
 5099TIP3   OH236711   4.310   5.782   1.319  0.2220 -0.1497  0.1845
 5099TIP3    H136712   4.374   5.758   1.252  0.5488  1.4182 -0.0896
 5099TIP3    H236713   4.225   5.757   1.282  0.5653 -1.1572  0.0572
 5100TIP3   OH236714   2.857   4.198   4.374 -0.1700 -0.3701  0.1838
 5100TIP3    H136715   2.938   4.244   4.351 -0.6138 -0.1305 -0.9526
 5100TIP3    H236716   2.886   4.117   4.414  0.6806 -1.1128 -1.8162
 5101TIP3   OH236717   5.074   1.833  14.284  0.0812  0.5996  0.1301
 5101TIP3    H136718   5.053   1.806  14.194 -0.1206  0.5042  0.2049
 5101TIP3    H236719   4.990   1.859  14.321  0.3826  2.1000 -0.1867
 5102TIP3   OH236720   4.569   6.113   2.884 -0.0981  0.2028 -0.7688
 5102TIP3    H136721   4.539   6.203   2.897 -0.2044  0.0001  0.5490
 5102TIP3    H236722   4.647   6.122   2.831 -1.4688  0.8734 -2.7826
 5103TIP3   OH236723   2.416   6.011   3.834 -0.1372 -0.0186 -0.0234
 5103TIP3    H136724   2.466   6.058   3.901  0.1758  0.6053 -0.6774
 5103TIP3    H236725   2.478   5.947   3.798  0.2017  0.7313 -0.8103
 5104TIP3   OH236726   1.282   2.033   3.161 -0.2823  0.2383  0.1486
 5104TIP3    H136727   1.311   1.945   3.185  1.8148 -0.2448 -3.4422
 5104TIP3    H236728   1.361   2.087   3.168 -1.0401  1.3609  0.2898
 5105TIP3   OH236729   1.953   5.134   0.117  0.4028  0.0474 -0.3000
 5105TIP3    H136730   2.039   5.133   0.075  0.0161  0.3809 -1.1164
 5105TIP3    H236731   1.907   5.207   0.076  0.6518  1.6316  2.0298
 5106TIP3   OH236732   4.746   4.552   5.019  0.5665 -0.0198 -0.3237
 5106TIP3    H136733   4.787   4.604   4.950  0.0154  0.3037 -0.4148
 5106TIP3    H236734   4.656   4.538   4.989  0.0923  0.7611  0.6596
 5107TIP3   OH236735   4.448   1.057   4.207 -0.0767 -0.2113  0.0835
 5107TIP3    H136736   4.457   1.144   4.246  0.0939 -0.1345 -0.1300
 5107TIP3    H236737   4.490   1.063   4.122 -0.9986 -0.2017 -0.3834
 5108TIP3   OH236738   5.789   0.541  14.451 -1.1246 -0.6614  0.9265
 5108TIP3    H136739   5.748   0.501  14.374 -0.0793 -0.3658  0.1961
 5108TIP3    H236740   5.870   0.580  14.417 -1.2509  0.5331  1.9452
 5109TIP3   OH236741   6.034   0.523  12.039  0.8742  0.1368 -0.3962
 5109TIP3    H136742   6.031   0.489  12.129 -1.8782 -0.3476 -0.5742
 5109TIP3    H236743   6.065   0.449  11.987 -2.1923 -1.3035 -0.3822
 5110TIP3   OH236744   5.923   1.572  10.719  0.1847  0.5524  0.0199
 5110TIP3    H136745   5.974   1.540  10.793 -0.4254  2.0904  1.1513
 5110TIP3    H236746   5.838   1.594  10.757  0.3460  2.8336 -0.8000
 5111TIP3   OH236747   4.829   2.020  15.604 -0.0798  0.0772 -0.1609
 5111TIP3    H136748   4.802   1.932  15.578  3.1558 -1.1229  0.1646
 5111TIP3    H236749   4.855   2.063  15.523  0.4515 -0.0656 -0.0677
 5112TIP3   OH236750   2.369   1.919   2.842  0.0842 -0.2528 -0.1547
 5112TIP3    H136751   2.296   1.860   2.824 -1.0079  0.9863  0.0002
 5112TIP3    H236752   2.407   1.937   2.757  0.0286 -0.6769 -0.2718
 5113TIP3   OH236753   3.258   4.178   3.781  0.1231 -0.1612 -0.6018
 5113TIP3    H136754   3.300   4.092   3.785 -0.6309 -0.4919  1.4325
 5113TIP3    H236755   3.312   4.234   3.837 -0.5626  0.1277 -0.2191
 5114TIP3   OH236756   5.583   1.400   4.650  0.0749 -0.0360  0.2430
 5114TIP3    H136757   5.622   1.412   4.736  1.5250  1.3448 -0.5451
 5114TIP3    H236758   5.629   1.324   4.613  1.7174  1.2382 -0.4578
 5115TIP3   OH236759   0.613   6.757  13.190  0.4142  0.6309 -0.5802
 5115TIP3    H136760   0.666   6.742  13.268 -0.0871  2.1909  0.1113
 5115TIP3    H236761   0.675   6.753  13.118  0.8718 -0.9262 -0.1380
 5116TIP3   OH236762   0.844   6.120  13.813 -0.0500 -0.3099 -0.1653
 5116TIP3    H136763   0.842   6.135  13.719  0.7483 -0.7746 -0.2657
 5116TIP3    H236764   0.913   6.179  13.845  1.0730 -1.5762 -0.1626
 5117TIP3   OH236765   4.287   4.797  13.313 -0.0797 -0.4499 -0.6395
 5117TIP3    H136766   4.257   4.838  13.232 -1.1744  0.9589  0.4193
 5117TIP3    H236767   4.267   4.861  13.381 -0.1571 -2.0150  0.8883
 5118TIP3   OH236768   2.489   5.096   2.149 -0.1671 -0.3994  0.2655
 5118TIP3    H136769   2.474   5.025   2.211 -0.6784 -0.7871 -0.2900
 5118TIP3    H236770   2.550   5.059   2.085  1.6978  0.5319  1.4253
 5119TIP3   OH236771   1.343   1.707  15.547  0.2618  0.0933  0.6015
 5119TIP3    H136772   1.385   1.621  15.557  1.7154  0.5877 -0.9133
 5119TIP3    H236773   1.396   1.766  15.601  0.8899  0.5174 -0.4606
 5120TIP3   OH236774   6.116   4.993  14.800 -0.6351 -0.0549 -0.1234
 5120TIP3    H136775   6.148   4.982  14.890  1.8343  1.1931 -0.7568
 5120TIP3    H236776   6.134   5.084  14.779 -1.1882 -0.3119 -1.9003
 5121TIP3   OH236777   4.646   1.060   2.265  0.3417 -0.0158  0.1273
 5121TIP3    H136778   4.565   1.109   2.252 -0.0389 -0.6560  0.0205
 5121TIP3    H236779   4.714   1.127   2.275 -0.0890  0.5181 -0.4799
 5122TIP3   OH236780   2.278   3.495  16.912 -0.0101 -0.0866  0.1755
 5122TIP3    H136781   2.211   3.461  16.971 -0.5463  0.7358  0.0663
 5122TIP3    H236782   2.354   3.510  16.968 -0.2316 -0.1189  0.4899
 5123TIP3   OH236783   6.707   3.750  16.038  0.2265 -0.5100 -0.2951
 5123TIP3    H136784   6.696   3.842  16.014 -0.2707 -0.2480  0.8461
 5123TIP3    H236785   6.741   3.753  16.127  0.3946 -1.4344 -0.3194
 5124TIP3   OH236786   5.931   3.655   3.181  0.4390 -0.5233 -0.0896
 5124TIP3    H136787   5.835   3.655   3.185  0.3525  0.7352 -1.3817
 5124TIP3    H236788   5.952   3.575   3.133 -0.0144 -0.3771 -0.5436
 5125TIP3   OH236789   2.939   2.363   1.674  1.1695  0.2324 -0.0471
 5125TIP3    H136790   2.884   2.417   1.618  3.3252  0.3592 -2.1969
 5125TIP3    H236791   2.909   2.274   1.658  2.1448  0.1937 -2.0260
 5126TIP3   OH236792   2.426   5.601   4.826  0.4013 -0.0992 -0.4068
 5126TIP3    H136793   2.400   5.552   4.903  0.8340 -0.3387 -0.4082
 5126TIP3    H236794   2.515   5.631   4.845  0.4375  0.0109 -0.7285
 5127TIP3   OH236795   0.141   1.237  12.224 -0.6855 -0.2510  0.3119
 5127TIP3    H136796   0.191   1.313  12.254  1.6078  0.1146 -3.7065
 5127TIP3    H236797   0.207   1.169  12.212 -2.2316 -1.9344  0.8578
 5128TIP3   OH236798   5.053   5.859  14.841  0.2034  0.3782  0.0857
 5128TIP3    H136799   5.102   5.907  14.908  1.3466  0.5414 -0.8329
 5128TIP3    H236800   5.121   5.818  14.787 -0.7038 -0.1030 -0.7100
 5129TIP3   OH236801   4.937   3.026   2.841  0.2422  0.1010 -0.0821
 5129TIP3    H136802   4.977   3.003   2.757  0.1722  1.9614 -0.6801
 5129TIP3    H236803   5.011   3.052   2.896  0.2721 -0.9681  0.4042
 5130TIP3   OH236804   1.737   1.727  16.399 -0.2674 -0.2698  0.0050
 5130TIP3    H136805   1.810   1.741  16.459  0.4184 -1.0475 -0.6307
 5130TIP3    H236806   1.777   1.716  16.313 -1.2536  1.2119 -0.6943
 5131TIP3   OH236807   2.963   0.137  12.970  0.6016  0.0879 -0.2354
 5131TIP3    H136808   2.888   0.153  12.913  0.1014 -0.7185  0.1767
 5131TIP3    H236809   2.979   0.042  12.964  1.1266  0.1359  0.2475
 5132TIP3   OH236810   0.326   4.866  13.103  0.0542  0.0038 -0.3701
 5132TIP3    H136811   0.324   4.961  13.094 -2.8712  0.0853 -0.0126
 5132TIP3    H236812   0.235   4.839  13.087  0.8824 -2.7791 -0.8526
 5133TIP3   OH236813   1.070   5.476  14.799 -0.4547 -0.4479 -0.6856
 5133TIP3    H136814   1.071   5.495  14.705  0.2912 -0.3064 -0.6537
 5133TIP3    H236815   1.050   5.560  14.840  1.6851  0.0662 -0.6041
 5134TIP3   OH236816   0.732   2.466   2.149  0.2286 -0.0426 -0.0214
 5134TIP3    H136817   0.714   2.434   2.237 -1.9138  1.2226  0.0712
 5134TIP3    H236818   0.646   2.475   2.109  0.9000  2.5428 -1.0875
 5135TIP3   OH236819   2.994   1.509  11.478  0.0615 -0.3437  0.0207
 5135TIP3    H136820   3.083   1.482  11.503 -0.0450 -0.4076  0.3425
 5135TIP3    H236821   2.978   1.588  11.528  0.3890  0.3684 -0.9648
 5136TIP3   OH236822   2.854   6.427  16.474  0.3133  0.2856 -0.0073
 5136TIP3    H136823   2.834   6.370  16.548 -0.1680  0.9019  0.3374
 5136TIP3    H236824   2.947   6.413  16.457 -0.0955 -1.7757 -0.9215
 5137TIP3   OH236825   3.858   3.536   3.064  0.5404  0.1998  0.6124
 5137TIP3    H136826   3.914   3.575   3.130  0.2200 -1.5874  2.0379
 5137TIP3    H236827   3.783   3.502   3.113  0.5772 -1.7108 -0.5451
 5138TIP3   OH236828   1.048   3.852   1.707 -0.0582  0.7167 -0.0807
 5138TIP3    H136829   0.991   3.799   1.651  0.6771 -0.0591 -0.1075
 5138TIP3    H236830   0.991   3.881   1.778 -0.4457 -0.2249  0.0054
 5139TIP3   OH236831   6.041   4.816  12.674 -0.4465  0.2978 -0.8317
 5139TIP3    H136832   5.986   4.886  12.640  0.4544  0.5994 -1.7417
 5139TIP3    H236833   6.030   4.820  12.769 -0.8767  1.2668 -0.9106
 5140TIP3   OH236834   5.289   2.299   3.883  0.2065  0.1530 -0.2433
 5140TIP3    H136835   5.363   2.248   3.915 -0.7969 -1.4942 -0.4479
 5140TIP3    H236836   5.243   2.326   3.963 -0.1036 -0.5998 -0.1556
 5141TIP3   OH236837   3.589   5.790   1.363  0.3081  0.4258  0.5405
 5141TIP3    H136838   3.518   5.832   1.411 -0.8074  1.5177 -1.8944
 5141TIP3    H236839   3.646   5.754   1.431 -1.2870  1.6189  2.6289
 5142TIP3   OH236840   0.759   5.919  14.457  0.3321  0.3112 -0.0974
 5142TIP3    H136841   0.759   5.825  14.441  1.5673  0.4401 -0.9807
 5142TIP3    H236842   0.730   5.958  14.375  2.9565  0.8059 -0.8693
 5143TIP3   OH236843   5.414   2.564   0.506 -0.0843 -0.2899 -0.1374
 5143TIP3    H136844   5.336   2.617   0.524  0.1412  0.1956 -0.5406
 5143TIP3    H236845   5.437   2.525   0.590  1.4772  2.6115  0.9285
 5144TIP3   OH236846   5.276   1.290  13.277 -0.3704 -0.6165  0.3154
 5144TIP3    H136847   5.358   1.255  13.241  0.5346  2.2048 -0.6418
 5144TIP3    H236848   5.210   1.264  13.212  0.3177 -0.2473 -0.5580
 5145TIP3   OH236849   5.146   3.802  14.421  0.0122 -0.3082  0.5350
 5145TIP3    H136850   5.208   3.814  14.350  0.2456  1.0716  0.9392
 5145TIP3    H236851   5.060   3.812  14.380  0.1235 -0.2892  0.3094
 5146TIP3   OH236852   4.395   1.820   5.441  0.4601  0.5675 -0.4734
 5146TIP3    H136853   4.330   1.884   5.413  0.4093  1.1778  0.9684
 5146TIP3    H236854   4.393   1.823   5.537  0.8388 -1.2098 -0.3660
 5147TIP3   OH236855   1.681   4.795  16.636  0.3421 -0.3408  0.2717
 5147TIP3    H136856   1.667   4.824  16.546  0.6950  2.5565  1.0445
 5147TIP3    H236857   1.766   4.832  16.660  0.5248 -1.5514  1.6349
 5148TIP3   OH236858   3.848   3.714  12.452  0.4152 -0.7689 -0.9431
 5148TIP3    H136859   3.884   3.800  12.473 -1.6421  0.5569 -2.4336
 5148TIP3    H236860   3.754   3.723  12.467  0.4280 -3.8646  2.1270
 5149TIP3   OH236861   3.182   2.845   5.889  0.5150  0.2805 -0.1657
 5149TIP3    H136862   3.113   2.845   5.823 -0.1664 -0.0876  0.5297
 5149TIP3    H236863   3.264   2.841   5.839 -0.0288 -2.6112 -0.9625
 5150TIP3   OH236864   4.344   2.439  14.421 -0.8596  0.2506  0.0956
 5150TIP3    H136865   4.283   2.504  14.457 -1.2167  0.2806 -0.5379
 5150TIP3    H236866   4.310   2.421  14.333 -2.8281 -3.3664  1.4015
 5151TIP3   OH236867   5.965   6.669  13.476  0.1849 -0.1033 -0.0840
 5151TIP3    H136868   5.907   6.595  13.457  0.9622 -0.7210 -0.1091
 5151TIP3    H236869   5.993   6.655  13.567  0.3027  0.1884 -0.0728
 5152TIP3   OH236870   2.570   2.809   1.143  0.2142 -0.4228  0.2571
 5152TIP3    H136871   2.558   2.752   1.219 -0.7920  0.6007  0.8923
 5152TIP3    H236872   2.481   2.825   1.111  0.6499 -1.1872 -1.4228
 5153TIP3   OH236873   2.639   0.892  12.307 -0.2466 -0.0574  0.5037
 5153TIP3    H136874   2.636   0.831  12.381  0.9121 -1.4889 -0.5650
 5153TIP3    H236875   2.731   0.914  12.298  0.0885 -1.9825 -2.0517
 5154TIP3   OH236876   5.391   4.564  11.680  0.4799 -0.0028  1.0646
 5154TIP3    H136877   5.459   4.498  11.696  0.3078 -0.1641  1.1328
 5154TIP3    H236878   5.431   4.625  11.618  0.1459 -0.9734 -0.1575
 5155TIP3   OH236879   2.521   0.232  11.832  0.2425 -0.1921 -0.8460
 5155TIP3    H136880   2.471   0.154  11.857 -0.3561  0.1291 -1.0048
 5155TIP3    H236881   2.603   0.198  11.796 -0.5808 -0.8310 -2.2232
 5156TIP3   OH236882   2.639   2.097  14.185 -0.5673 -0.1359 -0.1185
 5156TIP3    H136883   2.696   2.168  14.214  1.5172 -1.4888 -0.6843
 5156TIP3    H236884   2.565   2.098  14.247  0.8359  0.7059  1.6202
 5157TIP3   OH236885   6.602   2.476   5.189  0.7290  0.0605 -0.6399
 5157TIP3    H136886   6.607   2.572   5.185 -2.2054  0.3886  0.7659
 5157TIP3    H236887   6.619   2.447   5.100  0.6954  1.9681 -1.3125
 5158TIP3   OH236888   1.114   0.490  11.216 -0.4704  0.0447  0.1839
 5158TIP3    H136889   1.177   0.423  11.191  1.3983  1.3972  1.0344
 5158TIP3    H236890   1.029   0.454  11.191  0.4548 -2.5943  0.5818
 5159TIP3   OH236891   4.219   2.768  11.766  0.1687  0.7488  0.4375
 5159TIP3    H136892   4.128   2.741  11.754  0.4425 -1.0181  1.9230
 5159TIP3    H236893   4.270   2.705  11.715  0.6590  0.2184  1.5342
 5160TIP3   OH236894   2.391   5.203   5.120 -0.3207 -0.1484 -0.8562
 5160TIP3    H136895   2.371   5.292   5.150 -0.7735 -0.9554  1.4421
 5160TIP3    H236896   2.306   5.169   5.092 -0.0556  0.2880 -2.2576
 5161TIP3   OH236897   0.557   1.390   6.687  0.6298 -0.3343  0.7772
 5161TIP3    H136898   0.556   1.296   6.665 -0.5625 -0.1162 -0.2198
 5161TIP3    H236899   0.647   1.407   6.715  1.0923 -1.6007  0.1476
 5162TIP3   OH236900   3.097   5.947   4.805 -0.2637  0.3153  0.4559
 5162TIP3    H136901   3.007   5.930   4.834 -0.4140 -1.1180 -0.7666
 5162TIP3    H236902   3.110   5.890   4.730  1.4099  1.1112  0.0871
 5163TIP3   OH236903   5.354   1.451  15.720  0.1193  0.0142  0.1595
 5163TIP3    H136904   5.448   1.445  15.700 -0.1205  1.8320 -1.9397
 5163TIP3    H236905   5.317   1.371  15.683  0.5204  0.6604 -1.8063
 5164TIP3   OH236906   6.548   5.887  13.221  0.0347  0.7628 -0.7264
 5164TIP3    H136907   6.565   5.966  13.169  0.8990  0.7755 -0.4363
 5164TIP3    H236908   6.633   5.865  13.261 -0.3902  0.1767 -0.1199
 5165TIP3   OH236909   4.530   0.917   2.482  0.0550 -0.5121 -0.3566
 5165TIP3    H136910   4.584   0.954   2.412 -1.4539  1.6528 -0.4768
 5165TIP3    H236911   4.517   0.990   2.543 -0.2959 -1.8072  1.1887
 5166TIP3   OH236912   4.756   4.217   0.065 -0.2219  0.1671 -0.0883
 5166TIP3    H136913   4.695   4.155   0.105  0.8763 -0.5244  0.5629
 5166TIP3    H236914   4.801   4.259   0.139  2.3491 -1.6451 -0.4721
 5167TIP3   OH236915   6.185   4.980  11.760  0.1042 -0.1094 -0.5867
 5167TIP3    H136916   6.263   5.014  11.715 -0.2412  0.2094 -0.9445
 5167TIP3    H236917   6.112   5.027  11.720 -0.0963  1.6085  1.6384
 5168TIP3   OH236918   5.884   0.679  12.439 -0.0040 -0.1692  0.0291
 5168TIP3    H136919   5.927   0.623  12.375  0.7063 -0.2136  0.5294
 5168TIP3    H236920   5.876   0.624  12.517 -0.4651  0.0262  0.1261
 5169TIP3   OH236921   5.582   0.960   4.137 -0.3100  0.2269  0.3533
 5169TIP3    H136922   5.601   1.049   4.169 -1.5724  0.9574 -0.8516
 5169TIP3    H236923   5.487   0.955   4.135 -0.2515 -1.0175 -0.0158
 5170TIP3   OH236924   0.743   1.172   0.210 -0.1534  0.0911  0.2025
 5170TIP3    H136925   0.833   1.200   0.198 -0.2906 -0.0663 -1.3255
 5170TIP3    H236926   0.739   1.141   0.301  1.2220  0.4200  0.3873
 5171TIP3   OH236927   1.116   4.960  11.462 -0.2640  0.2835  0.4409
 5171TIP3    H136928   1.134   4.914  11.544 -0.1435  0.3009  0.4245
 5171TIP3    H236929   1.173   4.918  11.398 -0.7979 -0.1320  0.2324
 5172TIP3   OH236930   3.601   3.243  11.878  0.4378 -0.4339 -0.2255
 5172TIP3    H136931   3.666   3.180  11.847  1.5916  1.0572 -0.9964
 5172TIP3    H236932   3.542   3.256  11.804  1.5821  1.0741 -0.9391
 5173TIP3   OH236933   3.887   6.360   2.911 -0.8224  0.0873  0.5858
 5173TIP3    H136934   3.827   6.422   2.868  0.3839  0.9330  0.0833
 5173TIP3    H236935   3.955   6.415   2.949  0.7558 -0.9745 -0.6025
 5174TIP3   OH236936   3.698   1.247  15.273 -0.2462 -0.5659  0.7036
 5174TIP3    H136937   3.613   1.252  15.230  0.5925 -0.5625 -1.0195
 5174TIP3    H236938   3.746   1.323  15.242  1.8590 -2.7237 -1.7765
 5175TIP3   OH236939   0.767   2.476   0.334  0.6285  0.3831 -0.3971
 5175TIP3    H136940   0.737   2.566   0.321 -0.3796  0.5694  2.4439
 5175TIP3    H236941   0.859   2.478   0.310  0.3362  1.8418 -1.5975
 5176TIP3   OH236942   3.717   3.920   5.047  0.5671  0.5225  0.3524
 5176TIP3    H136943   3.802   3.890   5.016  0.4103 -2.4299  2.3740
 5176TIP3    H236944   3.720   4.015   5.037  3.2682  0.3485 -1.5485
 5177TIP3   OH236945   1.206   0.250   4.724  0.1923  0.2858  0.2360
 5177TIP3    H136946   1.216   0.160   4.756  1.3242  0.1466 -0.4681
 5177TIP3    H236947   1.276   0.261   4.660 -0.4525  1.4054 -0.3088
 5178TIP3   OH236948   3.735   6.666  12.718 -0.2772  0.2514  0.9338
 5178TIP3    H136949   3.746   6.612  12.639 -3.3383  0.2671  0.3852
 5178TIP3    H236950   3.824   6.679  12.750  0.8902 -1.8376 -1.1164
 5179TIP3   OH236951   0.169   3.764  14.180  0.0035  0.8323  0.6419
 5179TIP3    H136952   0.107   3.829  14.147 -0.8334  0.9674  2.3904
 5179TIP3    H236953   0.114   3.697  14.220  0.9412  0.3253  1.1180
 5180TIP3   OH236954   3.285   5.135  14.192 -0.0240  0.5938  1.0205
 5180TIP3    H136955   3.354   5.149  14.256  0.6989 -0.4331  0.4825
 5180TIP3    H236956   3.311   5.057  14.144 -1.4302  0.3262  0.6304
 5181TIP3   OH236957   3.463   5.539  14.308  0.5987  0.1438  0.1344
 5181TIP3    H136958   3.509   5.608  14.356  0.3679  2.1675 -2.3728
 5181TIP3    H236959   3.520   5.517  14.235 -0.7869  0.0899 -0.9854
 5182TIP3   OH236960   2.891   2.324   0.235 -0.3500  0.0067 -0.6746
 5182TIP3    H136961   2.976   2.282   0.219 -0.4381  0.1332 -1.5142
 5182TIP3    H236962   2.842   2.310   0.154 -0.4377  1.5843 -0.9288
 5183TIP3   OH236963   4.212   5.276  16.703  0.5487 -0.2416 -0.0089
 5183TIP3    H136964   4.126   5.237  16.717  0.4362 -0.0067 -0.0342
 5183TIP3    H236965   4.207   5.361  16.748  0.3763  0.2677 -0.9521
 5184TIP3   OH236966   2.565   0.536   0.419 -0.0487 -0.5282  0.0125
 5184TIP3    H136967   2.637   0.595   0.441  0.4345 -0.6397 -1.1640
 5184TIP3    H236968   2.503   0.545   0.491  0.5960  0.4780  0.4617
 5185TIP3   OH236969   5.345   5.784   4.482  0.1042  0.5067 -0.2907
 5185TIP3    H136970   5.362   5.853   4.418 -0.2658 -0.5524 -1.5668
 5185TIP3    H236971   5.431   5.762   4.517  0.5350 -0.0200 -1.6252
 5186TIP3   OH236972   5.798   0.838   5.279  0.2633  0.5743  0.6137
 5186TIP3    H136973   5.860   0.909   5.270  0.9174 -0.0146  0.4187
 5186TIP3    H236974   5.740   0.866   5.351  1.5963  0.5278  1.7460
 5187TIP3   OH236975   3.427   5.964   2.302  0.7151 -0.4136  0.2384
 5187TIP3    H136976   3.428   6.058   2.285  3.9480 -0.5834 -1.2840
 5187TIP3    H236977   3.350   5.932   2.255 -0.4067  1.4237  0.7403
 5188TIP3   OH236978   2.728   0.486   4.816 -0.1742  0.3973 -0.0771
 5188TIP3    H136979   2.748   0.446   4.731 -1.0002  0.1105 -0.1424
 5188TIP3    H236980   2.694   0.414   4.869  0.2827  0.5885  0.4851
 5189TIP3   OH236981   3.472   0.300   1.938 -0.2428 -0.1078  0.4759
 5189TIP3    H136982   3.453   0.208   1.923 -2.1927  0.0132  1.8188
 5189TIP3    H236983   3.412   0.347   1.880 -1.0606  0.2934  1.6079
 5190TIP3   OH236984   1.436   4.562  15.325 -0.2788 -0.3857 -0.2187
 5190TIP3    H136985   1.356   4.614  15.324 -0.9042 -1.2743  0.7202
 5190TIP3    H236986   1.459   4.551  15.233 -0.2803  1.2910 -0.4346
 5191TIP3   OH236987   0.940   2.191  16.862  0.3814 -0.4842  0.5819
 5191TIP3    H136988   0.959   2.223  16.950  2.7299 -1.5945  0.5475
 5191TIP3    H236989   1.003   2.236  16.806  0.4024 -1.4529 -0.1995
 5192TIP3   OH236990   1.784   1.787  10.216 -0.0519 -0.1682  0.0245
 5192TIP3    H136991   1.847   1.715  10.211  2.3110  1.8533 -1.4290
 5192TIP3    H236992   1.699   1.745  10.202  0.8360 -3.0417  2.1671
 5193TIP3   OH236993   0.924   5.082  16.762  0.0943 -0.6132  0.1594
 5193TIP3    H136994   0.950   5.136  16.688 -0.0766 -0.2152  0.3901
 5193TIP3    H236995   1.006   5.064  16.809  0.2527 -1.1463 -0.3064
 5194TIP3   OH236996   2.967   4.096  15.535 -0.5202 -0.1396  0.9480
 5194TIP3    H136997   3.014   4.179  15.527  0.1143 -0.4274  1.6538
 5194TIP3    H236998   2.889   4.117  15.585 -0.3978  0.0473  1.0608
 5195TIP3   OH236999   4.925   1.485   1.329 -0.3975 -0.0198 -0.0052
 5195TIP3    H137000   4.904   1.505   1.420  2.5308 -1.3215  1.1037
 5195TIP3    H237001   4.879   1.403   1.311 -0.2199 -0.2741  0.6610
 5196TIP3   OH237002   3.369   4.280  16.265  0.3139 -0.0147  0.3801
 5196TIP3    H137003   3.310   4.239  16.329 -1.2730 -0.9342 -1.5802
 5196TIP3    H237004   3.320   4.356  16.233  0.7913  0.0202 -0.2718
 5197TIP3   OH237005   3.129   2.913   0.357  0.1266  0.3750 -0.0613
 5197TIP3    H137006   3.097   2.994   0.398 -0.7063  1.4010 -2.5533
 5197TIP3    H237007   3.062   2.848   0.377 -0.3287  0.8876  0.1132
 5198TIP3   OH237008   2.958   2.164  14.409  0.3850  0.0792 -0.2303
 5198TIP3    H137009   2.905   2.121  14.476 -1.1224  0.2158 -1.2903
 5198TIP3    H237010   2.993   2.242  14.452 -0.2121 -0.0590  0.5131
 5199TIP3   OH237011   2.788   5.879  17.021 -0.3780  0.0817 -0.2384
 5199TIP3    H137012   2.701   5.859  17.055 -1.0004  0.0959 -1.7386
 5199TIP3    H237013   2.772   5.916  16.934  1.1569 -0.6985 -0.8968
 5200TIP3   OH237014   2.243   3.160  13.910 -0.0155 -0.5145 -0.1343
 5200TIP3    H137015   2.237   3.136  14.003 -1.2300  0.8590  0.1753
 5200TIP3    H237016   2.168   3.116  13.869  0.5594 -1.1772 -0.5038
 5201TIP3   OH237017   0.271   5.350  13.466 -0.4125 -0.5332  0.8567
 5201TIP3    H137018   0.186   5.355  13.424  0.9319 -1.1296 -2.2553
 5201TIP3    H237019   0.272   5.265  13.510 -1.4203 -0.4745  1.0109
 5202TIP3   OH237020   6.143   4.064   4.725 -0.7179 -0.7252  0.9174
 5202TIP3    H137021   6.088   4.102   4.656  0.4792 -0.3886  0.1297
 5202TIP3    H237022   6.140   3.970   4.708  1.6279 -0.5137 -1.2630
 5203TIP3   OH237023   1.371   3.553   0.218  0.2532 -0.0995  0.3233
 5203TIP3    H137024   1.452   3.505   0.206  1.0218  0.8394  1.5242
 5203TIP3    H237025   1.395   3.645   0.204  0.1046  0.5179  3.4729
 5204TIP3   OH237026   5.070   5.065   3.391  0.2382  0.2314  0.2335
 5204TIP3    H137027   5.058   4.989   3.335 -1.4471 -0.6841  1.7231
 5204TIP3    H237028   5.160   5.058   3.424  0.4472 -0.5023 -0.4845
 5205TIP3   OH237029   0.375   4.650   3.415 -0.8035  0.4194  0.5318
 5205TIP3    H137030   0.344   4.633   3.325  1.1474 -2.8342  0.3100
 5205TIP3    H237031   0.294   4.661   3.466 -2.0107  0.5652 -1.3117
 5206TIP3   OH237032   3.043   0.651  11.100  0.4206  0.1805 -0.3590
 5206TIP3    H137033   3.029   0.615  11.187 -0.0372  1.3234  0.0597
 5206TIP3    H237034   3.037   0.746  11.111 -1.5495  0.3148 -1.9313
 5207TIP3   OH237035   0.869   2.747   2.868 -0.2846 -0.1070  0.4236
 5207TIP3    H137036   0.820   2.671   2.902  0.1014  0.1925  1.7224
 5207TIP3    H237037   0.891   2.797   2.947 -0.7726  1.5091 -0.4432
 5208TIP3   OH237038   5.944   0.681  12.904  0.2791 -0.1773  0.5044
 5208TIP3    H137039   5.862   0.729  12.904 -0.6105 -1.6336 -0.1075
 5208TIP3    H237040   5.993   0.717  12.978 -0.9817  0.5716  0.9978
 5209TIP3   OH237041   4.543   4.592  10.861 -0.3932 -0.2960 -0.4176
 5209TIP3    H137042   4.556   4.592  10.956 -2.0771 -1.9805 -0.1334
 5209TIP3    H237043   4.619   4.639  10.826  0.1164  0.6054  1.7662
 5210TIP3   OH237044   6.048   6.601  15.501 -0.1707 -0.4646  0.1897
 5210TIP3    H137045   6.056   6.506  15.495  1.6691 -0.2790 -0.7838
 5210TIP3    H237046   6.007   6.616  15.587 -0.5254 -2.1134  0.3355
 5211TIP3   OH237047   2.127   5.901  14.408 -0.3858 -0.1202 -0.2407
 5211TIP3    H137048   2.222   5.911  14.404 -0.4059  0.2947  0.1525
 5211TIP3    H237049   2.113   5.830  14.471 -0.2953 -1.3508 -1.5754
 5212TIP3   OH237050   5.330   1.482   0.839  0.2007 -0.0125 -0.2568
 5212TIP3    H137051   5.345   1.454   0.929 -0.2325  0.0672 -0.1605
 5212TIP3    H237052   5.418   1.483   0.800  0.2483 -1.4606 -0.2585
 5213TIP3   OH237053   4.722   2.467  15.365 -0.4316  0.1745  0.2257
 5213TIP3    H137054   4.773   2.548  15.367 -0.6882  0.3485  2.5459
 5213TIP3    H237055   4.644   2.488  15.313  0.2984  0.8749 -0.6180
 5214TIP3   OH237056   2.450   2.426   2.429 -0.0681  0.1696  0.0626
 5214TIP3    H137057   2.408   2.498   2.476 -0.8735 -0.7237  0.7810
 5214TIP3    H237058   2.528   2.407   2.481 -0.4709 -0.2145  0.5458
 5215TIP3   OH237059   0.784   1.717  13.841 -0.7355  0.0573  0.1231
 5215TIP3    H137060   0.850   1.648  13.844 -1.1050 -0.3396 -0.5426
 5215TIP3    H237061   0.765   1.737  13.932  1.5980  1.4528  0.3877
 5216TIP3   OH237062   2.782   6.745   4.926  0.0284  0.3145 -0.0240
 5216TIP3    H137063   2.850   6.686   4.893 -0.1923  1.0177 -1.8617
 5216TIP3    H237064   2.810   6.832   4.896  0.2570  1.1675  2.4647
 5217TIP3   OH237065   4.937   6.400   5.992 -0.2784 -0.0467 -0.1196
 5217TIP3    H137066   4.885   6.323   6.016 -0.2922  0.3099  1.0782
 5217TIP3    H237067   5.010   6.400   6.054  1.4507 -0.7891 -2.0624
 5218TIP3   OH237068   6.770   2.317   5.831  0.6469 -0.2594  0.1979
 5218TIP3    H137069   6.706   2.372   5.877  0.5226  0.0718 -0.3485
 5218TIP3    H237070   6.853   2.363   5.843  0.2576  1.1749 -1.8858
 5219TIP3   OH237071   4.738   4.924   1.859 -0.2034  0.4413  0.0085
 5219TIP3    H137072   4.724   4.883   1.774  1.6562 -0.9348  0.3092
 5219TIP3    H237073   4.756   5.016   1.839  0.2284  0.1292 -1.0924
 5220TIP3   OH237074   3.949   5.121  12.977  0.1841 -0.3150  0.0563
 5220TIP3    H137075   3.885   5.060  12.941  1.3175 -1.1567 -0.5610
 5220TIP3    H237076   4.018   5.066  13.012  1.9731  0.5798 -1.8481
 5221TIP3   OH237077   5.777   2.113  16.727  0.6065  0.1639 -0.1356
 5221TIP3    H137078   5.704   2.171  16.704  1.8729  2.4010  1.2010
 5221TIP3    H237079   5.852   2.148  16.678  1.4894 -0.0990  0.9946
 5222TIP3   OH237080   3.757   3.486  12.029  0.5892 -0.0672 -0.1607
 5222TIP3    H137081   3.729   3.481  11.938  1.8687  1.0654 -0.6369
 5222TIP3    H237082   3.839   3.438  12.032  0.2306 -0.6726  0.5627
 5223TIP3   OH237083   6.291   6.176   3.054 -0.5512  0.6285  0.0669
 5223TIP3    H137084   6.293   6.138   3.141 -0.7869 -1.1211 -0.6474
 5223TIP3    H237085   6.267   6.268   3.068 -1.9000  0.0751  1.7379
 5224TIP3   OH237086   5.896   1.374  12.465 -0.2487  0.6441  0.3957
 5224TIP3    H137087   5.904   1.448  12.404 -1.3210 -1.2185 -2.1993
 5224TIP3    H237088   5.974   1.321  12.449 -0.6417  0.0256  0.4789
 5225TIP3   OH237089   0.159   3.730   0.187  0.0964  0.1583 -0.7569
 5225TIP3    H137090   0.151   3.803   0.125  1.4743 -0.4905 -1.7563
 5225TIP3    H237091   0.214   3.765   0.257 -2.3042  1.2242  0.7031
 5226TIP3   OH237092   4.952   6.500  14.975 -0.2918 -0.3664 -0.1177
 5226TIP3    H137093   4.868   6.536  15.004 -0.2106  0.9391 -1.3627
 5226TIP3    H237094   4.994   6.469  15.055 -0.8138  1.4586  0.9297
 5227TIP3   OH237095   6.611   3.174   2.079  0.0463 -0.8922  0.1167
 5227TIP3    H137096   6.685   3.113   2.074 -0.8673 -2.0186  0.0424
 5227TIP3    H237097   6.554   3.148   2.007 -0.7910 -0.5338  0.6371
 5228TIP3   OH237098   0.854   3.940   4.018  0.5296 -0.8541 -0.3521
 5228TIP3    H137099   0.774   3.960   3.969  1.0825 -1.4892 -1.5606
 5228TIP3    H237100   0.883   4.025   4.051  0.3128 -0.3335 -1.4349
 5229TIP3   OH237101   4.811   5.101  10.942  0.1577 -0.7990 -0.1092
 5229TIP3    H137102   4.869   5.026  10.958  0.9601 -0.5281 -1.6329
 5229TIP3    H237103   4.744   5.067  10.884 -0.0178 -0.5686 -0.0409
 5230TIP3   OH237104   5.473   6.804  13.202 -0.2061  0.1616  0.6230
 5230TIP3    H137105   5.567   6.821  13.205 -0.6019  2.4884  1.6590
 5230TIP3    H237106   5.465   6.724  13.150  2.3366 -0.1889  0.6408
 5231TIP3   OH237107   6.578   5.552  15.476  0.1030  0.1162  0.2760
 5231TIP3    H137108   6.546   5.506  15.399  0.0133 -0.6743  0.7698
 5231TIP3    H237109   6.556   5.643  15.461  0.7858  0.0995 -0.9856
 5232TIP3   OH237110   1.693   1.014  11.199  0.3356  0.0056 -0.3933
 5232TIP3    H137111   1.708   1.105  11.227  0.4300 -0.5040  1.3129
 5232TIP3    H237112   1.776   0.988  11.157  0.3473  0.6599 -0.7901
 5233TIP3   OH237113   3.675   6.126   0.720  0.5147  0.4792  0.8422
 5233TIP3    H137114   3.729   6.053   0.691  0.2393  1.3789 -2.3612
 5233TIP3    H237115   3.730   6.204   0.706 -0.4165  1.1447  0.7708
 5234TIP3   OH237116   6.337   6.776   2.237 -0.3708 -0.1052  0.0933
 5234TIP3    H137117   6.375   6.788   2.324 -1.2979  1.1068  0.3670
 5234TIP3    H237118   6.328   6.681   2.228  4.0440 -0.6544 -0.6438
 5235TIP3   OH237119   5.310   1.179   1.789  0.1026 -0.1217  0.3992
 5235TIP3    H137120   5.378   1.170   1.721  0.7144  1.2019  0.8083
 5235TIP3    H237121   5.355   1.154   1.870 -0.5888 -1.5635  0.3771
 5236TIP3   OH237122   4.925   0.880   3.501  0.0205 -0.2383  0.2792
 5236TIP3    H137123   4.947   0.822   3.574 -0.4983  1.0088  1.4761
 5236TIP3    H237124   4.959   0.965   3.527 -0.6536  0.3451 -0.6933
 5237TIP3   OH237125   0.149   0.445  14.493  0.2483 -0.3201 -0.0565
 5237TIP3    H137126   0.107   0.510  14.549  0.1051 -0.0941 -0.4187
 5237TIP3    H237127   0.216   0.405  14.548  0.4212  0.2260  0.1374
 5238TIP3   OH237128   3.418   0.040   4.808 -0.6064 -0.4364 -0.0546
 5238TIP3    H137129   3.483  -0.008   4.859  0.1849  0.1149 -0.5230
 5238TIP3    H237130   3.347   0.058   4.870  0.8712  1.3037  1.2596
 5239TIP3   OH237131   3.563   3.708  11.850 -0.2743  0.2422 -0.3317
 5239TIP3    H137132   3.534   3.628  11.805  0.4267  0.0054 -0.3742
 5239TIP3    H237133   3.657   3.714  11.831 -0.5146  1.6662 -1.2284
 5240TIP3   OH237134   4.106   4.443   5.419  0.2522 -0.1885  0.4027
 5240TIP3    H137135   4.116   4.348   5.416 -0.7844 -0.2966 -0.0796
 5240TIP3    H237136   4.011   4.457   5.419  0.3914  0.8449  0.6193
 5241TIP3   OH237137   2.168   1.527   2.615 -0.5039 -0.8377  0.7337
 5241TIP3    H137138   2.121   1.445   2.601  0.3144 -1.0158 -1.2969
 5241TIP3    H237139   2.259   1.501   2.629 -0.3555 -0.3129  0.7616
 5242TIP3   OH237140   6.102   5.702  12.216 -0.4364  0.2275 -0.0085
 5242TIP3    H137141   6.020   5.750  12.200 -0.6900 -0.6419 -1.4840
 5242TIP3    H237142   6.087   5.656  12.298 -1.6349 -0.3288 -0.5221
 5243TIP3   OH237143   4.142   4.524  14.267  0.0232  0.8937 -0.2744
 5243TIP3    H137144   4.105   4.578  14.197 -1.6564  0.0455 -0.0932
 5243TIP3    H237145   4.066   4.493  14.316  1.1927  2.8030  3.0284
 5244TIP3   OH237146   0.325   1.072  11.268  0.2966  0.5209 -0.0577
 5244TIP3    H137147   0.268   1.013  11.318  0.3394  1.9323  1.7920
 5244TIP3    H237148   0.274   1.095  11.191 -0.8239  0.2154  0.5691
 5245TIP3   OH237149   4.470   5.229   5.479 -0.4908  0.0231 -0.8052
 5245TIP3    H137150   4.462   5.269   5.393  0.4089  1.7375 -0.1259
 5245TIP3    H237151   4.560   5.195   5.481 -0.0014  1.3117 -0.0245
 5246TIP3   OH237152   2.659   0.811   3.844  0.4160  0.1798 -0.1438
 5246TIP3    H137153   2.730   0.861   3.803 -0.2623  0.5794 -0.8484
 5246TIP3    H237154   2.653   0.847   3.932  0.1793  1.1036 -0.5241
 5247TIP3   OH237155   1.040   6.139  15.890  0.4354  0.3287 -0.7666
 5247TIP3    H137156   1.110   6.201  15.869 -0.5912  0.8847 -2.8094
 5247TIP3    H237157   0.977   6.148  15.819 -1.3574 -0.7302  0.5792
 5248TIP3   OH237158   0.295   6.053  14.299 -0.6050  0.5285  0.4891
 5248TIP3    H137159   0.232   6.012  14.238  0.3538 -0.9864  0.4580
 5248TIP3    H237160   0.272   6.015  14.384  0.5102 -0.3939  0.4056
 5249TIP3   OH237161   0.038   5.402   3.743  0.7438  0.6322  1.1316
 5249TIP3    H137162   0.091   5.428   3.667 -1.8340  1.6343 -0.4554
 5249TIP3    H237163  -0.020   5.334   3.709 -0.2886  0.9051  2.2729
 5250TIP3   OH237164   3.603   2.014   1.522  0.1967  0.7561  0.2740
 5250TIP3    H137165   3.674   2.014   1.587 -0.3693 -1.4228  0.9997
 5250TIP3    H237166   3.524   2.031   1.572 -0.0782  0.6279 -0.1098
 5251TIP3   OH237167   1.556   1.572   3.786 -0.0215  0.2360 -0.2848
 5251TIP3    H137168   1.563   1.667   3.775 -1.2461  0.5471  1.2443
 5251TIP3    H237169   1.517   1.541   3.704 -0.1981  1.1277 -0.5483
 5252TIP3   OH237170   6.262   6.656   1.391  0.5028  0.1640 -0.0416
 5252TIP3    H137171   6.342   6.699   1.362  0.7780  0.0022  0.4711
 5252TIP3    H237172   6.192   6.714   1.360  0.7621 -0.2001 -1.3640
 5253TIP3   OH237173   4.654   0.642  12.785  0.6162 -0.4185  0.3078
 5253TIP3    H137174   4.646   0.613  12.694  1.1801  0.4564 -0.0325
 5253TIP3    H237175   4.564   0.656  12.814  0.3898 -1.4252  0.1352
 5254TIP3   OH237176   1.421   0.500   4.021  0.7142  0.2257  0.2802
 5254TIP3    H137177   1.379   0.511   3.935  2.2881 -2.4008 -0.9421
 5254TIP3    H237178   1.514   0.514   4.004  0.9692  0.4082  1.7488
 5255TIP3   OH237179   1.472   5.969  15.580 -0.1238  0.3658 -0.2590
 5255TIP3    H137180   1.562   5.962  15.549 -0.1761 -3.8430  0.0109
 5255TIP3    H237181   1.419   5.962  15.501 -0.2117 -0.2448 -0.1489
 5256TIP3   OH237182   4.344   2.392  14.803  0.1335  0.3596 -0.1585
 5256TIP3    H137183   4.329   2.316  14.748 -2.4108 -0.6294  1.7409
 5256TIP3    H237184   4.395   2.452  14.747 -1.4521 -0.9261 -3.2364
 5257TIP3   OH237185   1.406   6.022   6.196  0.2017  0.6907  0.3869
 5257TIP3    H137186   1.398   5.934   6.233  0.3871  1.2850  1.9240
 5257TIP3    H237187   1.488   6.020   6.147  0.3284  0.0589  0.6137
 5258TIP3   OH237188   6.360   0.887   5.434  0.0489  0.7985 -0.3094
 5258TIP3    H137189   6.439   0.919   5.389  1.9107 -1.4671  1.1350
 5258TIP3    H237190   6.341   0.803   5.392  1.3928 -1.0196  2.4395
 5259TIP3   OH237191   1.018   4.120   2.268  0.4677  0.0924 -0.0856
 5259TIP3    H137192   1.103   4.155   2.294 -0.1234  0.6636  1.1351
 5259TIP3    H237193   0.993   4.171   2.191  1.3435 -0.2710 -0.6242
 5260TIP3   OH237194   3.762   6.689  11.314  0.1458 -0.5873 -0.7268
 5260TIP3    H137195   3.682   6.686  11.263 -0.0537  0.7236 -0.5077
 5260TIP3    H237196   3.789   6.597  11.321 -0.4525 -0.8994 -2.1577
 5261TIP3   OH237197   6.076   4.547   2.634  0.0501  0.2862 -0.3090
 5261TIP3    H137198   6.052   4.504   2.552  1.8946 -0.6971 -0.3970
 5261TIP3    H237199   6.006   4.610   2.650 -0.6044  0.1538 -2.3653
 5262TIP3   OH237200   3.706   4.751   0.383  0.1506 -0.2477  0.3481
 5262TIP3    H137201   3.754   4.676   0.347 -0.9999 -1.0649  0.4752
 5262TIP3    H237202   3.627   4.713   0.422  0.9336  0.6892  3.0321
 5263TIP3   OH237203   4.740   4.677  15.677 -0.7130 -0.4468 -0.2758
 5263TIP3    H137204   4.829   4.655  15.647 -0.7737  0.5263 -1.2606
 5263TIP3    H237205   4.684   4.656  15.602 -1.0211  1.0228 -0.4849
 5264TIP3   OH237206   1.490   3.353  16.057  0.6929  0.5748  0.3309
 5264TIP3    H137207   1.472   3.386  15.969 -0.5898 -0.6415  0.0884
 5264TIP3    H237208   1.556   3.413  16.092  1.0355  1.2497 -1.3430
 5265TIP3   OH237209   6.670   4.061  13.781  0.1752 -0.0976  0.2049
 5265TIP3    H137210   6.705   4.145  13.812 -0.0806  0.4723 -0.9908
 5265TIP3    H237211   6.734   4.032  13.716 -1.3198  0.7912 -1.7577
 5266TIP3   OH237212   1.240   1.584  14.219  0.0315  0.5284  0.1839
 5266TIP3    H137213   1.285   1.506  14.186  0.3436  0.0143  1.7233
 5266TIP3    H237214   1.309   1.639  14.255 -0.0126  2.2207 -2.0901
 5267TIP3   OH237215   4.691   1.103  14.067  0.2642  0.0071  0.3026
 5267TIP3    H137216   4.684   1.091  13.972 -0.4253  0.3315  0.3123
 5267TIP3    H237217   4.652   1.189  14.084  1.8117  0.6794  0.6970
 5268TIP3   OH237218   0.012   4.361  13.114 -0.0108 -0.0371  0.5202
 5268TIP3    H137219   0.048   4.275  13.133 -1.8526 -0.8749  0.4816
 5268TIP3    H237220  -0.009   4.399  13.199  2.4071  1.1854  0.6549
 5269TIP3   OH237221   1.764   0.617  11.315  0.5278  0.4566  0.2210
 5269TIP3    H137222   1.669   0.609  11.328  0.6748  0.6530  1.6509
 5269TIP3    H237223   1.779   0.582  11.228 -0.6243 -1.4515  0.7038
 5270TIP3   OH237224   1.050   6.731   6.243 -0.4134 -0.1875  0.1855
 5270TIP3    H137225   0.969   6.743   6.193  0.2076  1.4277 -0.4862
 5270TIP3    H237226   1.024   6.674   6.316 -2.1727  0.3259  0.0123
 5271TIP3   OH237227   4.106   3.979   3.251  0.0378  0.7898 -0.1790
 5271TIP3    H137228   4.116   3.922   3.327 -1.7665 -0.7600 -1.0105
 5271TIP3    H237229   4.193   4.016   3.236  0.9340 -0.6271  1.2606
 5272TIP3   OH237230   3.999   0.989  16.498  0.2223  0.2734 -0.0579
 5272TIP3    H137231   3.915   1.034  16.508  0.6160  0.8367  0.9664
 5272TIP3    H237232   4.016   0.952  16.585  0.6545 -0.5202 -0.4724
 5273TIP3   OH237233   4.386   3.991  16.187  0.5220  0.6039  0.1152
 5273TIP3    H137234   4.369   3.923  16.122 -3.1835  1.7698 -0.3791
 5273TIP3    H237235   4.395   3.943  16.269  0.2374 -0.5906 -0.5188
 5274TIP3   OH237236   3.983   0.625  16.584  0.5199  0.5089  0.1769
 5274TIP3    H137237   4.062   0.674  16.564 -0.9778  2.2363 -1.9955
 5274TIP3    H237238   3.978   0.558  16.515  0.4597 -0.1000  0.7562
 5275TIP3   OH237239   6.704   1.414  12.885 -0.5443  0.2353 -0.3689
 5275TIP3    H137240   6.763   1.450  12.819  1.5171  0.0556  1.2526
 5275TIP3    H237241   6.737   1.325  12.899 -0.4405  0.5161  1.3788
 5276TIP3   OH237242   5.914   5.691   2.482 -0.8828  0.0652  0.3265
 5276TIP3    H137243   5.873   5.668   2.399 -1.7037 -0.5032  0.8671
 5276TIP3    H237244   5.912   5.787   2.484  0.8314  0.1706 -1.1020
 5277TIP3   OH237245   6.268   3.310   2.882 -0.5349 -0.0498  0.2952
 5277TIP3    H137246   6.177   3.303   2.910 -0.5488 -0.0526  0.2486
 5277TIP3    H237247   6.308   3.228   2.911 -0.0316  0.8058  2.1880
 5278TIP3   OH237248   2.895   4.171   4.721 -0.6152 -0.0537  0.1236
 5278TIP3    H137249   2.807   4.200   4.743 -0.9920 -1.4604  0.5770
 5278TIP3    H237250   2.883   4.105   4.653 -0.0751 -1.4069  1.2797
 5279TIP3   OH237251   4.102   4.313   0.424  0.3910 -0.1497 -0.2852
 5279TIP3    H137252   4.012   4.291   0.445  1.3807 -2.9549  1.4874
 5279TIP3    H237253   4.103   4.320   0.328 -1.0025 -4.1578 -0.7861
 5280TIP3   OH237254   4.148   0.032  14.982 -0.4556  0.4895 -0.3181
 5280TIP3    H137255   4.136   0.121  14.949  0.5097  1.1929  1.1277
 5280TIP3    H237256   4.060   0.004  15.007 -0.7412  1.1181 -0.5869
 5281TIP3   OH237257   2.951   0.354  13.966 -0.7588  0.1068 -0.0343
 5281TIP3    H137258   2.904   0.336  13.884 -1.0853  1.8358 -0.2697
 5281TIP3    H237259   3.016   0.420  13.942  2.5396 -2.8240  0.0719
 5282TIP3   OH237260   1.359   1.120   0.735 -0.4306 -0.2302 -0.0449
 5282TIP3    H137261   1.266   1.140   0.723 -0.4821 -0.3677  0.1238
 5282TIP3    H237262   1.367   1.099   0.828 -0.0969  0.5183  0.1006
 5283TIP3   OH237263   4.816   5.868  13.728 -0.8466  0.5350 -0.1004
 5283TIP3    H137264   4.864   5.786  13.715  2.0353  2.1676 -0.4430
 5283TIP3    H237265   4.804   5.903  13.640 -1.1492  0.9962  0.1169
 5284TIP3   OH237266   3.756   5.080  14.190 -0.1131 -0.0049 -0.4203
 5284TIP3    H137267   3.784   4.994  14.159  0.7342 -0.7873  2.2464
 5284TIP3    H237268   3.805   5.142  14.136 -0.1456 -1.1840 -1.8697
 5285TIP3   OH237269   4.854   5.713  12.515  0.1983 -0.1965  0.1590
 5285TIP3    H137270   4.783   5.661  12.476  0.7428  0.5943 -2.0277
 5285TIP3    H237271   4.812   5.795  12.540 -0.0296 -0.4709  0.6951
 5286TIP3   OH237272   4.647   2.385   1.318  0.0128  0.3108  0.2406
 5286TIP3    H137273   4.682   2.465   1.356  0.3053  0.1260  0.3662
 5286TIP3    H237274   4.600   2.343   1.390 -0.3306  0.4782  0.1153
 5287TIP3   OH237275   1.322   6.046   2.759 -0.1790  0.0453 -0.3905
 5287TIP3    H137276   1.389   6.079   2.700 -0.3035 -0.6206 -0.9022
 5287TIP3    H237277   1.369   6.027   2.841  0.4120 -1.1682 -0.9925
 5288TIP3   OH237278   3.071   1.345  15.676 -0.2178  0.1224  0.3354
 5288TIP3    H137279   2.975   1.349  15.684 -0.5611  0.7915 -2.8558
 5288TIP3    H237280   3.100   1.430  15.710 -0.9681  0.7515 -0.5414
 5289TIP3   OH237281   0.825   1.071  11.454 -0.1060 -0.2532  0.2875
 5289TIP3    H137282   0.881   1.019  11.512  0.8529  1.5531  1.0724
 5289TIP3    H237283   0.811   1.153  11.502  2.2687  2.1369 -2.7214
 5290TIP3   OH237284   5.834   5.807   5.001 -0.2064 -0.1368  0.6801
 5290TIP3    H137285   5.928   5.824   4.995 -0.2265 -0.4634 -1.4111
 5290TIP3    H237286   5.793   5.883   4.960 -0.7894 -0.5238  0.5299
 5291TIP3   OH237287   3.837   4.040   3.183 -0.2837 -0.1674  0.1270
 5291TIP3    H137288   3.930   4.020   3.196 -0.2202  1.1947  2.2639
 5291TIP3    H237289   3.836   4.128   3.146 -0.6865  0.4861  1.5963
 5292TIP3   OH237290   4.097   1.875   3.754 -0.0605 -0.1329  0.1888
 5292TIP3    H137291   4.073   1.968   3.758  1.4893  0.2496  2.1973
 5292TIP3    H237292   4.048   1.835   3.826  1.7222 -0.1924  1.4378
 5293TIP3   OH237293   2.253   6.193  12.125  0.2082  0.0897 -0.0175
 5293TIP3    H137294   2.295   6.151  12.050 -3.3355 -0.5959 -1.8512
 5293TIP3    H237295   2.242   6.123  12.189 -0.4030 -0.3773 -0.6176
 5294TIP3   OH237296   1.765   2.222   3.329 -0.0522  0.0055  0.3479
 5294TIP3    H137297   1.832   2.290   3.343  0.0697  0.1507 -0.7872
 5294TIP3    H237298   1.796   2.174   3.252 -0.8947 -0.3845  0.2396
 5295TIP3   OH237299   3.571   1.964   0.371  0.0055 -0.4479  0.4194
 5295TIP3    H137300   3.493   2.020   0.372  0.3139 -0.0146  0.6879
 5295TIP3    H237301   3.608   1.974   0.459 -0.9098 -2.4789  1.0849
 5296TIP3   OH237302   0.017   2.706  15.945 -0.2338 -0.6701  0.2126
 5296TIP3    H137303  -0.001   2.795  15.914 -1.2276 -1.0476 -0.3229
 5296TIP3    H237304   0.047   2.659  15.867  1.2823 -0.5717  0.6926
 5297TIP3   OH237305   5.366   3.283  15.951  0.0883 -0.2512  0.0989
 5297TIP3    H137306   5.349   3.350  16.017  0.9477  1.4187 -1.2755
 5297TIP3    H237307   5.452   3.307  15.915 -0.2310 -1.2602 -1.4049
 5298TIP3   OH237308   4.006   0.736   0.522 -0.0895 -0.3577  0.5884
 5298TIP3    H137309   3.979   0.800   0.587  0.4664 -0.4357  0.9020
 5298TIP3    H237310   3.996   0.651   0.567 -0.4792 -0.4675  0.2985
 5299TIP3   OH237311   6.142   4.239   1.724  0.2556  0.4967  0.3334
 5299TIP3    H137312   6.177   4.308   1.667  0.3366  0.6661  0.5833
 5299TIP3    H237313   6.058   4.274   1.755 -0.5822 -0.2777 -0.9638
 5300TIP3   OH237314   3.455   1.492   6.301 -0.4982 -0.2051  0.1342
 5300TIP3    H137315   3.414   1.453   6.378  1.2743 -2.0971  0.2063
 5300TIP3    H237316   3.487   1.577   6.331 -2.0599  0.1923  0.7511
 5301TIP3   OH237317   1.517   4.346   4.654  0.4918 -0.0991  0.0571
 5301TIP3    H137318   1.582   4.415   4.661  0.5395 -0.1465  0.0784
 5301TIP3    H237319   1.476   4.360   4.568  1.2981 -0.7468 -0.4451
 5302TIP3   OH237320   3.087   2.435  11.915 -0.0371  0.0215  0.0298
 5302TIP3    H137321   3.077   2.473  12.002  0.8578 -1.6395  0.9211
 5302TIP3    H237322   3.171   2.389  11.919 -0.8118 -1.5926 -1.1156
 5303TIP3   OH237323   2.225   0.812   3.125 -0.0232  0.3159  0.2827
 5303TIP3    H137324   2.201   0.757   3.050  0.0575  1.4564 -0.5980
 5303TIP3    H237325   2.147   0.810   3.181  0.4670 -1.8035  0.9797
 5304TIP3   OH237326   6.816   3.716   5.448  0.3281 -0.5057 -0.0269
 5304TIP3    H137327   6.753   3.726   5.520  0.3800 -0.2698 -0.0144
 5304TIP3    H237328   6.810   3.798   5.400  0.9045 -0.3334  0.1961
 5305TIP3   OH237329   0.170   1.950  12.686 -0.3661 -0.3091 -0.3749
 5305TIP3    H137330   0.098   1.923  12.743 -0.6458  1.8070  0.3734
 5305TIP3    H237331   0.140   1.930  12.598 -1.3599 -0.5507  0.0065
 5306TIP3   OH237332   5.926   4.113   2.024 -0.5002 -0.2123 -0.1934
 5306TIP3    H137333   5.907   4.020   2.010  1.3400 -0.3850 -2.1912
 5306TIP3    H237334   5.976   4.115   2.105  1.3288 -1.3287 -1.2220
 5307TIP3   OH237335   6.653   4.049   4.479  0.5586  0.2475  0.4881
 5307TIP3    H137336   6.667   3.969   4.428 -0.5937  0.5689 -0.3951
 5307TIP3    H237337   6.603   4.020   4.555 -0.6293  0.2109 -0.2682
 5308TIP3   OH237338   3.058   2.241   2.048 -0.2837  0.2309 -0.4999
 5308TIP3    H137339   3.143   2.220   2.009 -0.1750 -0.6269  0.1925
 5308TIP3    H237340   3.039   2.168   2.107 -1.8532  0.0307 -1.1988
 5309TIP3   OH237341   3.242   2.042  15.462 -0.4766  0.4551 -0.0846
 5309TIP3    H137342   3.163   2.055  15.409 -1.2597 -0.0633  0.9319
 5309TIP3    H237343   3.275   1.956  15.436 -1.3342 -0.1721  0.8431
 5310TIP3   OH237344   0.895   1.981  10.952 -0.4008 -0.1527 -0.0708
 5310TIP3    H137345   0.896   2.075  10.939  1.6092  0.2608  2.1620
 5310TIP3    H237346   0.868   1.970  11.043 -0.9152 -1.7646 -0.3870
 5311TIP3   OH237347   5.881   1.641  16.976 -0.3995 -0.5114 -0.3717
 5311TIP3    H137348   5.867   1.571  17.039 -0.3576 -0.7715 -0.6481
 5311TIP3    H237349   5.826   1.713  17.007 -2.0306 -1.3664 -1.2030
 5312TIP3   OH237350   1.164   6.458   4.138  1.2810  0.0517  0.1241
 5312TIP3    H137351   1.076   6.494   4.131  1.8859  1.3999 -0.8571
 5312TIP3    H237352   1.161   6.378   4.086  0.6129  0.0188  0.2012
 5313TIP3   OH237353   0.811   1.781  12.905  0.3345  0.0058 -0.1329
 5313TIP3    H137354   0.809   1.873  12.878  1.5408 -0.3733 -1.6584
 5313TIP3    H237355   0.793   1.732  12.824  0.5203 -1.1197  0.4888
 5314TIP3   OH237356   4.918   6.176   6.259  0.5323  0.1160 -0.1014
 5314TIP3    H137357   4.980   6.249   6.262 -0.0083  0.5468  1.2476
 5314TIP3    H237358   4.966   6.106   6.214  0.9961  1.3304 -1.5783
 5315TIP3   OH237359   3.029   3.669   2.875  0.7024  0.2311 -0.6239
 5315TIP3    H137360   3.043   3.617   2.795 -2.7007  2.3149 -2.8303
 5315TIP3    H237361   3.065   3.755   2.854  0.0894  0.7086  0.2113
 5316TIP3   OH237362   2.263   0.398   4.881 -0.3869 -0.4188 -0.4417
 5316TIP3    H137363   2.184   0.438   4.846 -0.7029  0.2842  0.9642
 5316TIP3    H237364   2.310   0.364   4.805 -1.2228  0.6437 -1.4605
 5317TIP3   OH237365   4.904   6.217   4.010 -0.3194  0.1810  0.0930
 5317TIP3    H137366   4.988   6.260   3.994 -0.8687  1.6267  0.8756
 5317TIP3    H237367   4.859   6.219   3.925  0.0847  0.2189 -0.1196
 5318TIP3   OH237368   6.245   2.182   5.074  0.4374 -0.0390  0.3494
 5318TIP3    H137369   6.216   2.263   5.034  0.7295 -0.5885 -1.0366
 5318TIP3    H237370   6.313   2.208   5.136 -0.1744  0.8522  0.6656
 5319TIP3   OH237371   6.490   5.385  12.309 -0.4312 -0.0962  0.2274
 5319TIP3    H137372   6.581   5.418  12.311 -0.4075 -0.1615  1.7209
 5319TIP3    H237373   6.477   5.356  12.219  0.7975  0.5722 -0.1985
 5320TIP3   OH237374   4.005   5.844   1.427  0.0376  0.3759 -0.2673
 5320TIP3    H137375   3.922   5.800   1.444  1.4056 -1.5208  2.1721
 5320TIP3    H237376   4.006   5.918   1.488  0.2450  0.2090 -0.0641
 5321TIP3   OH237377   1.796   1.644   0.856  0.0014 -0.5621 -0.2106
 5321TIP3    H137378   1.818   1.706   0.925 -3.7786  0.4882  0.2889
 5321TIP3    H237379   1.811   1.693   0.775  0.5726 -0.3574  0.0093
 5322TIP3   OH237380   5.208   6.515  13.525 -0.0468  0.4865 -0.4334
 5322TIP3    H137381   5.199   6.425  13.555  4.2749  0.4522  1.5567
 5322TIP3    H237382   5.251   6.507  13.439 -0.2572  0.6669 -0.5569
 5323TIP3   OH237383   3.882   3.014   2.682  0.5070 -0.0991  0.1690
 5323TIP3    H137384   3.912   3.064   2.757  0.7401 -0.2744  0.1937
 5323TIP3    H237385   3.788   3.000   2.698  0.8092 -1.2371  1.0654
 5324TIP3   OH237386   2.575   1.180  15.017  0.8258 -0.3948 -0.2105
 5324TIP3    H137387   2.509   1.226  15.070  0.2856 -1.6251  0.2204
 5324TIP3    H237388   2.536   1.094  14.999  2.6782 -1.5200  0.8377
 5325TIP3   OH237389   1.769   2.632  16.490  0.5298 -0.3390  0.6950
 5325TIP3    H137390   1.687   2.604  16.449  0.0314 -0.4341  1.7135
 5325TIP3    H237391   1.837   2.608  16.427 -0.1987 -0.5575 -0.0243
 5326TIP3   OH237392   4.234   0.807   3.892  0.0010 -0.2474 -0.3620
 5326TIP3    H137393   4.191   0.877   3.942 -0.0059 -1.0041  0.7224
 5326TIP3    H237394   4.260   0.743   3.958 -2.1102 -2.4378 -1.5002
 5327TIP3   OH237395   5.582   1.406   2.093 -0.3863 -0.4316 -0.0272
 5327TIP3    H137396   5.613   1.370   2.010 -1.8105  0.1547 -0.8501
 5327TIP3    H237397   5.620   1.494   2.097 -0.8745 -0.2000 -0.4027
 5328TIP3   OH237398   5.492   2.966   3.662 -0.1120  0.1012 -0.4533
 5328TIP3    H137399   5.525   2.987   3.574 -0.1798 -1.6634 -0.9352
 5328TIP3    H237400   5.434   2.891   3.648 -0.3560 -0.0077  1.0696
 5329TIP3   OH237401   2.850   1.682  11.937  0.0604  0.3523 -0.1714
 5329TIP3    H137402   2.923   1.626  11.964 -0.4717 -1.1353 -1.6462
 5329TIP3    H237403   2.781   1.665  12.001  0.1676 -0.1060 -0.1748
 5330TIP3   OH237404   2.861   0.271   1.370 -0.1499 -0.7523 -0.3046
 5330TIP3    H137405   2.900   0.293   1.455 -1.3931 -0.5802  0.2336
 5330TIP3    H237406   2.910   0.194   1.341  0.4886 -0.6350  0.4198
 5331TIP3   OH237407   2.142   4.537   6.090  0.1573  0.4219 -0.0277
 5331TIP3    H137408   2.085   4.570   6.021  0.7240 -0.8994 -1.1821
 5331TIP3    H237409   2.104   4.452   6.113  1.9439 -0.7696 -1.2590
 5332TIP3   OH237410   6.372   4.106   2.322  0.2762  0.3750 -0.6133
 5332TIP3    H137411   6.420   4.057   2.255 -0.5533 -1.2326 -0.0921
 5332TIP3    H237412   6.280   4.087   2.304  0.0647 -1.9851  2.2497
 5333TIP3   OH237413   5.996   2.466   3.733  0.4683  0.4956  0.3918
 5333TIP3    H137414   5.934   2.405   3.772  0.2594  0.8325  0.5937
 5333TIP3    H237415   5.949   2.550   3.732  0.8798  0.7265  0.4384
 5334TIP3   OH237416   3.196   0.736   1.153 -0.3547 -0.6720 -0.2423
 5334TIP3    H137417   3.208   0.812   1.096 -0.4726 -1.1820 -0.9608
 5334TIP3    H237418   3.272   0.738   1.212 -0.4588  0.1027 -0.1341
 5335TIP3   OH237419   4.041   2.059  16.920 -0.1997 -0.3287  0.0203
 5335TIP3    H137420   4.055   1.967  16.942 -1.2481 -0.9938 -1.9102
 5335TIP3    H237421   4.097   2.075  16.844  0.4329  0.8213  0.6963
 5336TIP3   OH237422   2.676   1.420  17.057  0.2378  0.1699 -0.5444
 5336TIP3    H137423   2.690   1.379  17.143  0.7970 -0.8142 -1.0799
 5336TIP3    H237424   2.751   1.390  17.004  0.3880  1.4992 -1.1171
 5337TIP3   OH237425   3.554   2.889  16.214 -0.0489 -1.2402  0.0269
 5337TIP3    H137426   3.564   2.953  16.143 -0.8005 -0.4738  0.5905
 5337TIP3    H237427   3.639   2.890  16.259 -0.7751  1.2969  1.5774
 5338TIP3   OH237428   6.263   6.429  13.726  0.2693 -0.1474  0.2303
 5338TIP3    H137429   6.271   6.404  13.818 -1.1532 -0.0534  0.3980
 5338TIP3    H237430   6.209   6.508  13.727 -0.8419 -0.8590 -0.7579
 5339TIP3   OH237431   5.818   3.205  12.434  0.6230 -0.0421 -0.2195
 5339TIP3    H137432   5.876   3.210  12.511 -0.2627  0.1548  0.4519
 5339TIP3    H237433   5.783   3.293  12.425 -2.8594 -0.9623  2.0331
 5340TIP3   OH237434   0.118   2.158   5.102 -0.3564 -0.1239 -0.1408
 5340TIP3    H137435   0.202   2.201   5.116 -0.4816 -0.3093  1.3114
 5340TIP3    H237436   0.139   2.064   5.105 -0.5822 -0.1696  0.0522
 5341TIP3   OH237437   4.217   3.244   3.642  0.0705  0.2107  0.6555
 5341TIP3    H137438   4.223   3.326   3.593  0.2675 -0.0578  0.2284
 5341TIP3    H237439   4.252   3.265   3.729  4.5412 -0.5167 -0.7416
 5342TIP3   OH237440   5.617   5.610  11.123  0.8656 -0.6023 -0.0474
 5342TIP3    H137441   5.648   5.537  11.069 -0.0495 -1.0412 -0.0077
 5342TIP3    H237442   5.694   5.641  11.170  1.8420  0.2165 -2.0905
 5343TIP3   OH237443   0.508   5.960  10.852  0.0861 -0.0082  0.1155
 5343TIP3    H137444   0.426   5.912  10.837 -0.2060  0.7785 -0.9766
 5343TIP3    H237445   0.482   6.034  10.907  0.2718 -0.3388  0.6507
 5344TIP3   OH237446   1.834   2.532   5.603  0.0012  0.2634  0.0612
 5344TIP3    H137447   1.770   2.509   5.535 -0.9796 -0.8251  1.3006
 5344TIP3    H237448   1.807   2.618   5.634  0.0590  0.4752 -0.4746
 5345TIP3   OH237449   1.727   4.007  14.762 -0.9187  0.5933  0.0944
 5345TIP3    H137450   1.805   4.063  14.759 -1.1810  0.9712  0.2195
 5345TIP3    H237451   1.758   3.922  14.731 -0.2163  0.4464  1.1144
 5346TIP3   OH237452   1.597   2.901   1.566  0.0592  0.4567  0.2246
 5346TIP3    H137453   1.518   2.866   1.608 -0.9356  1.4976 -0.6910
 5346TIP3    H237454   1.609   2.846   1.489  1.7638 -1.3194  1.6379
 5347TIP3   OH237455   5.964   2.151  15.728  0.0922 -0.1395  0.2189
 5347TIP3    H137456   5.977   2.079  15.790 -0.9914  0.5580  1.3289
 5347TIP3    H237457   5.900   2.118  15.665 -0.1377 -0.2735  0.5187
 5348TIP3   OH237458   2.466   3.646  15.464 -0.1968  0.2784  0.1375
 5348TIP3    H137459   2.526   3.572  15.455  2.2894  2.0443  1.0176
 5348TIP3    H237460   2.440   3.646  15.556  1.2040  1.4287  0.5672
 5349TIP3   OH237461   3.891   6.596   0.984  0.5114  0.2287  0.1119
 5349TIP3    H137462   3.841   6.637   0.914 -1.1511 -0.7047  0.6962
 5349TIP3    H237463   3.902   6.505   0.956  3.1997  0.7164 -0.6705
 5350TIP3   OH237464   6.428   0.452  11.652  0.2852 -0.0728  0.2018
 5350TIP3    H137465   6.391   0.406  11.728  0.3767  1.3293  1.1270
 5350TIP3    H237466   6.484   0.519  11.690 -0.1369  1.0569 -1.0875
 5351TIP3   OH237467   2.418   2.386   2.773  0.2130 -0.1109  0.1514
 5351TIP3    H137468   2.505   2.402   2.809  0.3950 -0.1854 -0.2500
 5351TIP3    H237469   2.373   2.470   2.782  0.2179 -0.1580  0.6494
 5352TIP3   OH237470   0.696   6.419  16.496 -0.1738 -0.1057  0.6888
 5352TIP3    H137471   0.612   6.412  16.541 -1.0212 -0.4856 -0.8907
 5352TIP3    H237472   0.688   6.361  16.420  1.2310  0.4482  0.0787
 5353TIP3   OH237473   2.809   4.894  12.157  0.0763  0.6070  1.0270
 5353TIP3    H137474   2.844   4.837  12.089  0.4292  1.7788  0.2183
 5353TIP3    H237475   2.825   4.845  12.239  0.5991 -0.3332  0.3872
 5354TIP3   OH237476   1.033   5.209   5.737  0.0795 -0.3745  0.1406
 5354TIP3    H137477   0.938   5.208   5.746 -0.0123  1.8657 -0.0152
 5354TIP3    H237478   1.051   5.282   5.678  1.9112 -0.7124  0.2157
 5355TIP3   OH237479   5.747   4.382   3.712  0.1728  0.0822 -0.0496
 5355TIP3    H137480   5.804   4.310   3.739  1.5137  0.7499 -1.0045
 5355TIP3    H237481   5.778   4.405   3.625 -0.2459  1.8012  0.2286
 5356TIP3   OH237482   4.983   4.102  12.867  0.3789  0.1551  0.5138
 5356TIP3    H137483   4.951   4.145  12.946 -1.0567  0.3521 -0.1463
 5356TIP3    H237484   5.000   4.174  12.806 -0.4378 -0.0956 -0.0263
 5357TIP3   OH237485   5.778   3.990  14.269 -0.4900 -0.3842  0.5639
 5357TIP3    H137486   5.852   4.046  14.246 -1.1428 -0.2268 -1.4005
 5357TIP3    H237487   5.806   3.944  14.348  1.4878  0.0460  0.1719
 5358TIP3   OH237488   0.604   6.417   2.651 -0.3732 -0.1213 -0.2148
 5358TIP3    H137489   0.632   6.500   2.611 -0.7805 -0.1248 -0.5089
 5358TIP3    H237490   0.518   6.437   2.689  0.5416  0.2531  1.8190
 5359TIP3   OH237491   2.802   4.419  14.019  0.6241  0.4477 -0.1420
 5359TIP3    H137492   2.897   4.431  14.019  0.8526 -1.1345  0.9555
 5359TIP3    H237493   2.789   4.325  14.016 -0.9313  0.6507 -0.5959
 5360TIP3   OH237494   5.389   5.028  13.588  0.5563 -0.0694 -0.1045
 5360TIP3    H137495   5.463   5.083  13.561  0.1742  0.1118 -0.8295
 5360TIP3    H237496   5.319   5.051  13.526  1.3936 -3.8324 -2.7886
 5361TIP3   OH237497   5.264   5.754  14.316 -0.1454 -0.1378 -0.1138
 5361TIP3    H137498   5.227   5.683  14.264 -1.6083 -0.3288  1.1234
 5361TIP3    H237499   5.198   5.773  14.382  0.4193  2.0508 -0.0983
 5362TIP3   OH237500   0.299   6.794   1.299  0.1068 -0.3664 -0.5767
 5362TIP3    H137501   0.345   6.794   1.383  0.6784 -1.3348 -0.8708
 5362TIP3    H237502   0.207   6.806   1.321 -0.1047 -3.0924  0.4253
 5363TIP3   OH237503   3.874   5.370  15.902  0.0194  0.0768  0.0655
 5363TIP3    H137504   3.832   5.349  15.818 -1.6392  0.4717  0.7555
 5363TIP3    H237505   3.809   5.347  15.968  1.0411  0.4022  1.2261
 5364TIP3   OH237506   4.434   5.692  13.031 -0.0732  0.9101  0.2696
 5364TIP3    H137507   4.468   5.778  13.057 -0.7843  0.8327  1.5166
 5364TIP3    H237508   4.392   5.658  13.110 -0.3877 -0.2996 -0.4020
 5365TIP3   OH237509   3.988   3.161  13.852  0.1064 -0.1059 -0.4367
 5365TIP3    H137510   3.980   3.231  13.917  1.1036  0.3312 -0.7559
 5365TIP3    H237511   4.029   3.089  13.900  1.8912  0.5992 -0.7877
 5366TIP3   OH237512   4.010   2.903   1.917  0.0318  0.0581 -0.6511
 5366TIP3    H137513   3.914   2.902   1.923  0.0605  2.0034  1.5040
 5366TIP3    H237514   4.029   2.974   1.856  0.0925  0.2419 -0.4212
 5367TIP3   OH237515   5.875   5.176  16.458 -0.0052 -0.3107 -0.4273
 5367TIP3    H137516   5.791   5.211  16.486  0.0115 -0.1168 -0.6135
 5367TIP3    H237517   5.919   5.151  16.539  1.0108  2.4016 -0.0486
 5368TIP3   OH237518   6.521   0.612  15.136  0.5686 -0.5254  0.1162
 5368TIP3    H137519   6.465   0.557  15.081  0.7672  1.0513 -1.7754
 5368TIP3    H237520   6.608   0.605  15.096  0.3819  1.9722 -0.9542
 5369TIP3   OH237521   1.646   6.534   3.233 -0.2328  0.3903  0.3768
 5369TIP3    H137522   1.711   6.518   3.301 -0.3743 -2.3132 -0.0492
 5369TIP3    H237523   1.696   6.531   3.151 -0.4888  0.9850  0.1896
 5370TIP3   OH237524   3.386   3.086   3.044 -0.1444  0.2248  0.0639
 5370TIP3    H137525   3.400   3.006   2.993 -0.9840 -0.4726  0.8775
 5370TIP3    H237526   3.461   3.142   3.023 -1.1183  0.5775 -3.0323
 5371TIP3   OH237527   1.298   0.349  15.983  0.3267 -0.0360 -0.1985
 5371TIP3    H137528   1.248   0.268  15.970 -2.1792  1.2198  0.8707
 5371TIP3    H237529   1.312   0.353  16.078  0.3848  0.8029 -0.2402
 5372TIP3   OH237530   6.488   2.594   3.236  0.1801  0.3451 -0.0750
 5372TIP3    H137531   6.485   2.612   3.330  1.1550 -0.5762  0.1558
 5372TIP3    H237532   6.511   2.678   3.196 -0.6506  0.8408  0.4638
 5373TIP3   OH237533   6.583   6.691  12.724  0.0012 -0.4469  0.0627
 5373TIP3    H137534   6.587   6.600  12.752  0.1356 -0.6545 -0.6088
 5373TIP3    H237535   6.673   6.721  12.726 -0.0064 -0.4191 -0.0166
 5374TIP3   OH237536   0.395   0.577   4.822 -0.1495  0.1859 -0.0585
 5374TIP3    H137537   0.368   0.631   4.896 -0.3680  0.9076 -0.6445
 5374TIP3    H237538   0.480   0.541   4.847 -0.1391  0.5742  0.4651
 5375TIP3   OH237539   4.393   2.675  15.846 -0.2416 -0.2342 -0.1099
 5375TIP3    H137540   4.455   2.676  15.919 -0.6208  0.2846  0.2214
 5375TIP3    H237541   4.438   2.719  15.774 -0.1535 -0.0202  0.0741
 5376TIP3   OH237542   2.057   0.541  16.308  0.1092  0.7385 -0.5846
 5376TIP3    H137543   2.011   0.565  16.388  0.2537  1.1066 -0.6132
 5376TIP3    H237544   2.023   0.454  16.286 -1.4781  1.4933 -1.2631
 5377TIP3   OH237545   4.058   2.160   0.468  0.2018  0.1167  0.4493
 5377TIP3    H137546   3.973   2.194   0.438  0.7027  0.4933 -0.5605
 5377TIP3    H237547   4.110   2.238   0.486  0.0149 -0.0999  2.0607
 5378TIP3   OH237548   1.282   2.601  12.170  0.1025 -0.7276 -0.1097
 5378TIP3    H137549   1.353   2.643  12.122 -0.9917  2.9542  1.1086
 5378TIP3    H237550   1.202   2.636  12.130 -0.9268 -1.7644  0.9514
 5379TIP3   OH237551   4.225   3.121   3.192 -0.0302 -0.1248 -0.0495
 5379TIP3    H137552   4.142   3.087   3.225 -1.3826  0.0419 -2.9488
 5379TIP3    H237553   4.220   3.215   3.206 -1.0863  0.0828 -1.5501
 5380TIP3   OH237554   1.189   0.593   3.341  1.2797 -0.0088 -0.2418
 5380TIP3    H137555   1.210   0.685   3.356 -0.5802  0.4187 -0.0051
 5380TIP3    H237556   1.202   0.581   3.247 -0.6371  1.1456 -0.6993
 5381TIP3   OH237557   4.931   5.542   0.693 -0.1671 -0.2120  0.6618
 5381TIP3    H137558   5.006   5.577   0.645 -0.4019  1.4329  1.4211
 5381TIP3    H237559   4.967   5.468   0.743  0.6877 -0.1657  0.1357
 5382TIP3   OH237560   5.185   3.100   5.292  0.2340 -0.6323 -0.2072
 5382TIP3    H137561   5.273   3.066   5.304 -0.4129 -2.5253 -0.3521
 5382TIP3    H237562   5.130   3.021   5.289 -1.6982  0.5465  1.7371
 5383TIP3   OH237563   5.107   4.207   4.980 -0.0667 -0.1490  0.1378
 5383TIP3    H137564   5.075   4.162   4.901  0.6201  2.1397 -1.5658
 5383TIP3    H237565   5.040   4.273   4.998  0.5900  0.4476  0.4316
 5384TIP3   OH237566   4.514   0.804   4.252 -0.7875 -0.4926 -0.1366
 5384TIP3    H137567   4.592   0.794   4.306  0.8110  2.4599 -1.6398
 5384TIP3    H237568   4.497   0.898   4.252 -2.8489 -0.7861 -1.9240
 5385TIP3   OH237569   5.852   3.401   3.978 -0.3890  0.5339 -0.2243
 5385TIP3    H137570   5.773   3.452   3.961  0.6071  1.9051 -0.9426
 5385TIP3    H237571   5.888   3.438   4.058 -0.3687  0.0219  0.0095
 5386TIP3   OH237572   2.023   0.378   1.344  0.4486 -0.3097 -0.3719
 5386TIP3    H137573   2.069   0.397   1.262 -1.1300  2.8510 -0.6956
 5386TIP3    H237574   2.088   0.394   1.412  0.6404  1.4544 -0.9072
 5387TIP3   OH237575   2.353   2.430   6.318 -0.0934  0.6153 -0.5167
 5387TIP3    H137576   2.429   2.401   6.268  0.6113  0.5847  0.5362
 5387TIP3    H237577   2.353   2.374   6.396 -1.7368  0.0066 -0.9271
 5388TIP3   OH237578   0.887   3.675   4.139  0.1062 -0.3474  0.4481
 5388TIP3    H137579   0.959   3.635   4.091 -2.2719 -1.6208 -2.4229
 5388TIP3    H237580   0.892   3.768   4.116  0.5975 -0.4913 -0.0546
 5389TIP3   OH237581   2.995   5.389  11.746 -0.3335 -0.2455  0.6048
 5389TIP3    H137582   2.914   5.338  11.755 -0.3486 -0.0411  1.7803
 5389TIP3    H237583   3.004   5.434  11.830 -0.8810  2.5394 -0.7126
 5390TIP3   OH237584   5.707   5.287  15.370  0.7857  0.0423 -0.3928
 5390TIP3    H137585   5.792   5.277  15.413  1.3914 -0.5912 -1.6973
 5390TIP3    H237586   5.663   5.357  15.419  1.1658 -1.0880  1.6667
 5391TIP3   OH237587   1.647   4.582  14.194 -0.0808 -0.4016  0.4299
 5391TIP3    H137588   1.554   4.597  14.173 -0.0910 -1.1657 -0.1036
 5391TIP3    H237589   1.694   4.646  14.141 -0.3267  0.4298  1.1878
 5392TIP3   OH237590   1.309   3.258   5.298  0.4650  0.2634 -0.2895
 5392TIP3    H137591   1.274   3.184   5.349  0.9224 -0.2612 -0.7301
 5392TIP3    H237592   1.358   3.217   5.227  0.6045  0.9975 -0.6205
 5393TIP3   OH237593   1.426   4.580   0.664 -0.0495  0.1794 -0.2386
 5393TIP3    H137594   1.422   4.593   0.570 -1.6216 -1.7216 -0.4788
 5393TIP3    H237595   1.342   4.611   0.697  0.3428  0.4940  0.5082
 5394TIP3   OH237596   6.774   6.437  12.899 -0.3685  0.5760 -0.6456
 5394TIP3    H137597   6.832   6.432  12.976  0.8711 -0.2007 -1.5947
 5394TIP3    H237598   6.733   6.351  12.895 -1.6673  1.1287  0.0325
 5395TIP3   OH237599   6.289   3.504  16.907  0.0189  0.0577  0.6561
 5395TIP3    H137600   6.241   3.467  16.833  1.0772 -0.3877  0.1585
 5395TIP3    H237601   6.245   3.470  16.984  1.5673 -3.2664  0.2577
 5396TIP3   OH237602   3.651   2.496  12.447  0.1678  0.0394 -0.0294
 5396TIP3    H137603   3.588   2.559  12.482 -1.8438 -1.9495  0.1380
 5396TIP3    H237604   3.640   2.418  12.501  2.3823 -0.5885 -0.4002
 5397TIP3   OH237605   6.494   2.204  11.921  0.7660  0.0617  0.0912
 5397TIP3    H137606   6.443   2.238  11.994 -3.2085 -0.1380 -2.3268
 5397TIP3    H237607   6.511   2.281  11.866  0.6628 -0.3147 -0.4720
 5398TIP3   OH237608   4.803   3.314   3.656 -0.0528 -0.1053 -0.3297
 5398TIP3    H137609   4.835   3.383   3.599 -0.1796 -0.9780 -1.4988
 5398TIP3    H237610   4.881   3.280   3.700  0.0878  0.3650 -0.2160
 5399TIP3   OH237611   3.920   5.212   1.251 -0.5592 -0.1030  0.1404
 5399TIP3    H137612   3.914   5.293   1.201  0.9132 -0.7156 -1.1104
 5399TIP3    H237613   3.830   5.193   1.277 -1.0474  1.4469 -0.3124
 5400TIP3   OH237614   6.485   4.101   4.176  0.4845 -0.6734  0.4326
 5400TIP3    H137615   6.564   4.047   4.186  0.8663 -0.0246  0.9497
 5400TIP3    H237616   6.518   4.191   4.171  0.1675 -0.5906 -3.6621
 5401TIP3   OH237617   3.771   5.977   5.385 -0.5211 -0.4010  0.3452
 5401TIP3    H137618   3.814   6.031   5.318 -0.5848  0.2578  0.8161
 5401TIP3    H237619   3.834   5.909   5.406 -0.4623 -0.5556 -0.3108
 5402TIP3   OH237620   2.477   0.995   5.462 -0.1924  0.3557 -0.6636
 5402TIP3    H137621   2.460   0.912   5.508 -2.7757  0.2841 -1.6018
 5402TIP3    H237622   2.572   1.001   5.460  0.0623 -1.4176  1.4906
 5403TIP3   OH237623   0.772   0.538   2.162  0.0358  0.1679  0.1915
 5403TIP3    H137624   0.708   0.569   2.226  1.0030  1.4973  0.5578
 5403TIP3    H237625   0.736   0.564   2.077 -1.2478 -1.5956  0.1486
 5404TIP3   OH237626   4.292   3.517  13.783 -0.1603  0.4369 -0.1407
 5404TIP3    H137627   4.363   3.492  13.842 -2.2960  0.4778  2.6277
 5404TIP3    H237628   4.288   3.612  13.789 -1.6506  0.3198  1.3108
 5405TIP3   OH237629   1.929   1.350   2.675  0.0706 -0.0298 -0.0150
 5405TIP3    H137630   1.880   1.290   2.619 -1.1355  2.4848 -1.8798
 5405TIP3    H237631   1.879   1.354   2.756  0.1741 -1.4622  0.1523
 5406TIP3   OH237632   0.304   3.076   5.505  0.1337  0.5150 -0.0131
 5406TIP3    H137633   0.360   3.017   5.456 -0.6212  0.2159 -0.5344
 5406TIP3    H237634   0.286   3.149   5.445 -3.8229 -1.5692 -1.7415
 5407TIP3   OH237635   2.176   3.301   0.375  0.7190  0.1255  0.0533
 5407TIP3    H137636   2.138   3.383   0.405  2.4553  0.9032  0.1933
 5407TIP3    H237637   2.131   3.234   0.427 -1.6907  0.8162 -1.0040
 5408TIP3   OH237638   0.615   3.743  16.299 -0.4098  0.4735  0.4337
 5408TIP3    H137639   0.668   3.665  16.280 -0.0689  0.8846 -0.3647
 5408TIP3    H237640   0.529   3.723  16.263 -0.4916  0.2416  0.7502
 5409TIP3   OH237641   3.363   1.784  15.399 -0.0149 -0.0984  0.0895
 5409TIP3    H137642   3.407   1.732  15.467  0.0466 -0.7830 -0.4675
 5409TIP3    H237643   3.312   1.721  15.349  0.4935  0.2882 -0.9428
 5410TIP3   OH237644   1.077   4.430   3.201 -0.0839  0.2330  0.5178
 5410TIP3    H137645   1.108   4.446   3.290 -0.0895  0.2101  0.5238
 5410TIP3    H237646   1.079   4.516   3.159  2.0909 -0.0834 -0.1732
 5411TIP3   OH237647   5.440   4.662   4.419 -0.0464 -0.7784 -0.3611
 5411TIP3    H137648   5.533   4.642   4.433  0.0937  0.1401  0.0949
 5411TIP3    H237649   5.406   4.680   4.506 -0.6203 -0.9335 -0.5488
 5412TIP3   OH237650   4.793   2.796   5.094  0.4787  0.0743  0.3941
 5412TIP3    H137651   4.753   2.847   5.164  1.9977 -0.1086  1.4448
 5412TIP3    H237652   4.828   2.861   5.034  0.0946  0.2390  0.3449
 5413TIP3   OH237653   3.334   2.971   2.379 -0.1535  0.9087  0.2545
 5413TIP3    H137654   3.261   2.935   2.430  0.9071 -0.8107  0.6317
 5413TIP3    H237655   3.400   2.995   2.443  1.4473 -1.8442 -0.2092
 5414TIP3   OH237656   2.016   6.764  13.273 -0.6109  0.6700 -1.1094
 5414TIP3    H137657   2.095   6.750  13.325  0.8306 -0.1784 -3.3894
 5414TIP3    H237658   1.994   6.856  13.286  0.5931  0.8535 -0.2205
 5415TIP3   OH237659   1.635   3.455   0.580  0.2381 -0.6876  0.2550
 5415TIP3    H137660   1.654   3.460   0.674  0.9738  0.5030  0.0715
 5415TIP3    H237661   1.708   3.405   0.543 -0.3637 -1.6817  0.3817
 5416TIP3   OH237662   2.941   1.711  11.665  0.4514  0.0678 -0.0290
 5416TIP3    H137663   2.869   1.765  11.631 -0.9157 -1.4245  0.3444
 5416TIP3    H237664   2.937   1.724  11.760  1.8188  1.2913 -0.1049
 5417TIP3   OH237665   3.249   5.522  14.940  0.8239  0.2931 -0.0677
 5417TIP3    H137666   3.343   5.540  14.948  1.1263 -0.6914 -1.1202
 5417TIP3    H237667   3.244   5.439  14.893 -0.5903  0.8239 -0.9423
 5418TIP3   OH237668   1.462   5.128  14.991 -0.4581  0.0033 -0.4770
 5418TIP3    H137669   1.440   5.169  15.075  0.6645 -1.5596  0.6363
 5418TIP3    H237670   1.412   5.046  14.991 -0.7746  0.1776 -1.5507
 5419TIP3   OH237671   6.385   2.533   2.298  0.1892  0.0961 -0.1762
 5419TIP3    H137672   6.321   2.588   2.342 -0.6108 -0.4213 -0.6742
 5419TIP3    H237673   6.392   2.570   2.210  2.5554  1.7769  0.6010
 5420TIP3   OH237674   0.596   1.215   2.046 -0.1263  0.1154 -0.3572
 5420TIP3    H137675   0.675   1.248   2.003 -0.3693 -1.2711 -1.9502
 5420TIP3    H237676   0.629   1.150   2.109  0.0324 -0.3453 -0.9048
 5421TIP3   OH237677   0.923   5.024   4.945 -0.2228 -0.6859  0.8686
 5421TIP3    H137678   0.858   5.022   4.875 -0.1124 -1.5923  0.7802
 5421TIP3    H237679   0.976   4.946   4.930  0.7112 -0.1021  1.1100
 5422TIP3   OH237680   1.857   6.016  13.755  0.1470  0.2054 -0.6155
 5422TIP3    H137681   1.911   6.068  13.815  1.9287 -1.4403 -0.7085
 5422TIP3    H237682   1.845   6.073  13.679  4.0850 -0.2322 -1.7744
 5423TIP3   OH237683   1.455   4.302  14.913  0.4016  0.0543  0.0954
 5423TIP3    H137684   1.491   4.252  14.987  1.5396 -0.3559 -0.6895
 5423TIP3    H237685   1.527   4.359  14.886 -0.5983  1.5178  0.4143
 5424TIP3   OH237686   3.615   6.075  14.914  0.1660  0.2996 -0.3170
 5424TIP3    H137687   3.571   5.997  14.879 -0.3175  0.6954 -0.6065
 5424TIP3    H237688   3.633   6.128  14.836 -0.1442  0.7957 -0.0554
 5425TIP3   OH237689   2.088   0.247   3.483  0.5698 -0.3386  0.7945
 5425TIP3    H137690   2.157   0.182   3.473  0.8215  0.1742 -1.1374
 5425TIP3    H237691   2.089   0.269   3.576  2.8771 -0.4983  0.8587
 5426TIP3   OH237692   3.366   4.770   3.764  0.5274  0.0753 -0.0265
 5426TIP3    H137693   3.350   4.683   3.801  1.2594 -0.0087  0.0966
 5426TIP3    H237694   3.307   4.775   3.688 -0.2903 -0.1159  0.5731
 5427TIP3   OH237695   5.085   2.086  13.953  0.2438  0.6301  0.1434
 5427TIP3    H137696   5.118   2.157  13.898  0.3544  0.7834  0.4117
 5427TIP3    H237697   5.119   2.104  14.040  0.3127  0.2246  0.2055
 5428TIP3   OH237698   5.221   0.750   3.383 -0.1981  0.0641  0.0575
 5428TIP3    H137699   5.232   0.836   3.342  0.4907  0.1295  0.3661
 5428TIP3    H237700   5.222   0.688   3.310  1.6665  0.1226 -0.0024
 5429TIP3   OH237701   5.803   2.495   5.345  0.0090 -0.0165 -0.0891
 5429TIP3    H137702   5.805   2.456   5.432  0.1060 -0.9775 -0.5029
 5429TIP3    H237703   5.714   2.479   5.314  0.5404 -1.4870 -0.9384
 5430TIP3   OH237704   4.620   3.778  16.679 -0.3148 -0.0038  0.4735
 5430TIP3    H137705   4.692   3.781  16.743  0.8163  0.3222 -0.7518
 5430TIP3    H237706   4.590   3.868  16.672  0.3260  0.1709 -0.2414
 5431TIP3   OH237707   0.200   0.078  16.367 -1.0230 -0.4852 -0.1282
 5431TIP3    H137708   0.242   0.099  16.451 -2.4787  0.8799  0.2962
 5431TIP3    H237709   0.169   0.162  16.334 -2.5256 -1.3111 -0.9051
 5432TIP3   OH237710   5.973   4.808   4.343 -0.3423 -1.0549  0.1339
 5432TIP3    H137711   6.055   4.842   4.306 -0.6770 -0.6588 -0.2448
 5432TIP3    H237712   6.001   4.737   4.401  0.4252  0.2075  1.3925
 5433TIP3   OH237713   4.796   2.690   0.620  0.0664  0.0753 -0.3495
 5433TIP3    H137714   4.875   2.703   0.567 -1.0868 -0.7701 -2.4036
 5433TIP3    H237715   4.800   2.598   0.646  0.3429  0.3457  0.5957
 5434TIP3   OH237716   4.202   3.856  16.916 -0.3300  0.1537  0.3946
 5434TIP3    H137717   4.255   3.805  16.855  1.6928  3.1246 -0.5260
 5434TIP3    H237718   4.202   3.804  16.997  0.6562 -1.7808 -0.7703
 5435TIP3   OH237719   5.198   5.498   1.822 -0.2598 -0.3747  0.0836
 5435TIP3    H137720   5.175   5.557   1.750 -2.8506 -0.8674  0.4012
 5435TIP3    H237721   5.178   5.411   1.788 -2.6801 -0.5294  1.7261
 5436TIP3   OH237722   5.487   0.114  12.880 -0.1610 -0.4124  0.0187
 5436TIP3    H137723   5.524   0.107  12.968  1.9327  1.0982 -0.6834
 5436TIP3    H237724   5.404   0.161  12.892  0.4643  0.4423  1.0996
 5437TIP3   OH237725   5.173   4.320   5.468  0.0191  0.3569  0.2020
 5437TIP3    H137726   5.094   4.269   5.483 -0.2322  0.1682 -1.5705
 5437TIP3    H237727   5.241   4.276   5.519 -0.2445 -1.6273 -1.0567
 5438TIP3   OH237728   2.494   2.405  11.772 -0.0858 -0.0987 -0.4562
 5438TIP3    H137729   2.433   2.334  11.753  1.5927 -1.4225 -1.1394
 5438TIP3    H237730   2.577   2.377  11.734  1.1010  1.4070  0.8453
 5439TIP3   OH237731   0.439   6.704  12.210 -0.2739 -0.6954 -0.3602
 5439TIP3    H137732   0.451   6.619  12.167 -1.1789 -0.9782 -0.0687
 5439TIP3    H237733   0.407   6.682  12.297  1.0200 -0.1009  0.2855
 5440TIP3   OH237734   1.770   3.915  15.010 -0.0145  0.0581  0.8435
 5440TIP3    H137735   1.702   3.920  14.944  0.7503 -1.2067 -0.0740
 5440TIP3    H237736   1.789   4.007  15.032  0.1210  0.5362 -1.1255
 5441TIP3   OH237737   1.053   6.065  11.428 -0.6376  0.1040 -0.6109
 5441TIP3    H137738   1.033   6.157  11.410 -0.7781  0.0135 -0.9308
 5441TIP3    H237739   1.148   6.063  11.437 -0.7755  0.6251  1.4194
 5442TIP3   OH237740   0.483   4.457   5.393 -0.2846 -0.0801 -0.3132
 5442TIP3    H137741   0.453   4.507   5.316 -1.9526 -0.8788 -0.2413
 5442TIP3    H237742   0.522   4.378   5.357 -1.1737 -0.5096 -0.3620
 5443TIP3   OH237743   6.332   0.458  14.959 -0.0121 -0.7003  0.5582
 5443TIP3    H137744   6.370   0.372  14.944 -1.4998 -1.0454 -1.9151
 5443TIP3    H237745   6.307   0.488  14.871 -0.4535  1.8108  1.4647
 5444TIP3   OH237746   1.271   2.564   3.037 -0.2117 -0.1494  0.4536
 5444TIP3    H137747   1.263   2.658   3.023 -1.6592  0.3441  3.6478
 5444TIP3    H237748   1.269   2.526   2.949  1.0312  2.7926 -0.9577
 5445TIP3   OH237749   1.902   5.004   4.883  0.1613  0.2598  0.5290
 5445TIP3    H137750   1.828   5.032   4.937  0.1493  1.9960 -0.3184
 5445TIP3    H237751   1.891   5.051   4.801  1.8631  0.0671  0.1471
 5446TIP3   OH237752   3.615   6.316   5.810 -0.3655 -0.2699 -0.3484
 5446TIP3    H137753   3.659   6.256   5.870 -0.1722  0.3405  0.1425
 5446TIP3    H237754   3.670   6.394   5.810 -1.9248  0.9176  1.0764
 5447TIP3   OH237755   0.015   6.321   0.750 -0.1403  0.2870  0.0843
 5447TIP3    H137756  -0.043   6.294   0.821 -0.8880  2.2257  0.2691
 5447TIP3    H237757   0.049   6.239   0.714 -1.2249 -0.8024  1.4400
 5448TIP3   OH237758   2.491   6.037   1.642 -0.1289  0.4816  0.4995
 5448TIP3    H137759   2.572   6.085   1.662 -0.0391  0.0423  1.2535
 5448TIP3    H237760   2.421   6.100   1.659  0.0055  0.4731  1.1419
 5449TIP3   OH237761   0.379   2.745  16.425 -0.1587 -0.0215  0.5509
 5449TIP3    H137762   0.310   2.770  16.365  1.6512 -1.0730 -2.1611
 5449TIP3    H237763   0.377   2.650  16.427 -0.6537 -0.0144  2.8435
 5450TIP3   OH237764   6.173   1.551   2.891 -0.0165 -0.3756  0.1732
 5450TIP3    H137765   6.164   1.493   2.967 -0.0927  0.0877  0.5264
 5450TIP3    H237766   6.219   1.498   2.826 -1.8096 -1.5162 -0.2464
 5451TIP3   OH237767   2.879   3.052   1.272  0.0157  0.6444  0.1195
 5451TIP3    H137768   2.806   3.084   1.219 -0.9893 -0.7940  0.5622
 5451TIP3    H237769   2.915   2.979   1.221  0.1191  0.3314  0.6323
 5452TIP3   OH237770   0.336   1.954  11.665  0.0864 -0.0701 -0.0215
 5452TIP3    H137771   0.292   1.958  11.750  1.0360 -0.3282  0.4878
 5452TIP3    H237772   0.316   2.038  11.624  1.6206  1.0966  1.4685
 5453TIP3   OH237773   2.888   2.541  16.225 -0.6978 -0.2145  0.0801
 5453TIP3    H137774   2.864   2.451  16.203 -0.7082 -0.5015  1.2251
 5453TIP3    H237775   2.980   2.548  16.199 -1.0167 -0.1889 -1.0781
 5454TIP3   OH237776   0.476   6.023   1.083  0.0851  0.0851  0.4167
 5454TIP3    H137777   0.482   5.972   1.164  1.4974 -0.9849 -0.3128
 5454TIP3    H237778   0.392   5.997   1.044  0.1670 -0.6575  0.7207
 5455TIP3   OH237779   1.855   1.440  16.359  0.6481 -0.2672  0.3036
 5455TIP3    H137780   1.833   1.488  16.439  2.0872 -1.0994  1.2434
 5455TIP3    H237781   1.771   1.410  16.325 -0.1789  1.8657  0.3349
 5456TIP3   OH237782   5.876   5.814   0.968  0.3816 -0.3149  0.5245
 5456TIP3    H137783   5.936   5.751   0.928  0.3354 -0.4201  0.6227
 5456TIP3    H237784   5.916   5.899   0.949  0.8743 -0.4082  1.0945
 5457TIP3   OH237785   1.700   3.734  12.779 -0.0179  0.4440 -0.0249
 5457TIP3    H137786   1.716   3.641  12.766  0.6221  0.3806  1.0383
 5457TIP3    H237787   1.666   3.740  12.868 -3.2404  0.9193 -1.1771
 5458TIP3   OH237788   1.774   3.926  13.701  0.6037 -0.3488 -0.1914
 5458TIP3    H137789   1.802   3.882  13.782  2.5433  1.6307  0.2991
 5458TIP3    H237790   1.696   3.975  13.726  0.3714 -0.8515  0.0952
 5459TIP3   OH237791   2.720   0.203   1.656  0.0146  0.6833 -0.4264
 5459TIP3    H137792   2.726   0.171   1.746 -1.4152 -0.2772 -0.6416
 5459TIP3    H237793   2.789   0.269   1.649  1.7978 -0.9693  0.6269
 5460TIP3   OH237794   5.942   6.444   1.973 -0.5520  0.3065 -0.6411
 5460TIP3    H137795   5.942   6.348   1.964  2.2961  0.2666 -1.0305
 5460TIP3    H237796   5.920   6.476   1.885 -1.4591  0.0323 -0.5230
 5461TIP3   OH237797   0.143   2.636   1.611 -0.7586 -0.6918  0.1569
 5461TIP3    H137798   0.220   2.585   1.634 -0.5382 -0.4953 -0.1430
 5461TIP3    H237799   0.069   2.577   1.629 -0.5073 -1.1136 -0.1741
 5462TIP3   OH237800   2.739   5.461  15.220 -0.1109  0.0665 -0.0037
 5462TIP3    H137801   2.803   5.509  15.272 -0.9351 -0.3957  1.5230
 5462TIP3    H237802   2.671   5.436  15.283 -0.7257 -1.3116 -1.1461
 5463TIP3   OH237803   2.094   0.137   1.690 -0.3690 -0.1595  0.1003
 5463TIP3    H137804   2.103   0.048   1.724  3.3234 -0.0196 -0.0595
 5463TIP3    H237805   2.052   0.125   1.604 -0.3117 -1.7117  0.2542
 5464TIP3   OH237806   6.320   6.392   3.453  0.0270 -0.4251  0.4674
 5464TIP3    H137807   6.297   6.472   3.500  1.4009 -0.6006  1.4802
 5464TIP3    H237808   6.288   6.407   3.363 -0.2509  1.0001  0.7803
 5465TIP3   OH237809   2.179   0.162   1.324 -0.6453  0.4313  0.1983
 5465TIP3    H137810   2.130   0.245   1.331 -1.0734  0.0881  1.5922
 5465TIP3    H237811   2.129   0.111   1.261  0.1972  1.5978 -1.4893
 5466TIP3   OH237812   3.196   1.290  14.443 -0.2505  0.3259 -0.0575
 5466TIP3    H137813   3.150   1.230  14.384 -1.4803  0.8679  0.3152
 5466TIP3    H237814   3.217   1.365  14.388 -1.8387  1.0479  0.2588
 5467TIP3   OH237815   5.642   2.485  11.472 -0.3977 -0.2345 -0.3631
 5467TIP3    H137816   5.717   2.525  11.515 -0.0940 -0.8789 -0.2780
 5467TIP3    H237817   5.588   2.452  11.544 -0.3677 -0.4651 -0.4442
 5468TIP3   OH237818   4.203   3.701  11.403  0.3804  0.0112 -0.2307
 5468TIP3    H137819   4.251   3.744  11.473  0.6514  0.2010 -0.5301
 5468TIP3    H237820   4.113   3.695  11.435  0.5974 -0.3199  0.3198
 5469TIP3   OH237821   4.955   6.275   0.720 -0.2069  0.4238 -0.1286
 5469TIP3    H137822   4.947   6.351   0.664  1.4434  0.9341  0.2742
 5469TIP3    H237823   5.010   6.214   0.671  0.4877  0.5001  0.5339
 5470TIP3   OH237824   1.996   2.371  12.073  0.0401  0.1985  0.4490
 5470TIP3    H137825   1.921   2.312  12.060 -1.7147  2.5454 -0.8798
 5470TIP3    H237826   2.056   2.350  12.002 -1.1404  0.7538 -0.7662
 5471TIP3   OH237827   2.254   1.465   1.016  0.2616 -0.1233 -0.3878
 5471TIP3    H137828   2.233   1.393   0.957 -1.6539 -0.2243  0.3474
 5471TIP3    H237829   2.207   1.445   1.097  1.4131  0.8964  0.5802
 5472TIP3   OH237830   6.778   5.426  16.765  0.2098 -0.1404  0.1654
 5472TIP3    H137831   6.848   5.365  16.787 -0.3163 -0.2994  1.5046
 5472TIP3    H237832   6.700   5.372  16.756 -0.0245  0.1948  0.1367
 5473TIP3   OH237833   5.897   2.698  14.215 -0.1762  0.0337  0.1608
 5473TIP3    H137834   5.824   2.636  14.217 -0.5222  0.4503  1.8688
 5473TIP3    H237835   5.888   2.742  14.131 -0.1545 -1.9201 -0.9259
 5474TIP3   OH237836   4.155   1.526   4.779  0.2094 -0.5977  0.2956
 5474TIP3    H137837   4.117   1.439   4.789  1.5487 -1.3252 -0.4895
 5474TIP3    H237838   4.143   1.568   4.864 -0.6582 -1.4606  0.6197
 5475TIP3   OH237839   3.739   4.443   2.462  0.7166 -0.0199 -0.4472
 5475TIP3    H137840   3.703   4.436   2.373  1.1377 -0.5245 -0.5833
 5475TIP3    H237841   3.712   4.530   2.492 -1.0522 -0.5627 -0.3444
 5476TIP3   OH237842   0.969   1.966  15.278 -0.0560  0.3686  0.2711
 5476TIP3    H137843   0.940   1.941  15.365  0.1053  1.1498  0.5546
 5476TIP3    H237844   0.889   1.993  15.232  0.0360  1.3128  0.6435
 5477TIP3   OH237845   6.306   5.570   1.130 -0.4877 -0.2225  1.1005
 5477TIP3    H137846   6.368   5.565   1.204  0.2922 -1.4940  0.4115
 5477TIP3    H237847   6.361   5.588   1.054 -1.2737  0.9651  0.7894
 5478TIP3   OH237848   3.546   1.574   1.405  0.0327 -0.5862  0.3119
 5478TIP3    H137849   3.568   1.504   1.344  1.1137  1.0511 -1.2751
 5478TIP3    H237850   3.474   1.621   1.362  1.4710  1.1939 -0.2691
 5479TIP3   OH237851   1.588   0.277   1.478  0.3379  0.2841  0.0803
 5479TIP3    H137852   1.577   0.226   1.558  1.7066 -0.5253 -0.2087
 5479TIP3    H237853   1.631   0.357   1.506 -0.6779  0.7501  0.3607
 5480TIP3   OH237854   2.050   5.757  13.062 -0.0124  0.2432  0.0856
 5480TIP3    H137855   1.960   5.725  13.059  0.2110 -0.3172 -0.9700
 5480TIP3    H237856   2.092   5.706  13.131 -0.2938 -0.0504  0.0386
 5481TIP3   OH237857   5.728   4.446   0.874 -0.6161 -0.5910 -0.0222
 5481TIP3    H137858   5.818   4.413   0.880  0.0050  1.0299  0.1545
 5481TIP3    H237859   5.674   4.367   0.875  0.7318 -1.5686  1.0295
 5482TIP3   OH237860   5.980   3.858  14.457  0.0297  0.4635 -0.4127
 5482TIP3    H137861   6.068   3.844  14.420  0.5535  0.5934  0.7374
 5482TIP3    H237862   5.996   3.892  14.545 -1.1521 -0.6221  0.2673
 5483TIP3   OH237863   6.701   3.630   0.894 -0.4779  0.3378 -0.3664
 5483TIP3    H137864   6.768   3.586   0.841 -1.4973 -0.2896 -1.1819
 5483TIP3    H237865   6.733   3.719   0.905  1.2739 -0.3732  0.6577
 5484TIP3   OH237866   5.984   0.857   2.994  0.3320  0.4222  0.5413
 5484TIP3    H137867   5.969   0.872   3.087  0.9577 -0.3018  0.7672
 5484TIP3    H237868   5.994   0.945   2.957 -0.7225  0.7543  1.0065
 5485TIP3   OH237869   0.233   0.727  11.674 -0.0801  0.3739 -0.1207
 5485TIP3    H137870   0.272   0.813  11.661  0.6962  0.0056 -0.2774
 5485TIP3    H237871   0.182   0.735  11.755 -1.2652  1.4026 -0.9246
 5486TIP3   OH237872   4.476   0.909  11.341 -0.0100 -0.1760 -0.0342
 5486TIP3    H137873   4.514   0.854  11.410  0.7734  0.4953  0.0877
 5486TIP3    H237874   4.490   0.999  11.372  0.5500  0.1400 -1.1571
 5487TIP3   OH237875   0.431   2.380   2.088  0.1211 -0.6036 -0.0883
 5487TIP3    H137876   0.396   2.453   2.036  0.8259  1.0923  1.7039
 5487TIP3    H237877   0.377   2.378   2.166  1.3703 -0.6617  0.8035
 5488TIP3   OH237878   0.882   0.567   3.245  0.4402  0.5770  0.1861
 5488TIP3    H137879   0.843   0.653   3.258 -2.5458 -0.5756 -0.4003
 5488TIP3    H237880   0.892   0.532   3.334  0.0156  0.8676  0.3516
 5489TIP3   OH237881   3.377   2.343  14.293 -0.0590 -0.0638 -0.8961
 5489TIP3    H137882   3.353   2.417  14.238 -0.6352 -0.1153 -0.7178
 5489TIP3    H237883   3.444   2.378  14.352 -0.4052  0.3421 -0.7414
 5490TIP3   OH237884   6.270   0.748   4.995  0.3253  0.8876  1.1261
 5490TIP3    H137885   6.291   0.695   4.918 -0.6756  2.2550 -0.1612
 5490TIP3    H237886   6.274   0.838   4.963 -0.3037  1.4873  2.6518
 5491TIP3   OH237887   4.888   2.409  11.545  0.8433  0.0900 -0.2508
 5491TIP3    H137888   4.859   2.333  11.493 -2.8652  0.8779  0.3913
 5491TIP3    H237889   4.899   2.374  11.633  0.4159  0.0497 -0.2117
 5492TIP3   OH237890   6.146   0.827  13.110 -0.0915  0.1330 -0.1086
 5492TIP3    H137891   6.063   0.871  13.131 -0.0199  0.3545 -0.2878
 5492TIP3    H237892   6.201   0.896  13.072  0.0106 -0.1165 -0.4165
 5493TIP3   OH237893   5.618   2.489   4.642  0.0382  0.0656  0.5270
 5493TIP3    H137894   5.625   2.483   4.737 -1.4752 -1.8299  0.5775
 5493TIP3    H237895   5.652   2.576   4.621  1.0778  0.2485  2.7058
 5494TIP3   OH237896   4.997   0.380  12.387 -0.3702 -0.3734  0.1849
 5494TIP3    H137897   5.036   0.367  12.301  1.0194 -0.1710  0.7523
 5494TIP3    H237898   5.032   0.465  12.417  1.5513 -1.7318  2.1274
 5495TIP3   OH237899   1.270   2.200  12.969 -0.4518 -0.2372  0.1261
 5495TIP3    H137900   1.291   2.127  13.027 -0.9638  0.5748  1.3759
 5495TIP3    H237901   1.352   2.218  12.923 -0.2784 -1.4746 -0.0961
 5496TIP3   OH237902   2.173   6.462  10.883 -0.6375 -0.3038  0.3264
 5496TIP3    H137903   2.102   6.417  10.837  0.1573  0.2732 -1.5857
 5496TIP3    H237904   2.248   6.455  10.824  0.5331  0.2672  1.6853
 5497TIP3   OH237905   6.533   1.633  12.408 -0.2109  0.4431  0.2734
 5497TIP3    H137906   6.443   1.643  12.438  0.3115  0.8197  1.7679
 5497TIP3    H237907   6.586   1.676  12.474  1.0305  1.0895 -1.0770
 5498TIP3   OH237908   3.899   0.940  13.226  0.2525  0.2598 -0.1842
 5498TIP3    H137909   3.891   0.856  13.273  1.1933  0.8484  1.0968
 5498TIP3    H237910   3.818   0.946  13.175 -0.9175 -0.3645  1.4917
 5499TIP3   OH237911   0.208   1.183   6.288 -0.3374 -0.2922 -0.2534
 5499TIP3    H137912   0.255   1.264   6.307  0.4363 -0.2568 -2.0336
 5499TIP3    H237913   0.278   1.120   6.270 -0.9512 -0.8974 -0.5252
 5500TIP3   OH237914   5.171   2.305   2.218 -0.1845  0.1093  0.0006
 5500TIP3    H137915   5.198   2.395   2.199  1.5695 -0.5135 -0.6050
 5500TIP3    H237916   5.120   2.279   2.142 -1.7796  0.9708  0.7232
 5501TIP3   OH237917   1.333   2.908  12.362  0.2547  0.4340 -0.0224
 5501TIP3    H137918   1.283   2.836  12.402 -0.9299  1.5173  0.5414
 5501TIP3    H237919   1.312   2.902  12.269  0.1883  0.0223  0.0150
 5502TIP3   OH237920   0.733   5.052   4.751  0.6729 -0.2396  0.1246
 5502TIP3    H137921   0.643   5.070   4.778  0.7417 -1.1552  1.0135
 5502TIP3    H237922   0.748   5.111   4.677 -1.1964 -1.2234 -1.1195
 5503TIP3   OH237923   0.607   0.346   4.613  0.3257 -0.0647 -0.4299
 5503TIP3    H137924   0.521   0.303   4.612 -0.1467  0.8081 -1.8596
 5503TIP3    H237925   0.643   0.326   4.699 -1.3644 -0.3829  0.2568
 5504TIP3   OH237926   6.268   1.629   1.774  0.3545  0.2603 -0.0230
 5504TIP3    H137927   6.207   1.562   1.744 -0.2965  0.9355 -0.2454
 5504TIP3    H237928   6.296   1.674   1.694  2.3574 -1.0101 -0.1044
 5505TIP3   OH237929   0.295   2.375   0.657  0.0782  0.0587  0.3745
 5505TIP3    H137930   0.267   2.467   0.651 -1.3375 -0.3477  0.2693
 5505TIP3    H237931   0.388   2.377   0.637  0.2472  1.5713  1.1449
 5506TIP3   OH237932   6.177   0.336  14.702  0.5491  0.1082 -0.8957
 5506TIP3    H137933   6.171   0.394  14.778 -1.5364 -0.4483 -0.5588
 5506TIP3    H237934   6.249   0.371  14.650  3.8274 -0.9069  2.4514
 5507TIP3   OH237935   4.851   1.635   3.098  0.1644  0.2807  0.3309
 5507TIP3    H137936   4.863   1.589   3.015  0.8676 -1.0370  1.1289
 5507TIP3    H237937   4.864   1.727   3.076  1.3421 -0.1315 -0.8483
 5508TIP3   OH237938   4.464   1.970   4.338 -0.4194  0.2862 -0.4523
 5508TIP3    H137939   4.448   2.040   4.274  0.3018  0.5881 -0.3215
 5508TIP3    H237940   4.540   1.923   4.304 -0.6305 -0.1572 -0.3132
 5509TIP3   OH237941   4.681   4.853   4.051  0.2022 -0.3310 -0.9758
 5509TIP3    H137942   4.716   4.809   3.973  0.3293  0.2924 -1.2756
 5509TIP3    H237943   4.754   4.905   4.084 -0.6821  1.8318 -2.2167
 5510TIP3   OH237944   5.778   1.241  15.399  0.2833 -0.5257  0.2444
 5510TIP3    H137945   5.868   1.250  15.369  0.6444 -1.6329  0.9408
 5510TIP3    H237946   5.755   1.328  15.431  0.6678  0.0807 -1.0620
 5511TIP3   OH237947   0.833   4.497  12.773 -0.0808 -0.1920 -0.4023
 5511TIP3    H137948   0.769   4.479  12.842  0.9823 -0.8036  0.4541
 5511TIP3    H237949   0.835   4.592  12.767 -0.6833 -0.1501 -0.0773
 5512TIP3   OH237950   1.863   6.734   2.875  0.0454  0.3003 -0.7416
 5512TIP3    H137951   1.832   6.645   2.891  0.1303  0.7064  2.1293
 5512TIP3    H237952   1.870   6.740   2.780  0.2312 -2.8087 -1.0129
 5513TIP3   OH237953   2.036   2.868   1.817 -0.5474  0.2357  0.2194
 5513TIP3    H137954   2.040   2.773   1.824 -2.1495 -0.0365 -1.8600
 5513TIP3    H237955   2.127   2.895   1.804  0.0574 -0.8649  1.8381
 5514TIP3   OH237956   0.702   1.203   4.363  0.2984 -0.1520 -0.3935
 5514TIP3    H137957   0.790   1.176   4.389  0.6794  0.5047 -0.9730
 5514TIP3    H237958   0.688   1.287   4.408  0.3529  0.2215 -1.0664
 5515TIP3   OH237959   3.268   4.245   2.882  1.1433  0.1917  0.2085
 5515TIP3    H137960   3.339   4.308   2.884  0.1903  1.3765 -1.1334
 5515TIP3    H237961   3.236   4.247   2.791  0.0518 -1.0385  0.5211
 5516TIP3   OH237962   1.683   3.170   5.339 -0.0034  0.3756 -0.2208
 5516TIP3    H137963   1.629   3.214   5.273  0.4717 -1.3636 -1.8654
 5516TIP3    H237964   1.625   3.103   5.376 -0.1942  1.1922  1.0157
 5517TIP3   OH237965   2.703   6.485  13.552  0.2983 -1.0439  0.6266
 5517TIP3    H137966   2.656   6.426  13.612 -2.6753  0.2537 -0.2055
 5517TIP3    H237967   2.726   6.560  13.607 -2.3313  0.0977  0.3559
 5518TIP3   OH237968   5.036   3.677   4.939 -0.5702  0.0313 -0.1699
 5518TIP3    H137969   5.087   3.683   4.859 -0.4887  0.5666 -0.0859
 5518TIP3    H237970   5.064   3.753   4.991 -0.5709 -0.3409  0.3938
 5519TIP3   OH237971   3.539   1.457   4.891 -0.3978 -0.2529 -0.1506
 5519TIP3    H137972   3.519   1.366   4.910  0.8276 -0.7081 -0.8645
 5519TIP3    H237973   3.484   1.479   4.815 -0.2979 -0.5734 -0.3153
 5520TIP3   OH237974   1.118   5.496  12.946  0.4591  0.1424 -0.2368
 5520TIP3    H137975   1.190   5.445  12.910  0.2824  0.5680 -1.2218
 5520TIP3    H237976   1.093   5.449  13.026 -1.1268 -2.6070 -2.1605
 5521TIP3   OH237977   2.478   3.830   5.240 -0.0015 -0.5583 -0.2400
 5521TIP3    H137978   2.431   3.764   5.190  0.2846 -0.2682 -0.9120
 5521TIP3    H237979   2.469   3.911   5.189 -0.2074 -0.1111  0.4838
 5522TIP3   OH237980   2.571   3.101   2.159 -0.6679 -0.3298 -0.1162
 5522TIP3    H137981   2.571   3.106   2.255 -0.9895 -1.4158 -0.0454
 5522TIP3    H237982   2.640   3.038   2.138 -2.1181 -1.8833 -0.4554
 5523TIP3   OH237983   2.049   6.090  16.648  0.2656 -0.2872  0.0299
 5523TIP3    H137984   1.955   6.105  16.636  0.2784 -0.6894 -0.6090
 5523TIP3    H237985   2.089   6.123  16.567  0.6650 -0.1979  0.2610
 5524TIP3   OH237986   1.659   1.035   3.250  0.8267  0.1366 -0.3264
 5524TIP3    H137987   1.711   0.959   3.277 -0.3518 -0.0739  1.5747
 5524TIP3    H237988   1.604   1.002   3.179 -0.8221 -1.3605  1.4972
 5525TIP3   OH237989   4.375   4.668  14.846 -0.3580 -0.1837  0.2706
 5525TIP3    H137990   4.301   4.728  14.845  0.2536  0.6764 -2.8412
 5525TIP3    H237991   4.452   4.725  14.843  0.2620 -1.0274 -1.3409
 5526TIP3   OH237992   4.412   5.151  14.432  0.1150  0.2325  0.1235
 5526TIP3    H137993   4.487   5.200  14.465  0.0824  0.8107 -0.6154
 5526TIP3    H237994   4.362   5.127  14.510  0.4555  0.8612  0.5433
 5527TIP3   OH237995   4.568   6.267  12.030 -0.0840 -0.0872  0.3305
 5527TIP3    H137996   4.644   6.228  12.074 -0.7354 -0.3773  1.2394
 5527TIP3    H237997   4.557   6.353  12.072  0.3318  0.3826 -0.4949
 5528TIP3   OH237998   0.421   6.613  11.031 -0.0644 -0.0150  0.5652
 5528TIP3    H137999   0.417   6.688  11.090  0.7403 -0.5778  1.3681
 5528TIP3    H238000   0.486   6.638  10.965  0.1646  0.0158  0.8011
 5529TIP3   OH238001   3.178   0.558  12.986 -0.6352  0.2138  0.6556
 5529TIP3    H138002   3.269   0.542  12.964 -0.1605  0.1537  2.4600
 5529TIP3    H238003   3.128   0.499  12.930  0.6895 -2.9292  2.5015
 5530TIP3   OH238004   4.349   6.604   2.538 -0.4954 -0.2266  0.0318
 5530TIP3    H138005   4.406   6.544   2.586 -0.2746 -0.9360 -1.0676
 5530TIP3    H238006   4.287   6.636   2.603 -1.1475 -2.2945  0.5321
 5531TIP3   OH238007   1.113   0.258  11.718  1.0662  0.4038  0.1270
 5531TIP3    H138008   1.023   0.242  11.690 -0.1048  1.8772  2.7018
 5531TIP3    H238009   1.138   0.339  11.673  1.4443 -0.4087 -1.1841
 5532TIP3   OH238010   2.704   0.716  11.449  0.1853 -0.0180 -0.3137
 5532TIP3    H138011   2.613   0.696  11.469  0.3571  0.6567  1.3282
 5532TIP3    H238012   2.719   0.803  11.487  1.7506 -0.5267  0.3585
 5533TIP3   OH238013   2.378   2.474  16.586  0.1546  0.1571 -0.4179
 5533TIP3    H138014   2.473   2.483  16.571  0.1778  1.1858  0.2209
 5533TIP3    H238015   2.340   2.550  16.542 -0.4127 -0.4303 -0.9502
 5534TIP3   OH238016   5.828   3.823  15.492 -0.7241  0.2846  0.3964
 5534TIP3    H138017   5.872   3.738  15.495 -0.1214  0.6107  1.2755
 5534TIP3    H238018   5.829   3.847  15.400 -0.6275 -0.5237  0.1783
 5535TIP3   OH238019   4.645   6.481  11.245  0.0938 -0.0559  0.1063
 5535TIP3    H138020   4.708   6.553  11.244 -0.5185  0.5144 -2.0198
 5535TIP3    H238021   4.698   6.402  11.234  0.7304  0.0364  2.0698
 5536TIP3   OH238022   1.697   2.437   1.203  0.5921  0.4586 -0.2958
 5536TIP3    H138023   1.637   2.497   1.159  0.1722  1.0764  1.0544
 5536TIP3    H238024   1.771   2.492   1.229  0.2632  0.3972  0.8388
 5537TIP3   OH238025   0.017   2.696  12.093 -0.3961 -0.2782 -0.2207
 5537TIP3    H138026   0.067   2.662  12.166 -0.0333 -0.4374 -0.5391
 5537TIP3    H238027   0.027   2.630  12.024  0.1644  0.3770 -0.7811
 5538TIP3   OH238028   3.147   4.838   2.684  0.0823 -0.5778  0.4783
 5538TIP3    H138029   3.128   4.882   2.601 -0.7893 -1.5394  0.1457
 5538TIP3    H238030   3.193   4.757   2.658 -1.3899 -1.5523  0.8123
 5539TIP3   OH238031   2.683   3.832   4.716  0.1969  0.0098  0.4019
 5539TIP3    H138032   2.663   3.747   4.676  0.2078 -0.1336  0.6960
 5539TIP3    H238033   2.653   3.823   4.806  0.7049  0.1225  0.5896
 5540TIP3   OH238034   3.620   1.451   4.479 -0.8225  0.1443 -0.1106
 5540TIP3    H138035   3.615   1.386   4.409  0.0735 -2.5791  2.1355
 5540TIP3    H238036   3.530   1.461   4.509 -0.8944 -0.6020 -0.0608
 5541TIP3   OH238037   5.825   1.230  17.007  0.6579  0.1980 -0.0991
 5541TIP3    H138038   5.861   1.143  17.024 -0.0724 -0.2778 -0.9251
 5541TIP3    H238039   5.902   1.284  16.987  1.0453 -0.4743 -0.4705
 5542TIP3   OH238040   3.794   2.349  15.559 -0.8347 -0.0919 -0.3529
 5542TIP3    H138041   3.832   2.361  15.646 -1.1756  2.5913 -0.4822
 5542TIP3    H238042   3.786   2.254  15.549  1.5303 -0.5832  1.4970
 5543TIP3   OH238043   5.042   0.122  15.830 -0.0762  0.1039 -0.0832
 5543TIP3    H138044   5.017   0.208  15.796  1.6501 -0.0672 -1.9616
 5543TIP3    H238045   4.982   0.061  15.786 -0.1323  0.1827 -0.1169
 5544TIP3   OH238046   4.659   1.790  11.497  0.5460 -0.0172 -0.2938
 5544TIP3    H138047   4.642   1.717  11.437 -1.7293 -1.4021  1.8058
 5544TIP3    H238048   4.672   1.866  11.441  0.8990 -1.6425 -2.5429
 5545TIP3   OH238049   2.844   0.261   5.561 -0.4224  1.1037 -0.7407
 5545TIP3    H138050   2.855   0.248   5.467  0.6789  0.8628 -0.5918
 5545TIP3    H238051   2.797   0.183   5.591 -1.0506  1.3276 -1.1387
 5546TIP3   OH238052   6.072   2.766  16.340  0.6723 -0.5202  0.4908
 5546TIP3    H138053   6.129   2.768  16.417  1.5948 -0.2975 -0.1701
 5546TIP3    H238054   5.991   2.808  16.368  1.0197 -0.3813  1.3163
 5547TIP3   OH238055   2.213   0.897  15.669  0.1944 -0.2266 -0.0017
 5547TIP3    H138056   2.155   0.904  15.745 -0.6386 -0.5254 -0.5944
 5547TIP3    H238057   2.195   0.975  15.618  0.8706  0.0528  0.1840
 5548TIP3   OH238058   0.127   0.265  10.830  0.0120 -0.3758 -0.7242
 5548TIP3    H138059   0.091   0.209  10.899 -3.3310 -2.7954 -4.0193
 5548TIP3    H238060   0.106   0.354  10.858 -1.0547 -1.2342  1.4279
 5549TIP3   OH238061   4.839   2.092   1.386  0.0336 -0.8059 -0.6886
 5549TIP3    H138062   4.774   2.073   1.454  0.3970  1.2223  0.3060
 5549TIP3    H238063   4.792   2.082   1.304 -1.2488 -0.4766 -0.0199
 5550TIP3   OH238064   2.606   1.159  13.424  0.4446 -0.0912  0.2380
 5550TIP3    H138065   2.586   1.157  13.331  2.0932  0.0613 -0.1478
 5550TIP3    H238066   2.527   1.196  13.465 -0.3554 -0.3184 -1.0572
 5551TIP3   OH238067   1.652   4.507  16.899  0.1227 -0.0163  0.2146
 5551TIP3    H138068   1.573   4.456  16.919 -0.3692  0.6363 -0.0068
 5551TIP3    H238069   1.635   4.593  16.937  1.4546 -0.3438  1.6608
 5552TIP3   OH238070   1.122   4.320   1.833  0.1219  0.1757 -0.1181
 5552TIP3    H138071   1.162   4.234   1.829 -1.6354 -0.6523 -0.6881
 5552TIP3    H238072   1.064   4.316   1.909  0.6537  1.1753  0.3717
 5553TIP3   OH238073   2.019   2.521  14.929 -0.2377  0.3054  0.1488
 5553TIP3    H138074   1.945   2.580  14.914  0.7412  1.7198  0.6850
 5553TIP3    H238075   1.997   2.475  15.010 -0.7421  0.3640  0.0492
 5554TIP3   OH238076   5.389   0.736   4.292 -0.5368 -0.5361 -0.3310
 5554TIP3    H138077   5.403   0.825   4.324  0.6169 -0.7207 -0.2741
 5554TIP3    H238078   5.309   0.707   4.335 -0.7838  0.3843 -0.1582
 5555TIP3   OH238079   2.545   3.552  13.363 -0.2087  0.2584 -0.0434
 5555TIP3    H138080   2.515   3.611  13.432  2.6311 -0.3876  1.9288
 5555TIP3    H238081   2.630   3.587  13.336 -0.0074 -1.0515 -1.2419
 5556TIP3   OH238082   1.699   0.248  15.742  0.0602 -0.2379  0.1010
 5556TIP3    H138083   1.662   0.291  15.665 -0.7950 -1.8760 -0.4633
 5556TIP3    H238084   1.716   0.158  15.713  0.3499 -0.7074  1.6371
 5557TIP3   OH238085   3.175   2.580   3.077  0.5512 -0.0315  0.2052
 5557TIP3    H138086   3.183   2.676   3.072  2.6210 -0.0924  1.2585
 5557TIP3    H238087   3.228   2.548   3.005  0.0114 -0.3881 -0.0328
 5558TIP3   OH238088   0.425   0.541  10.558 -0.5157 -0.4004 -0.6169
 5558TIP3    H138089   0.416   0.636  10.552 -0.0814 -0.3714 -0.9019
 5558TIP3    H238090   0.491   0.527  10.626  0.1390 -0.4530 -1.2446
 5559TIP3   OH238091   6.763   5.356   2.174  0.4574 -0.1097  0.8572
 5559TIP3    H138092   6.794   5.443   2.149 -2.4659  0.7277 -0.3548
 5559TIP3    H238093   6.838   5.314   2.216  2.9595  1.8048 -1.3561
 5560TIP3   OH238094   5.777   4.672  15.247  0.1679 -0.0245  0.7178
 5560TIP3    H138095   5.797   4.626  15.165 -0.1466  1.2413 -0.0858
 5560TIP3    H238096   5.861   4.708  15.275  0.0146  0.7798  0.1657
 5561TIP3   OH238097   4.833   0.600  11.848  0.1694  0.4775 -0.3096
 5561TIP3    H138098   4.828   0.678  11.902  0.2302  0.9162 -0.9222
 5561TIP3    H238099   4.885   0.538  11.900  0.8088  1.1293 -0.1548
 5562TIP3   OH238100   4.878   5.513  12.043  0.1001 -0.0479 -0.0827
 5562TIP3    H138101   4.909   5.586  11.990  1.8249 -1.4869 -1.1675
 5562TIP3    H238102   4.935   5.439  12.019 -0.8146 -1.4675  1.7997
 5563TIP3   OH238103   0.283   5.721   4.078 -0.0981 -0.1868 -0.3923
 5563TIP3    H138104   0.233   5.801   4.058  0.1195  0.1624  0.4405
 5563TIP3    H238105   0.336   5.706   3.999  0.0493  0.6347 -0.4572
 5564TIP3   OH238106   3.421   3.435  11.950 -0.3000 -0.0831 -0.2240
 5564TIP3    H138107   3.414   3.456  12.043 -0.9804 -0.7921 -0.1023
 5564TIP3    H238108   3.479   3.359  11.948 -0.3837 -0.1424 -0.3680
 5565TIP3   OH238109   4.648   4.549   5.683  0.1564  0.5373  0.0593
 5565TIP3    H138110   4.565   4.594   5.668 -1.0028 -1.0823  1.2496
 5565TIP3    H238111   4.694   4.555   5.599 -0.4393  2.8285 -0.1674
 5566TIP3   OH238112   4.545   0.726   0.238 -0.0132 -0.2637  0.1247
 5566TIP3    H138113   4.518   0.642   0.200 -0.9341 -0.4491  1.1156
 5566TIP3    H238114   4.626   0.706   0.285 -0.2404 -0.6104  0.3761
 5567TIP3   OH238115   5.062   0.738   5.484 -0.4387 -0.1528 -0.6696
 5567TIP3    H138116   5.109   0.790   5.550  0.2726  0.4027 -1.5836
 5567TIP3    H238117   4.991   0.794   5.455 -0.7206 -0.3770 -0.4146
 5568TIP3   OH238118   4.987   6.766   0.722  0.4561 -0.6594 -0.0270
 5568TIP3    H138119   5.041   6.816   0.783 -0.4585 -2.6898  2.5998
 5568TIP3    H238120   4.897   6.776   0.755 -0.2545 -0.9637 -1.7142
 5569TIP3   OH238121   3.354   4.726  13.049  0.3151  0.3901  0.1674
 5569TIP3    H138122   3.397   4.744  12.965  0.7517 -0.8153  0.1165
 5569TIP3    H238123   3.426   4.711  13.110 -0.0223 -0.3112  0.3971
 5570TIP3   OH238124   5.659   4.042   1.842 -0.5394  0.4661  0.1922
 5570TIP3    H138125   5.687   3.968   1.788 -0.1439  1.8796 -1.6407
 5570TIP3    H238126   5.579   4.073   1.800 -1.0678  0.7038  1.3356
 5571TIP3   OH238127   3.179   5.804   3.663  0.1459 -0.1935 -0.5720
 5571TIP3    H138128   3.109   5.829   3.723 -0.2437 -1.3474 -0.5270
 5571TIP3    H238129   3.253   5.783   3.721  0.3179  0.3735 -0.5855
 5572TIP3   OH238130   2.917   5.001  15.566  0.7024 -0.4526 -0.3882
 5572TIP3    H138131   2.945   5.060  15.496  1.1560  2.5803  2.1452
 5572TIP3    H238132   2.995   4.950  15.588  0.8162 -0.7280 -1.3814
 5573TIP3   OH238133   6.123   1.675  10.560 -0.1815 -0.3749  0.0836
 5573TIP3    H138134   6.060   1.637  10.622  0.9012 -1.0872  0.7819
 5573TIP3    H238135   6.143   1.603  10.500  2.0947 -1.0996  1.5801
 5574TIP3   OH238136   3.153   4.935   3.940  0.3159 -0.1104 -0.2197
 5574TIP3    H138137   3.239   4.963   3.971  0.2610  2.1245 -1.8429
 5574TIP3    H238138   3.169   4.897   3.854 -0.3897  1.4790 -1.1040
 5575TIP3   OH238139   6.200   2.569   1.219  0.4346  0.0412  0.1396
 5575TIP3    H138140   6.169   2.655   1.246  0.2302  0.0782 -0.2065
 5575TIP3    H238141   6.285   2.586   1.177 -0.9620  0.4983 -2.7425
 5576TIP3   OH238142   6.310   4.524   5.956  0.1479 -0.1475 -0.2302
 5576TIP3    H138143   6.318   4.474   6.037  0.8225  0.8175  0.3304
 5576TIP3    H238144   6.324   4.615   5.983 -1.3604  0.3879 -1.1665
 5577TIP3   OH238145   1.067   0.961   3.844  0.8408  0.0551  0.2573
 5577TIP3    H138146   1.076   1.056   3.834  0.9515  0.1979  1.6137
 5577TIP3    H238147   0.980   0.948   3.881  0.9193 -0.3568  0.3110
 5578TIP3   OH238148   6.478   2.763   0.820  0.1407  0.4141 -0.0376
 5578TIP3    H138149   6.571   2.751   0.841 -0.4265 -2.3544  1.2676
 5578TIP3    H238150   6.475   2.764   0.725  1.5192  0.7074 -0.0987
 5579TIP3   OH238151   3.275   3.958  16.468 -0.3909 -0.4212 -0.1756
 5579TIP3    H138152   3.242   3.909  16.393  0.0321  0.0871 -0.7053
 5579TIP3    H238153   3.240   4.047  16.456  1.1694  0.1390 -0.7718
 5580TIP3   OH238154   1.176   2.415   0.479  0.1487  0.2626 -0.0201
 5580TIP3    H138155   1.178   2.342   0.417 -1.5754  0.0013  0.2053
 5580TIP3    H238156   1.114   2.389   0.546  0.0384  1.6371  0.4458
 5581TIP3   OH238157   4.636   2.722  12.695 -0.1817 -0.3810 -0.1448
 5581TIP3    H138158   4.638   2.735  12.600  1.8389 -1.3421 -0.2725
 5581TIP3    H238159   4.702   2.783  12.729 -0.1916 -0.7533  0.5524
 5582TIP3   OH238160   4.393   5.825  11.986 -0.1993 -0.1401  0.0765
 5582TIP3    H138161   4.453   5.805  12.058  2.7279  0.8909 -1.8467
 5582TIP3    H238162   4.356   5.740  11.962  1.4964 -1.0892  0.6054
 5583TIP3   OH238163   0.332   5.632   1.190 -0.1042  0.3238 -0.2968
 5583TIP3    H138164   0.371   5.585   1.116  0.0827  1.2658 -0.8200
 5583TIP3    H238165   0.241   5.603   1.191  0.2895 -0.9662  0.1682
 5584TIP3   OH238166   5.628   5.686   5.399  0.3246 -0.7703 -0.1597
 5584TIP3    H138167   5.661   5.776   5.406 -2.4178  0.2358  1.4992
 5584TIP3    H238168   5.583   5.683   5.315 -0.6192 -0.1715  0.3130
 5585TIP3   OH238169   4.688   2.968   5.365 -0.3317 -0.2235  0.3771
 5585TIP3    H138170   4.728   2.983   5.450 -3.0102  1.3823  1.4695
 5585TIP3    H238171   4.665   3.056   5.333  0.5982 -0.7699 -2.0666
 5586TIP3   OH238172   2.749   5.755   1.425  0.2221  0.1040  0.0343
 5586TIP3    H138173   2.754   5.742   1.330  0.3880 -0.0914  0.0687
 5586TIP3    H238174   2.786   5.841   1.439 -1.1178  0.7546 -0.2267
 5587TIP3   OH238175   5.730   3.990   4.483 -0.5645  0.0770 -0.2021
 5587TIP3    H138176   5.730   3.951   4.396 -0.7980 -0.6403  0.1181
 5587TIP3    H238177   5.674   3.933   4.535  3.4487 -2.5268  1.7789
 5588TIP3   OH238178   1.705   0.451   4.646  0.0618 -0.5574  0.1436
 5588TIP3    H138179   1.678   0.541   4.629 -2.1081 -1.0957  0.4996
 5588TIP3    H238180   1.730   0.417   4.560 -0.5287 -0.0721 -0.2281
 5589TIP3   OH238181   4.505   3.082  10.811  0.1080  0.1061  0.1775
 5589TIP3    H138182   4.565   3.147  10.850 -0.9627  0.4911  1.2512
 5589TIP3    H238183   4.548   3.056  10.730  2.2592 -0.4276  1.3997
 5590TIP3   OH238184   2.948   4.499   4.524 -0.4039 -0.5150 -0.2450
 5590TIP3    H138185   2.903   4.570   4.476 -1.1186 -0.7284  0.1014
 5590TIP3    H238186   2.995   4.544   4.594  0.9958 -0.1493 -1.3605
 5591TIP3   OH238187   3.495   6.160   4.168 -0.4196  0.1872 -0.5034
 5591TIP3    H138188   3.439   6.183   4.243  0.6512  2.0355 -0.2043
 5591TIP3    H238189   3.491   6.236   4.111  0.2152 -0.4669 -1.4407
 5592TIP3   OH238190   4.027   2.159  10.974  0.3530  0.1251  0.2037
 5592TIP3    H138191   4.106   2.142  10.922  0.1560 -1.9900  0.5116
 5592TIP3    H238192   3.956   2.158  10.910  0.3660 -0.0124  0.1913
 5593TIP3   OH238193   3.563   2.881   4.082  0.1778 -0.3567  0.2176
 5593TIP3    H138194   3.562   2.823   4.158  0.7459 -0.0440  0.4717
 5593TIP3    H238195   3.481   2.931   4.089  0.2183 -0.3442  0.6099
 5594TIP3   OH238196   1.087   6.011  12.397 -0.2388  0.5361 -0.5252
 5594TIP3    H138197   1.113   5.919  12.408 -0.0140  0.5915 -0.5974
 5594TIP3    H238198   0.999   6.015  12.435 -1.0134 -0.1163 -2.1420
 5595TIP3   OH238199   2.159   2.275   1.110  0.7349  0.4956 -0.0267
 5595TIP3    H138200   2.162   2.181   1.123 -1.9022  0.3388  0.0232
 5595TIP3    H238201   2.174   2.287   1.017  0.1259 -0.0932 -0.2125
 5596TIP3   OH238202   5.650   5.660   1.417  0.6383  0.1291  0.5021
 5596TIP3    H138203   5.711   5.594   1.383 -1.0268 -1.6038  0.7032
 5596TIP3    H238204   5.605   5.693   1.339  1.0604  0.6206  0.4611
 5597TIP3   OH238205   0.623   1.222   1.615  0.5376 -0.2880 -0.2826
 5597TIP3    H138206   0.638   1.312   1.642  0.9537 -0.7336  1.0599
 5597TIP3    H238207   0.583   1.180   1.691  1.5714 -1.5532 -0.3846
 5598TIP3   OH238208   5.871   1.879   2.187 -0.0868 -0.1877  0.2383
 5598TIP3    H138209   5.913   1.952   2.140 -0.6250 -0.2041 -0.2847
 5598TIP3    H238210   5.874   1.806   2.125 -0.2467 -0.3857  0.4630
 5599TIP3   OH238211   6.493   5.445   2.853  0.2778 -0.0964 -0.3556
 5599TIP3    H138212   6.555   5.490   2.797 -0.2553  0.5483 -0.4392
 5599TIP3    H238213   6.407   5.470   2.819 -0.0478  0.0220  0.5283
 5600TIP3   OH238214   2.087   4.595   5.828  0.7230 -0.3039 -0.1994
 5600TIP3    H138215   2.033   4.525   5.792  0.4623  0.5784 -1.5806
 5600TIP3    H238216   2.061   4.673   5.779 -0.4590  1.2355  2.6609
 5601TIP3   OH238217   3.575   3.345  13.259 -0.0139 -0.2890 -0.5418
 5601TIP3    H138218   3.505   3.355  13.324  1.0326  0.2627  0.5475
 5601TIP3    H238219   3.582   3.431  13.219  0.2448 -0.2594 -0.4317
 5602TIP3   OH238220   4.602   4.053  15.901  0.0174  0.0637  0.0294
 5602TIP3    H138221   4.560   3.970  15.923 -1.3893  0.9263  0.7003
 5602TIP3    H238222   4.619   4.046  15.807  1.0048 -1.4274  0.2774
 5603TIP3   OH238223   2.441   6.332   2.878  0.4946  0.0040  0.2663
 5603TIP3    H138224   2.448   6.336   2.782  1.6781  0.3864  0.3505
 5603TIP3    H238225   2.348   6.346   2.896  0.4115  1.0003 -0.7871
 5604TIP3   OH238226   6.808   6.781  11.687  0.0507  0.3538  0.0091
 5604TIP3    H138227   6.868   6.853  11.667  1.8150  0.4466  4.5140
 5604TIP3    H238228   6.721   6.820  11.679  0.8920  2.4612  0.4552
 5605TIP3   OH238229   1.677   1.168  13.131 -0.0095 -0.4210 -0.3068
 5605TIP3    H138230   1.601   1.129  13.088  0.0052 -0.7964  0.0045
 5605TIP3    H238231   1.640   1.239  13.183 -0.1747 -0.7233 -0.0062
 5606TIP3   OH238232   3.007   0.832   5.214  0.0449 -0.4238 -0.5826
 5606TIP3    H138233   2.928   0.866   5.173  0.6283  1.8655  0.0810
 5606TIP3    H238234   3.077   0.891   5.184  1.2388 -1.4226  0.1300
 5607TIP3   OH238235   0.274   2.662  16.705 -0.4634  0.0998 -0.1075
 5607TIP3    H138236   0.273   2.567  16.717 -0.6958  0.1454  0.2374
 5607TIP3    H238237   0.205   2.678  16.641 -0.1557 -0.0021 -0.4686
 5608TIP3   OH238238   3.864   4.801  10.761  0.3278 -0.6081  0.2518
 5608TIP3    H138239   3.807   4.724  10.766  0.0906 -0.6265 -1.9410
 5608TIP3    H238240   3.818   4.862  10.705  0.6761  1.0473  1.6847
 5609TIP3   OH238241   6.228   6.792  11.763  0.6570 -0.1374 -0.1655
 5609TIP3    H138242   6.210   6.802  11.669  0.5553  0.9575 -0.0408
 5609TIP3    H238243   6.153   6.833  11.806 -1.1881 -3.7344  0.4972
 5610TIP3   OH238244   0.611   1.158   6.414  0.3270  0.1389 -0.3727
 5610TIP3    H138245   0.632   1.168   6.507  0.1343  0.8917 -0.4019
 5610TIP3    H238246   0.561   1.076   6.408  1.7660 -0.7877 -0.0581
 5611TIP3   OH238247   1.791   0.659   1.827  0.7484  0.2143 -0.6262
 5611TIP3    H138248   1.872   0.654   1.879  1.1751 -0.4111 -1.3374
 5611TIP3    H238249   1.774   0.753   1.819  2.3892  0.4611 -1.9447
 5612TIP3   OH238250   5.007   3.881   5.664  0.2461 -0.2626 -0.0656
 5612TIP3    H138251   4.985   3.974   5.672 -0.5127 -0.4361 -0.0088
 5612TIP3    H238252   4.979   3.858   5.575  0.7816 -0.3449 -0.2115
 5613TIP3   OH238253   0.222   2.753   3.912  0.1926 -0.7474  0.4174
 5613TIP3    H138254   0.231   2.727   4.003 -1.7854 -0.4835  0.7348
 5613TIP3    H238255   0.309   2.743   3.875  1.3599  0.4554  2.6739
 5614TIP3   OH238256   6.371   4.115  13.794  0.5409 -0.9349  0.0816
 5614TIP3    H138257   6.444   4.136  13.736  1.0884  0.6422  1.2673
 5614TIP3    H238258   6.311   4.063  13.740  1.4100 -0.2194 -1.6277
 5615TIP3   OH238259   3.919   0.068  12.400  0.0958  0.1488  0.3696
 5615TIP3    H138260   3.918   0.099  12.309 -0.8095 -1.9147 -0.3943
 5615TIP3    H238261   3.848   0.116  12.442  0.0117  0.5574 -0.2162
 5616TIP3   OH238262   6.669   6.569   5.337 -0.2581  0.2835 -0.2366
 5616TIP3    H138263   6.688   6.479   5.312  0.2146  0.0851  0.7873
 5616TIP3    H238264   6.588   6.563   5.389  0.6652  0.2071  1.2430
 5617TIP3   OH238265   5.988   6.675  11.311  0.3585 -0.0219 -0.1158
 5617TIP3    H138266   5.990   6.715  11.398 -1.3342  0.4569 -0.2626
 5617TIP3    H238267   6.069   6.625  11.306  0.4921 -0.0762  1.7482
 5618TIP3   OH238268   1.322   1.558  16.227  0.1464  0.1487  0.2071
 5618TIP3    H138269   1.274   1.475  16.229  0.2151  0.1116  2.0717
 5618TIP3    H238270   1.383   1.552  16.301  1.9526  0.8322 -1.1497
 5619TIP3   OH238271   4.023   2.028   4.711  0.1736  0.0139 -0.2585
 5619TIP3    H138272   4.012   1.943   4.754  1.5003 -0.8246 -1.5121
 5619TIP3    H238273   4.065   2.083   4.778  0.5984 -0.7406  0.1118
 5620TIP3   OH238274   6.234   6.497   2.203 -0.4070 -1.0376  0.3349
 5620TIP3    H138275   6.140   6.486   2.197 -0.4460 -0.1670 -1.0260
 5620TIP3    H238276   6.262   6.521   2.115  0.8968  0.0885  1.0068
 5621TIP3   OH238277   1.166   5.399   4.691  0.2338 -0.0704  0.2311
 5621TIP3    H138278   1.072   5.416   4.693  0.0915 -0.7172 -0.4649
 5621TIP3    H238279   1.196   5.437   4.609  0.6437  0.4155  0.5996
 5622TIP3   OH238280   6.288   0.813  10.518 -0.7243 -0.0738 -0.4557
 5622TIP3    H138281   6.260   0.727  10.550  0.1968 -0.2282 -0.0112
 5622TIP3    H238282   6.207   0.860  10.500 -1.2577 -0.6133  0.4432
 5623TIP3   OH238283   6.520   5.802  10.710  0.1699  0.5637  0.0056
 5623TIP3    H138284   6.519   5.723  10.764 -1.6319 -0.4194 -1.3465
 5623TIP3    H238285   6.588   5.786  10.645 -0.9153 -0.3802 -0.9218
 5624TIP3   OH238286   3.345   1.466   4.448 -0.1934  0.8542  0.2613
 5624TIP3    H138287   3.250   1.452   4.447 -0.3035  1.4707 -1.4559
 5624TIP3    H238288   3.372   1.452   4.357  1.6616 -1.0775  1.0155
 5625TIP3   OH238289   3.195   4.691   5.450 -0.3827  0.2029  0.6555
 5625TIP3    H138290   3.250   4.711   5.525 -0.5940  1.9140  0.3949
 5625TIP3    H238291   3.144   4.771   5.435 -0.4385 -0.1292 -1.2208
 5626TIP3   OH238292   0.585   5.053   3.852 -0.2467  0.4700  0.2336
 5626TIP3    H138293   0.492   5.069   3.837 -0.4883 -1.4184 -0.5211
 5626TIP3    H238294   0.610   4.990   3.784  1.6569  1.1608  0.2491
 5627TIP3   OH238295   4.304   4.173  11.466  0.0851  0.3179 -0.1513
 5627TIP3    H138296   4.260   4.095  11.499 -0.0103  0.6289  0.4778
 5627TIP3    H238297   4.304   4.234  11.540 -0.1570  1.0477 -0.7386
 5628TIP3   OH238298   5.512   1.727   4.517 -0.3945  0.0248  0.2934
 5628TIP3    H138299   5.441   1.745   4.456 -0.6956 -0.5523  0.4620
 5628TIP3    H238300   5.469   1.722   4.603 -0.0703  0.2111  0.4692
 5629TIP3   OH238301   3.150   4.068  17.035  0.3751 -0.2877 -0.0244
 5629TIP3    H138302   3.117   3.982  17.010  0.7213 -0.6743  0.8288
 5629TIP3    H238303   3.185   4.056  17.123  2.1373  0.2774 -0.6133
 5630TIP3   OH238304   4.892   2.308   2.591  0.7259  0.4719 -0.1549
 5630TIP3    H138305   4.859   2.392   2.557 -0.2793 -0.0193 -0.4337
 5630TIP3    H238306   4.881   2.247   2.519  2.1095  0.2371 -0.1844
 5631TIP3   OH238307   2.406   5.374  14.283  0.3829  0.3050  0.2144
 5631TIP3    H138308   2.492   5.396  14.246  0.6710 -0.4460  0.4246
 5631TIP3    H238309   2.351   5.448  14.258  0.3617 -0.4716 -2.3890
 5632TIP3   OH238310   6.463   0.683   3.271  0.3282 -0.0912 -0.2134
 5632TIP3    H138311   6.409   0.761   3.253 -0.5577 -0.8672 -1.0337
 5632TIP3    H238312   6.497   0.658   3.185  0.9500 -0.3874  0.1120
 5633TIP3   OH238313   2.448   4.383  16.907  0.2077 -0.5196 -0.6245
 5633TIP3    H138314   2.399   4.388  16.989 -1.0308 -1.1113 -1.3010
 5633TIP3    H238315   2.430   4.295  16.874  0.2541 -0.1026 -1.8023
 5634TIP3   OH238316   6.432   4.938  11.344 -0.5194 -0.5530  0.1944
 5634TIP3    H138317   6.505   4.886  11.311 -0.1047 -0.7698  1.4289
 5634TIP3    H238318   6.426   5.012  11.282  0.9258 -0.3811  0.2273
 5635TIP3   OH238319   2.898   2.464   1.969 -0.0227 -0.1553  0.0704
 5635TIP3    H138320   2.885   2.436   1.878  0.2494 -0.6603  0.1810
 5635TIP3    H238321   2.966   2.405   2.003  0.1208  0.2473  0.5020
 5636TIP3   OH238322   4.234   2.056   5.393 -0.1419 -0.1934  0.0722
 5636TIP3    H138323   4.261   2.119   5.326 -0.8814  1.7899  1.5386
 5636TIP3    H238324   4.234   2.107   5.474 -0.6375 -2.1587  1.3645
 5637TIP3   OH238325   0.006   0.728  16.692 -0.1427  0.2205 -0.4579
 5637TIP3    H138326   0.090   0.759  16.657 -0.1357 -1.2462 -1.8434
 5637TIP3    H238327  -0.042   0.808  16.712  1.7950  1.1048  0.9516
 5638TIP3   OH238328   5.477   1.867   3.777 -0.5764 -0.1652  0.4565
 5638TIP3    H138329   5.443   1.787   3.736 -0.7436 -0.7666  1.6969
 5638TIP3    H238330   5.560   1.883   3.733 -1.0859 -0.3640 -0.6020
 5639TIP3   OH238331   6.037   6.005  14.013  0.1087  0.0298  0.5076
 5639TIP3    H138332   5.964   5.953  14.046 -1.5438  0.3287 -2.3299
 5639TIP3    H238333   5.997   6.089  13.990  1.8761  1.0810  1.1298
 5640TIP3   OH238334   6.072   0.523   1.351 -0.5240  0.4240  0.4184
 5640TIP3    H138335   6.130   0.507   1.276  0.5037 -0.5695  1.3977
 5640TIP3    H238336   6.005   0.583   1.317  0.4364  0.7122 -1.0397
 5641TIP3   OH238337   3.474   3.105   4.875 -0.3432  0.1044 -0.1440
 5641TIP3    H138338   3.472   3.196   4.844  0.0260  0.4859  0.9108
 5641TIP3    H238339   3.384   3.087   4.903 -0.9001 -0.5378 -2.1754
 5642TIP3   OH238340   6.475   4.195   5.950 -0.1857  0.6845  0.1770
 5642TIP3    H138341   6.463   4.142   5.871  0.3456 -0.3394  0.7460
 5642TIP3    H238342   6.394   4.244   5.960 -1.1498 -0.8571  0.2032
 5643TIP3   OH238343   2.935   0.053  13.995  0.2132  0.0644 -0.0149
 5643TIP3    H138344   2.970   0.047  14.084  1.9941  0.1335 -0.6687
 5643TIP3    H238345   3.011   0.040  13.939 -0.7060  0.9570 -1.5307
 5644TIP3   OH238346   3.089   3.489  15.947 -0.3027 -0.3542 -0.5230
 5644TIP3    H138347   3.178   3.491  15.982 -0.9083 -1.2854  1.1771
 5644TIP3    H238348   3.073   3.397  15.927 -1.0005 -0.2338 -0.5302
 5645TIP3   OH238349   4.234   1.649   3.854 -0.2102  0.6238 -0.6403
 5645TIP3    H138350   4.232   1.738   3.820  0.1114  0.7756 -0.2660
 5645TIP3    H238351   4.155   1.608   3.818  0.0627  0.8087 -1.4832
 5646TIP3   OH238352   3.628   1.633   1.759  0.1331 -0.3045  0.6064
 5646TIP3    H138353   3.612   1.545   1.725  0.0183  0.0464 -0.2741
 5646TIP3    H238354   3.670   1.618   1.844 -0.5570 -1.2083  0.8118
 5647TIP3   OH238355   6.406   1.214  16.222  0.2090  1.2497  1.0477
 5647TIP3    H138356   6.370   1.303  16.226 -0.3815  1.1076 -0.4472
 5647TIP3    H238357   6.441   1.207  16.133 -2.3428 -0.9544  0.1051
 5648TIP3   OH238358   2.606   6.096   4.428  0.0809  0.1750  0.5441
 5648TIP3    H138359   2.645   6.182   4.416  0.8583 -0.3858 -1.2616
 5648TIP3    H238360   2.512   6.113   4.438  0.4587  1.3700  2.6810
 5649TIP3   OH238361   2.347   3.713  11.567  0.6307  0.7425 -0.0810
 5649TIP3    H138362   2.278   3.686  11.507  0.8025  1.5164 -0.6468
 5649TIP3    H238363   2.303   3.732  11.649  0.2145  0.9645 -0.3569
 5650TIP3   OH238364   4.212   2.589   5.447 -0.1404 -0.1059  0.0979
 5650TIP3    H138365   4.263   2.577   5.528 -0.1260  0.2067  0.1370
 5650TIP3    H238366   4.139   2.528   5.456 -0.2263  0.0387  0.4215
 5651TIP3   OH238367   4.718   6.431  12.479  0.2727 -0.0548 -0.3426
 5651TIP3    H138368   4.746   6.476  12.559  1.0733 -1.5069  0.2253
 5651TIP3    H238369   4.627   6.406  12.497  1.1179 -2.4518  1.1638
 5652TIP3   OH238370   0.611   5.111  13.035  0.3129  0.2241  0.2071
 5652TIP3    H138371   0.662   5.173  12.983 -0.6413  0.7096 -0.1639
 5652TIP3    H238372   0.557   5.166  13.092 -0.3623 -0.2690  0.0546
 5653TIP3   OH238373   3.209   1.719  11.841  0.7764 -0.1435  0.4641
 5653TIP3    H138374   3.259   1.668  11.778  1.0484 -0.8050  1.1846
 5653TIP3    H238375   3.267   1.789  11.869 -0.0225  1.3382 -1.4339
 5654TIP3   OH238376   3.063   1.243  16.559 -0.4664  0.2878 -0.2364
 5654TIP3    H138377   3.066   1.302  16.635 -0.2913 -0.4485  0.3344
 5654TIP3    H238378   2.973   1.248  16.528 -0.1300  1.9615 -1.0861
 5655TIP3   OH238379   6.080   3.918   3.533 -0.1888  0.2472  0.4704
 5655TIP3    H138380   6.080   4.014   3.528 -0.4965  0.2234 -0.1325
 5655TIP3    H238381   6.027   3.898   3.611 -1.3902  0.5546 -0.2300
 5656TIP3   OH238382   6.493   3.470   2.495  0.2746 -0.3655  0.1025
 5656TIP3    H138383   6.583   3.482   2.464  0.2719  0.2159  0.3099
 5656TIP3    H238384   6.503   3.452   2.589  0.0526  2.5074  0.7629
 5657TIP3   OH238385   1.912   6.264   5.896 -0.0713 -0.4685  0.4354
 5657TIP3    H138386   1.944   6.347   5.860  1.5744 -0.7986  1.0290
 5657TIP3    H238387   1.917   6.203   5.823  0.7557 -0.5241  0.5251
 5658TIP3   OH238388   0.638   4.857  13.752  0.0415  0.4760  0.1903
 5658TIP3    H138389   0.682   4.897  13.677  1.1290  0.0596  0.5839
 5658TIP3    H238390   0.710   4.834  13.812 -0.4259 -2.7132 -0.3254
 5659TIP3   OH238391   1.152   3.235   0.544 -0.2345  0.3624  0.0525
 5659TIP3    H138392   1.067   3.256   0.583 -0.3821  0.3684 -0.2654
 5659TIP3    H238393   1.190   3.171   0.603 -1.7311 -1.8964 -1.2965
 5660TIP3   OH238394   3.679   5.400   5.279  0.0420  0.2283 -0.9777
 5660TIP3    H138395   3.585   5.389   5.287  0.1832  0.3166  1.7623
 5660TIP3    H238396   3.713   5.387   5.367  2.4999  1.2274 -1.6659
 5661TIP3   OH238397   3.649   0.275   4.800 -0.7563  0.3599 -0.0683
 5661TIP3    H138398   3.606   0.359   4.814  1.6681  1.3998  1.9186
 5661TIP3    H238399   3.584   0.210   4.828 -1.2751  1.8267  2.4719
 5662TIP3   OH238400   2.111   3.729  12.595  0.6820 -0.3993 -0.1391
 5662TIP3    H138401   2.049   3.767  12.657  1.8242  1.5639 -0.1384
 5662TIP3    H238402   2.097   3.776  12.513  2.2425  0.1985 -0.0938
 5663TIP3   OH238403   3.662   4.050   0.446  0.6768  0.3189 -0.3971
 5663TIP3    H138404   3.656   4.135   0.490 -0.7163  0.8849 -1.6036
 5663TIP3    H238405   3.630   4.067   0.357 -1.4627 -1.8441 -0.1267
 5664TIP3   OH238406   4.939   3.649   2.632 -0.2711 -0.2823 -0.0289
 5664TIP3    H138407   5.032   3.645   2.653 -0.4709 -0.1385  0.9442
 5664TIP3    H238408   4.927   3.585   2.562  0.4336 -0.8430  0.3430
 5665TIP3   OH238409   4.517   2.916   1.065 -0.0310  0.0642 -0.3431
 5665TIP3    H138410   4.469   2.854   1.010 -0.2636  0.8431 -1.0553
 5665TIP3    H238411   4.512   2.880   1.153 -1.3888 -0.1933 -0.5082
 5666TIP3   OH238412   3.559   4.760  13.845 -0.1157 -0.2836  0.4821
 5666TIP3    H138413   3.590   4.799  13.926 -0.1425 -0.3187  0.5087
 5666TIP3    H238414   3.524   4.835  13.795  0.2360 -0.2076  0.3470
 5667TIP3   OH238415   5.055   4.988   0.219 -0.6127  0.4231 -0.1136
 5667TIP3    H138416   5.000   5.029   0.152 -1.7999  2.4202  1.9379
 5667TIP3    H238417   5.124   5.052   0.237 -0.1987 -0.1548  0.4226
 5668TIP3   OH238418   2.786   1.611  16.815  0.0666 -0.2290 -0.0646
 5668TIP3    H138419   2.788   1.535  16.756 -2.9355 -3.0319  3.0200
 5668TIP3    H238420   2.869   1.606  16.862 -0.0517 -1.6978  0.0586
 5669TIP3   OH238421   5.625   5.785  14.422  0.8443  0.0643 -0.0601
 5669TIP3    H138422   5.697   5.722  14.416 -1.5793 -2.8578 -0.6534
 5669TIP3    H238423   5.597   5.798  14.331 -0.1383  0.1881  0.2459
 5670TIP3   OH238424   3.681   4.336   1.414 -0.6013  0.0950  0.1500
 5670TIP3    H138425   3.730   4.347   1.332  0.3326  1.2178  0.8370
 5670TIP3    H238426   3.747   4.312   1.479 -1.1283  0.5241  0.8582
 5671TIP3   OH238427   1.402   6.275  16.804  0.3811  0.1149 -0.6867
 5671TIP3    H138428   1.378   6.193  16.849 -0.1763 -0.0908 -1.3540
 5671TIP3    H238429   1.496   6.283  16.820  0.3403 -0.3583 -0.1390
 5672TIP3   OH238430   1.345   5.239  16.785 -0.0631  0.6603 -0.6522
 5672TIP3    H138431   1.428   5.262  16.826 -0.3363  1.7718 -0.6972
 5672TIP3    H238432   1.365   5.162  16.731  1.3842  2.0405 -2.1657
 5673TIP3   OH238433   3.316   0.453   0.723  0.5877 -0.4581 -0.4798
 5673TIP3    H138434   3.279   0.440   0.636 -0.3968 -0.3519 -0.0845
 5673TIP3    H238435   3.324   0.548   0.732  0.3543 -0.4543 -0.3133
 5674TIP3   OH238436   6.076   5.485   2.463  0.3004  0.5073  0.0095
 5674TIP3    H138437   6.013   5.556   2.478 -0.9955 -0.6912  0.4903
 5674TIP3    H238438   6.025   5.418   2.418  1.9338  0.5346 -2.0567
 5675TIP3   OH238439   2.740   3.413  13.861  0.5257 -0.4297  0.4842
 5675TIP3    H138440   2.784   3.473  13.801 -3.3248 -1.1744 -3.5741
 5675TIP3    H238441   2.693   3.471  13.922 -1.3041  0.7909 -1.9276
 5676TIP3   OH238442   0.588   0.104  15.431 -0.0690  0.7785  0.5414
 5676TIP3    H138443   0.668   0.134  15.387  1.6760  0.2798  3.1721
 5676TIP3    H238444   0.568   0.020  15.389  2.0543 -0.1269  1.2046
 5677TIP3   OH238445   6.140   1.786   4.212 -0.2955 -0.4538 -0.7047
 5677TIP3    H138446   6.201   1.750   4.277 -0.6765 -0.0280 -0.0966
 5677TIP3    H238447   6.113   1.710   4.160  0.1948 -0.7624 -0.5187
 5678TIP3   OH238448   3.163   3.615  13.228 -0.2906  0.2711  0.4977
 5678TIP3    H138449   3.081   3.570  13.250 -0.3862  0.6917  1.0542
 5678TIP3    H238450   3.206   3.627  13.313  1.1270 -1.3810  0.0613
 5679TIP3   OH238451   0.461   4.778  15.981 -0.0976  0.5538 -0.1772
 5679TIP3    H138452   0.390   4.832  15.949 -0.5823  0.3929  0.5888
 5679TIP3    H238453   0.418   4.708  16.031  0.3858 -1.5620 -2.5235
 5680TIP3   OH238454   5.021   5.029   1.494 -0.3525 -0.0249  0.2716
 5680TIP3    H138455   4.947   4.999   1.440  0.0919  0.3699 -0.5817
 5680TIP3    H238456   5.000   5.121   1.513 -0.7159 -0.2824  1.1473
 5681TIP3   OH238457   6.107   3.352  12.739 -0.7111  0.2065  0.3785
 5681TIP3    H138458   6.189   3.323  12.781 -0.3504 -0.7610 -0.9296
 5681TIP3    H238459   6.084   3.281  12.680 -3.1316 -0.0549  1.5067
 5682TIP3   OH238460   3.411   6.050   5.658 -0.0761 -0.3363 -0.1458
 5682TIP3    H138461   3.458   6.084   5.581 -1.0468  1.1466 -0.1017
 5682TIP3    H238462   3.432   5.956   5.658  1.1599 -0.0988 -1.3417
 5683TIP3   OH238463   3.466   6.811   2.580 -0.4873  0.3601  0.2086
 5683TIP3    H138464   3.372   6.789   2.576 -0.2785 -0.4474 -0.6691
 5683TIP3    H238465   3.485   6.817   2.673 -1.0135 -1.2989  0.4562
 5684TIP3   OH238466   4.428   3.240  13.564 -0.1635 -0.5497 -0.0391
 5684TIP3    H138467   4.441   3.146  13.554 -3.4601 -1.2208  0.5573
 5684TIP3    H238468   4.349   3.259  13.513  0.6425  2.0035 -0.4784
 5685TIP3   OH238469   2.463   4.440   1.056  0.2350 -0.0495  0.2767
 5685TIP3    H138470   2.482   4.475   0.969  2.8060  1.2636  1.2552
 5685TIP3    H238471   2.429   4.516   1.105  1.2254 -0.0929  1.0719
 5686TIP3   OH238472   1.202   2.835   1.338  0.6364  0.1164 -0.0774
 5686TIP3    H138473   1.277   2.814   1.394  0.8282  1.7450  0.3443
 5686TIP3    H238474   1.126   2.803   1.387  0.7730  1.7773  1.3543
 5687TIP3   OH238475   1.633   4.381  11.883 -0.0803 -0.5250 -0.0938
 5687TIP3    H138476   1.588   4.351  11.804  2.0830 -0.4947 -1.4345
 5687TIP3    H238477   1.666   4.468  11.860  0.2158 -0.3241  1.0244
 5688TIP3   OH238478   2.841   5.998  12.281 -0.2782 -0.2672  0.1744
 5688TIP3    H138479   2.813   6.083  12.314 -1.0853 -0.8019  0.9400
 5688TIP3    H238480   2.861   6.012  12.189 -2.8348  0.2433 -0.3787
 5689TIP3   OH238481   4.939   2.419  13.939 -0.4570 -0.3390  0.0273
 5689TIP3    H138482   4.946   2.360  13.864 -0.1607  0.5593 -0.6646
 5689TIP3    H238483   5.017   2.474  13.935 -1.8525  1.7084 -0.7701
 5690TIP3   OH238484   1.353   4.424  15.821 -0.1287  0.1482  0.0438
 5690TIP3    H138485   1.275   4.473  15.796  0.2488  0.3360 -0.8151
 5690TIP3    H238486   1.360   4.436  15.915 -0.0308  1.8133 -0.1305
 5691TIP3   OH238487   2.418   1.017  12.158  0.0531  0.8444  0.1519
 5691TIP3    H138488   2.350   1.038  12.222  0.7984  3.7256  0.1720
 5691TIP3    H238489   2.496   0.997  12.210 -0.2096 -0.3428  0.1157
 5692TIP3   OH238490   2.764   0.744  10.521  0.8087  0.6050  0.3320
 5692TIP3    H138491   2.694   0.809  10.511 -0.1945 -0.6757 -1.5326
 5692TIP3    H238492   2.827   0.766  10.453  0.2941 -0.5436 -0.5402
 5693TIP3   OH238493   2.950   2.115  13.250  0.2655 -0.1124  0.0971
 5693TIP3    H138494   2.882   2.160  13.198  0.9883 -0.6695 -1.4028
 5693TIP3    H238495   3.026   2.173  13.245  1.1857 -1.3783 -1.7930
 5694TIP3   OH238496   1.326   2.861  15.449 -0.4338  0.0464  0.2505
 5694TIP3    H138497   1.375   2.943  15.446 -0.6390  0.1521 -0.2703
 5694TIP3    H238498   1.293   2.856  15.539  0.1520  0.1965  0.4767
 5695TIP3   OH238499   2.334   3.357   2.308 -0.1553  0.4050  0.0772
 5695TIP3    H138500   2.374   3.427   2.360  2.6355 -0.9263 -0.0843
 5695TIP3    H238501   2.272   3.315   2.368  2.4054 -0.5965  2.2679
 5696TIP3   OH238502   2.465   1.379   1.834 -0.8135  0.3826 -0.2818
 5696TIP3    H138503   2.479   1.286   1.851  2.5083  0.8828  0.3071
 5696TIP3    H238504   2.383   1.382   1.784 -0.0268 -3.0419 -2.0743
 5697TIP3   OH238505   1.621   1.892  14.092 -0.5169  0.6300 -0.1871
 5697TIP3    H138506   1.558   1.935  14.149 -1.1473  0.5638 -0.8179
 5697TIP3    H238507   1.594   1.917  14.003 -1.5533 -1.8258 -0.6686
 5698TIP3   OH238508   6.324   2.931   6.490 -0.1885  0.2507  0.4900
 5698TIP3    H138509   6.365   2.908   6.574 -1.7141 -1.7440  0.7480
 5698TIP3    H238510   6.292   3.020   6.503 -1.2933 -0.3688  2.4348
 5699TIP3   OH238511   1.537   6.436   2.453 -0.0793 -0.4596 -0.5510
 5699TIP3    H138512   1.503   6.424   2.364 -1.3151  0.6847 -0.2616
 5699TIP3    H238513   1.486   6.509   2.488  0.5695 -0.7311  1.0134
 5700TIP3   OH238514   2.939   0.086  13.687 -0.4717  0.4039  0.0385
 5700TIP3    H138515   2.881   0.144  13.738 -1.6554 -1.0454  0.4370
 5700TIP3    H238516   2.933   0.119  13.598  0.4334  2.0715  0.5555
 5701TIP3   OH238517   6.490   5.721  16.542 -0.6961 -0.2436 -0.7141
 5701TIP3    H138518   6.520   5.772  16.617  0.7683 -2.1183  0.0404
 5701TIP3    H238519   6.440   5.784  16.489 -0.4218  1.5161  1.0000
 5702TIP3   OH238520   4.492   3.341   4.222  0.7701  0.1935  0.0687
 5702TIP3    H138521   4.567   3.364   4.167  1.2388 -0.6343  0.3316
 5702TIP3    H238522   4.477   3.419   4.275  0.4233  0.9388 -1.0840
 5703TIP3   OH238523   0.852   6.505  16.007  0.5693 -0.0676 -0.2981
 5703TIP3    H138524   0.778   6.459  15.967 -0.7541  2.0320 -0.3856
 5703TIP3    H238525   0.910   6.526  15.933 -0.9581  2.1549 -0.9405
 5704TIP3   OH238526   1.742   2.097  12.759  0.0265 -0.0076 -0.1087
 5704TIP3    H138527   1.786   2.067  12.680  0.8549 -0.3872  0.4779
 5704TIP3    H238528   1.718   2.017  12.805  0.7716  0.1897  0.6662
 5705TIP3   OH238529   0.236   4.891   0.997  0.0336 -0.9499  0.4742
 5705TIP3    H138530   0.167   4.956   1.014 -0.1897 -1.1136  0.2099
 5705TIP3    H238531   0.266   4.864   1.084  0.3714 -0.2399  0.5833
 5706TIP3   OH238532   2.951   6.693  11.926  0.3747  0.7277  0.2148
 5706TIP3    H138533   3.023   6.670  11.867  0.1623  2.5015 -0.8098
 5706TIP3    H238534   2.878   6.639  11.898  0.4898  1.0216 -0.6570
 5707TIP3   OH238535   6.474   4.885  15.204 -0.3088  0.9142 -0.5117
 5707TIP3    H138536   6.415   4.960  15.214 -0.1532  0.9752  0.0098
 5707TIP3    H238537   6.559   4.923  15.187 -0.0414  0.9062  0.6800
 5708TIP3   OH238538   4.559   6.140   5.133 -0.3118 -0.3604  0.2916
 5708TIP3    H138539   4.565   6.080   5.059  0.0561 -1.9718  1.5516
 5708TIP3    H238540   4.579   6.085   5.209 -0.1359  1.3437  1.5323
 5709TIP3   OH238541   5.957   2.680   0.469  0.6841 -0.2571  0.4131
 5709TIP3    H138542   6.033   2.679   0.526  0.0401 -0.6651  1.2904
 5709TIP3    H238543   5.896   2.617   0.508 -0.5807  0.9077  0.4266
 5710TIP3   OH238544   6.608   4.534  15.580 -0.0346  0.3541  0.0201
 5710TIP3    H138545   6.636   4.558  15.668  0.4322 -0.3686  0.0739
 5710TIP3    H238546   6.529   4.480  15.593 -2.0571  3.0564 -0.1577
 5711TIP3   OH238547   3.799   0.470   2.211  0.3856 -0.1380  0.0042
 5711TIP3    H138548   3.765   0.482   2.123 -2.4791 -0.0595  0.9978
 5711TIP3    H238549   3.786   0.377   2.230  1.2023 -0.2068  0.2675
 5712TIP3   OH238550   3.102   3.836  14.441  0.2464 -0.4880 -0.0586
 5712TIP3    H138551   3.179   3.893  14.440 -0.4452  0.4789 -0.9172
 5712TIP3    H238552   3.109   3.786  14.359 -0.5057  0.3000 -0.6280
 5713TIP3   OH238553   1.915   2.008   2.170  0.3387 -0.2073  0.4349
 5713TIP3    H138554   1.925   1.970   2.083 -0.3977 -0.9516  0.6660
 5713TIP3    H238555   1.909   2.102   2.154  1.0258 -0.2615 -0.2393
 5714TIP3   OH238556   6.212   5.264   4.715  0.2240  0.0928  0.6293
 5714TIP3    H138557   6.262   5.236   4.792  2.3867  1.4211 -0.1805
 5714TIP3    H238558   6.254   5.345   4.688 -1.1224  0.1919 -1.3733
 5715TIP3   OH238559   3.821   2.276  14.623  0.0528 -0.7687  0.1624
 5715TIP3    H138560   3.917   2.283  14.621  0.0989  0.1094  2.6840
 5715TIP3    H238561   3.805   2.181  14.625  0.9379 -0.9221  0.8983
 5716TIP3   OH238562   0.226   1.438  13.155 -0.6818 -0.4178 -0.1837
 5716TIP3    H138563   0.177   1.510  13.194  0.8651  1.2471 -1.1875
 5716TIP3    H238564   0.193   1.360  13.200 -3.4526  0.6916 -0.0853
 5717TIP3   OH238565   4.067   1.503  14.730 -0.0173 -0.5226 -0.1239
 5717TIP3    H138566   4.058   1.559  14.652  0.0094  0.6733  0.7133
 5717TIP3    H238567   4.108   1.559  14.795  1.1531 -1.8979  0.3740
 5718TIP3   OH238568   5.906   3.545   1.268  0.0927 -0.1351  0.0991
 5718TIP3    H138569   5.987   3.495   1.283  0.8929  1.1238  0.0931
 5718TIP3    H238570   5.926   3.633   1.301 -1.2502  0.2166  0.0068
 5719TIP3   OH238571   0.531   6.550  15.492 -0.0519  0.1456 -0.2383
 5719TIP3    H138572   0.496   6.528  15.579 -0.4170 -0.4313 -0.5277
 5719TIP3    H238573   0.528   6.468  15.443  0.3160  0.4291 -0.7451
 5720TIP3   OH238574   0.226   5.636   3.144  0.0281  0.1468 -0.0841
 5720TIP3    H138575   0.255   5.721   3.178  0.4149  0.6155 -1.4746
 5720TIP3    H238576   0.231   5.577   3.218  0.4845  1.1781  0.7398
 5721TIP3   OH238577   6.728   5.261  11.568  0.5528 -0.2268 -0.1692
 5721TIP3    H138578   6.680   5.182  11.593 -0.2875  0.7425  1.3875
 5721TIP3    H238579   6.818   5.231  11.556  0.3896 -1.2984  1.0953
 5722TIP3   OH238580   4.516   4.593   1.467  0.2217 -0.0581 -0.0724
 5722TIP3    H138581   4.502   4.667   1.408 -1.4741  0.0511  0.4092
 5722TIP3    H238582   4.428   4.568   1.495  0.7161 -2.5743 -0.5738
 5723TIP3   OH238583   2.900   4.108  13.042  0.2554  0.4393  0.4190
 5723TIP3    H138584   2.982   4.113  12.993  0.7355  0.0910  1.1567
 5723TIP3    H238585   2.877   4.015  13.041  0.5924  0.3369  1.3461
 5724TIP3   OH238586   5.492   1.845  16.636  0.2317  0.0209  0.0854
 5724TIP3    H138587   5.429   1.784  16.674  0.9533 -0.2357  0.8873
 5724TIP3    H238588   5.524   1.897  16.709 -0.1754  1.2120 -0.5460
 5725TIP3   OH238589   2.302   5.080  10.623  0.0883 -0.4086 -0.1163
 5725TIP3    H138590   2.361   5.150  10.652 -0.8288  0.2493  0.2229
 5725TIP3    H238591   2.332   5.002  10.670  1.3960 -0.3584 -0.8291
 5726TIP3   OH238592   1.216   2.585   3.506 -0.6110 -0.1549 -0.8127
 5726TIP3    H138593   1.262   2.526   3.447  0.9573  1.5504 -1.3901
 5726TIP3    H238594   1.207   2.667   3.456 -0.9012  0.7404  0.6346
 5727TIP3   OH238595   0.697   1.782  10.282 -0.2297 -0.5987  0.0639
 5727TIP3    H138596   0.762   1.725  10.324 -0.3828  0.1222  1.3135
 5727TIP3    H238597   0.746   1.829  10.215  0.7087  0.4188  1.4238
 5728TIP3   OH238598   1.292   4.778  11.305  0.0484 -0.5718 -0.6065
 5728TIP3    H138599   1.338   4.758  11.386 -0.9723 -0.8616 -0.0812
 5728TIP3    H238600   1.291   4.695  11.256  1.6097 -0.1473 -1.4372
 5729TIP3   OH238601   6.593   2.893  15.255 -0.4653 -0.6660 -0.1939
 5729TIP3    H138602   6.590   2.988  15.260 -0.0207 -0.5050 -2.1385
 5729TIP3    H238603   6.678   2.873  15.216 -0.6748 -1.8319 -0.1059
 5730TIP3   OH238604   6.665   4.359   0.600 -0.0377  0.1226  0.6816
 5730TIP3    H138605   6.697   4.334   0.513  4.0680 -1.5759  2.4222
 5730TIP3    H238606   6.622   4.280   0.633  0.0366  0.1663  0.8836
 5731TIP3   OH238607   6.659   6.480  10.692 -0.1904 -0.1031 -0.3988
 5731TIP3    H138608   6.614   6.478  10.608  0.9623 -0.3891 -1.0353
 5731TIP3    H238609   6.610   6.420  10.748 -0.1670 -0.9954 -1.3075
 5732TIP3   OH238610   1.475   4.339   1.573 -0.6423  0.1023  0.0249
 5732TIP3    H138611   1.540   4.298   1.516 -0.5586  0.3039 -0.0265
 5732TIP3    H238612   1.402   4.278   1.575 -0.6335  0.0819 -0.2763
 5733TIP3   OH238613   0.842   5.570  12.886  0.1511 -0.0636  0.0825
 5733TIP3    H138614   0.844   5.495  12.826 -0.5361  0.3232 -0.4385
 5733TIP3    H238615   0.932   5.578  12.918 -0.0087 -1.9667  1.2225
 5734TIP3   OH238616   0.362   5.466  15.383 -0.0249 -0.3056  0.5944
 5734TIP3    H138617   0.451   5.431  15.383 -0.3422 -1.1233  0.5950
 5734TIP3    H238618   0.309   5.398  15.425 -0.6244  0.2489  0.7546
 5735TIP3   OH238619   2.808   3.315   6.160  0.0079  0.4617 -0.3342
 5735TIP3    H138620   2.767   3.267   6.089  0.6194  0.4200 -0.6675
 5735TIP3    H238621   2.869   3.252   6.200 -0.9265  0.2181  0.7663
 5736TIP3   OH238622   6.792   6.313   0.363 -0.5060  0.0635  0.1750
 5736TIP3    H138623   6.843   6.265   0.427 -0.9872 -0.7769 -0.0569
 5736TIP3    H238624   6.839   6.396   0.351 -1.9900  1.6475  3.8664
 5737TIP3   OH238625   0.440   5.738   0.069 -0.3422  0.2558 -0.1929
 5737TIP3    H138626   0.381   5.799   0.113 -0.3122  0.7806 -0.8577
 5737TIP3    H238627   0.383   5.667   0.038 -0.2024 -0.7257  1.6871
 5738TIP3   OH238628   3.355   2.305  15.691  0.0659 -0.0537 -0.5168
 5738TIP3    H138629   3.383   2.215  15.704 -1.7766 -0.7428 -0.9827
 5738TIP3    H238630   3.328   2.335  15.778  1.3968  0.3580 -0.2120
 5739TIP3   OH238631   2.626   5.589  16.572  0.1157  0.2252  0.7623
 5739TIP3    H138632   2.697   5.600  16.635  0.5196  0.3378  0.2970
 5739TIP3    H238633   2.564   5.530  16.615  1.4051 -1.4433  0.4383
 5740TIP3   OH238634   0.979   3.029   5.301  0.1460  0.3817 -0.2289
 5740TIP3    H138635   1.010   3.078   5.225  0.5628 -1.8438 -1.5859
 5740TIP3    H238636   0.888   3.009   5.282 -0.1017  0.8354  0.4415
 5741TIP3   OH238637   4.118   4.322   0.155  0.3318  0.5704 -0.4618
 5741TIP3    H138638   4.191   4.263   0.138  2.1091  2.5944 -0.2478
 5741TIP3    H238639   4.158   4.409   0.162 -2.0489  1.7070  0.1167
 5742TIP3   OH238640   1.862   3.550   2.304  0.3812 -0.7117  0.0159
 5742TIP3    H138641   1.940   3.606   2.304 -0.2443  0.2004 -1.1853
 5742TIP3    H238642   1.833   3.548   2.213 -1.2739 -0.6589  0.5034
 5743TIP3   OH238643   6.714   5.132  12.638  0.6681 -0.1284  0.4734
 5743TIP3    H138644   6.800   5.133  12.681 -0.3537  1.5994  2.7102
 5743TIP3    H238645   6.664   5.067  12.687  0.3944 -0.4184 -0.1870
 5744TIP3   OH238646   3.910   1.376   1.866  0.2639  0.0193  0.0988
 5744TIP3    H138647   3.886   1.441   1.932 -1.3824  0.3836 -0.7963
 5744TIP3    H238648   3.887   1.292   1.906 -0.7304  0.2358  0.0010
 5745TIP3   OH238649   1.743   6.324   4.464  0.5373  0.0091 -0.1830
 5745TIP3    H138650   1.650   6.307   4.454  0.5644  0.5613 -1.6241
 5745TIP3    H238651   1.758   6.406   4.416  1.3567  1.2431  1.9769
 5746TIP3   OH238652   0.773   5.024   5.814 -1.1271  0.6711 -0.0514
 5746TIP3    H138653   0.705   5.091   5.820 -2.2232 -0.4568  0.6038
 5746TIP3    H238654   0.813   5.023   5.901  1.0102  2.5524 -0.9086
 5747TIP3   OH238655   2.126   0.842  11.214 -0.1462 -0.0158 -0.3239
 5747TIP3    H138656   2.160   0.774  11.155  0.8723  0.4035 -0.2396
 5747TIP3    H238657   2.202   0.870  11.264 -0.7317  0.6021  0.2376
 5748TIP3   OH238658   2.363   2.461   5.915 -0.6240  0.2684 -0.1017
 5748TIP3    H138659   2.316   2.526   5.863  0.3458 -0.1401 -1.5436
 5748TIP3    H238660   2.443   2.505   5.943 -0.9563  0.3587  0.7291
 5749TIP3   OH238661   6.729   1.162  14.883 -0.2067 -0.0341  0.3550
 5749TIP3    H138662   6.739   1.171  14.788  0.2537  0.6470  0.4652
 5749TIP3    H238663   6.790   1.225  14.920 -0.1222 -0.5465  1.1171
 5750TIP3   OH238664   6.529   2.396  14.954 -0.4272  0.0266  0.4985
 5750TIP3    H138665   6.456   2.458  14.958 -0.7964 -0.3505 -0.1209
 5750TIP3    H238666   6.532   2.356  15.041 -0.2138  0.8731  0.8884
 5751TIP3   OH238667   1.750   4.353  13.878 -0.2826 -0.1977  0.2213
 5751TIP3    H138668   1.720   4.264  13.857  1.2954 -0.8495  0.6231
 5751TIP3    H238669   1.724   4.406  13.803 -0.8125 -1.0959 -0.2432
 5752TIP3   OH238670   6.629   5.213   4.617  0.1466 -0.3539 -0.2738
 5752TIP3    H138671   6.645   5.294   4.568 -0.4384 -0.3665 -0.5022
 5752TIP3    H238672   6.597   5.152   4.550 -0.6106 -0.3866  0.1070
 5753TIP3   OH238673   2.399   2.466  13.059  0.4715 -0.3008 -0.0294
 5753TIP3    H138674   2.311   2.493  13.085 -0.1932 -2.9998  0.8281
 5753TIP3    H238675   2.412   2.381  13.101  2.4420 -1.2595 -2.3496
 5754TIP3   OH238676   0.187   4.141  13.940 -0.4638 -0.4503  0.8377
 5754TIP3    H138677   0.180   4.222  13.888 -2.6244 -0.4666  1.0478
 5754TIP3    H238678   0.224   4.077  13.879 -0.7369  0.1410  0.0371
 5755TIP3   OH238679   4.267   2.737  14.737  0.1735  0.0051 -0.9374
 5755TIP3    H138680   4.327   2.671  14.774  1.4479  0.8037 -1.5135
 5755TIP3    H238681   4.319   2.781  14.670  0.3645  3.4870  1.2601
 5756TIP3   OH238682   1.557   3.113  13.094  0.0459 -0.2334  0.4346
 5756TIP3    H138683   1.543   3.026  13.056  2.0055 -0.3568 -0.1036
 5756TIP3    H238684   1.624   3.099  13.161  0.6236  0.9203  0.1127
 5757TIP3   OH238685   6.601   6.635   3.394  0.0488  0.3275 -0.0820
 5757TIP3    H138686   6.659   6.607   3.464  1.2942  0.2385 -1.1020
 5757TIP3    H238687   6.602   6.563   3.331 -0.2670  0.8023 -0.6450
 5758TIP3   OH238688   0.783   0.565  16.327 -0.4001 -0.4061 -0.5468
 5758TIP3    H138689   0.794   0.558  16.422  0.7244  1.9433 -0.4438
 5758TIP3    H238690   0.856   0.619  16.298 -0.1901 -1.8045 -2.9180
 5759TIP3   OH238691   4.061   3.472   0.861 -0.2488  0.5922 -0.1679
 5759TIP3    H138692   4.039   3.387   0.899 -1.3620  0.9431  0.0262
 5759TIP3    H238693   4.086   3.452   0.771 -0.0025  0.0075  0.0263
 5760TIP3   OH238694   5.897   0.458  16.566  0.1701 -0.2057  0.7092
 5760TIP3    H138695   5.843   0.420  16.498  0.4692  0.8735 -0.1604
 5760TIP3    H238696   5.938   0.535  16.525  0.9189  0.0569  1.8802
 5761TIP3   OH238697   2.710   2.569  13.339  0.3794 -0.0966  0.0469
 5761TIP3    H138698   2.682   2.594  13.251  1.5848  0.9597 -0.0541
 5761TIP3    H238699   2.805   2.576  13.338  0.4690 -0.7377  1.2449
 5762TIP3   OH238700   2.629   1.147   6.000  0.1824 -0.6429 -0.1036
 5762TIP3    H138701   2.618   1.052   5.999 -0.0645 -0.6299  0.6436
 5762TIP3    H238702   2.640   1.169   6.093 -1.5951  0.2652 -0.0691
 5763TIP3   OH238703   0.866   5.551  12.194  0.7659  0.1434  0.2471
 5763TIP3    H138704   0.923   5.610  12.144 -0.5687  1.0544 -0.2489
 5763TIP3    H238705   0.858   5.473  12.138  0.9149  0.3154 -0.0155
 5764TIP3   OH238706   2.882   4.325   6.625  0.0450  0.1369  0.0876
 5764TIP3    H138707   2.806   4.309   6.570  1.3006 -0.1803 -1.6534
 5764TIP3    H238708   2.909   4.238   6.655  1.3384 -0.1298 -1.6574
 5765TIP3   OH238709   2.382   2.775   5.307 -0.1235 -0.6635  0.2808
 5765TIP3    H138710   2.362   2.689   5.345 -0.1654  0.1699  2.3212
 5765TIP3    H238711   2.442   2.814   5.370 -1.6838  1.5775  0.4789
 5766TIP3   OH238712   5.429   5.545  15.378  0.0958  0.2036 -0.1221
 5766TIP3    H138713   5.503   5.561  15.319 -0.5747 -1.6044 -1.5594
 5766TIP3    H238714   5.357   5.520  15.320 -0.0002 -3.9589  1.4401
 5767TIP3   OH238715   2.941   4.956  11.178 -0.2206 -0.5380 -0.4413
 5767TIP3    H138716   3.018   4.940  11.232 -1.4974 -1.8145  1.1201
 5767TIP3    H238717   2.961   5.036  11.130  2.2070 -1.0398 -0.4004
 5768TIP3   OH238718   0.331   2.891  11.454  0.2674  0.6076  0.1793
 5768TIP3    H138719   0.269   2.832  11.496 -0.7084  1.0925 -0.5368
 5768TIP3    H238720   0.281   2.971  11.439  0.5190  0.3952 -2.0622
 5769TIP3   OH238721   0.784   6.665   1.263  0.4350 -0.3372 -0.1818
 5769TIP3    H138722   0.803   6.690   1.353 -1.0795  2.2445 -0.4814
 5769TIP3    H238723   0.870   6.661   1.220  0.9846  1.2948  0.7129
 5770TIP3   OH238724   3.103   2.094  15.749  0.1174 -0.0961  0.4211
 5770TIP3    H138725   3.152   2.110  15.668  0.6376  0.2848  0.8043
 5770TIP3    H238726   3.038   2.164  15.752  0.4595  0.2104  0.6137
 5771TIP3   OH238727   1.737   5.312  11.693  0.4055 -0.4242  0.0129
 5771TIP3    H138728   1.751   5.361  11.774  0.6205  1.4679 -1.1124
 5771TIP3    H238729   1.801   5.349  11.632 -0.5042 -1.0432 -1.3454
 5772TIP3   OH238730   3.726   4.158  13.138 -0.1439  0.0450 -0.1148
 5772TIP3    H138731   3.674   4.079  13.148  1.2202 -0.8824 -0.0236
 5772TIP3    H238732   3.751   4.182  13.228  0.0035  0.1935 -0.1927
 5773TIP3   OH238733   0.839   1.997   5.592 -0.3793 -0.5417 -0.3377
 5773TIP3    H138734   0.839   1.972   5.685 -1.3428  0.3609 -0.0731
 5773TIP3    H238735   0.931   2.000   5.568 -0.1264 -1.1381  0.4901
 5774TIP3   OH238736   2.203   1.590   4.695 -0.2504  0.6794 -0.4188
 5774TIP3    H138737   2.275   1.631   4.743  1.3707 -0.5182 -1.7093
 5774TIP3    H238738   2.242   1.567   4.610 -2.2895  0.3572 -1.3099
 5775TIP3   OH238739   3.137   3.791   1.363  0.1053 -0.3999  0.2766
 5775TIP3    H138740   3.103   3.765   1.277 -0.8007 -0.0417  0.5094
 5775TIP3    H238741   3.153   3.708   1.408  0.6639 -0.5902 -0.2632
 5776TIP3   OH238742   5.011   0.705  11.573 -0.2824 -0.1880  0.5257
 5776TIP3    H138743   5.011   0.630  11.513  2.1615 -0.9600  1.3645
 5776TIP3    H238744   5.020   0.781  11.517  0.8927 -0.8226 -0.1833
 5777TIP3   OH238745   2.018   5.490   4.091  0.0317 -0.3934  0.3048
 5777TIP3    H138746   2.004   5.425   4.022  1.2727 -0.2031 -0.1637
 5777TIP3    H238747   2.073   5.446   4.155 -1.6383 -0.7754  1.5273
 5778TIP3   OH238748   1.195   6.014   0.710  0.4556 -0.2942 -0.1631
 5778TIP3    H138749   1.106   6.043   0.729 -0.2833 -0.3163 -3.0544
 5778TIP3    H238750   1.249   6.091   0.725 -0.8284  1.3677 -3.1549
 5779TIP3   OH238751   2.082   3.033   3.278  0.4277  0.2007  0.5982
 5779TIP3    H138752   2.007   3.005   3.226  1.4940  0.1910 -0.9924
 5779TIP3    H238753   2.053   3.023   3.369 -1.2746 -0.3614  0.0281
 5780TIP3   OH238754   1.090   5.931   1.016  0.3935 -0.7938 -0.0281
 5780TIP3    H138755   1.091   6.016   1.059  3.2453 -1.3335  1.1724
 5780TIP3    H238756   1.016   5.936   0.955 -0.4173  1.9690  1.0337
 5781TIP3   OH238757   6.792   6.199   1.686  0.5309  0.0561 -0.3986
 5781TIP3    H138758   6.809   6.276   1.633  0.3361  0.0240 -0.5089
 5781TIP3    H238759   6.878   6.166   1.710  0.6545  1.8898  1.9863
 5782TIP3   OH238760   5.372   1.375  14.871  0.0754  0.2056 -0.2467
 5782TIP3    H138761   5.466   1.388  14.863  0.1504 -0.6503 -0.8762
 5782TIP3    H238762   5.362   1.313  14.943  0.0570 -0.3576 -0.7239
 5783TIP3   OH238763   4.667   4.045   0.674 -0.0420  0.0653 -0.2372
 5783TIP3    H138764   4.760   4.027   0.688 -0.6638 -3.6739  0.3115
 5783TIP3    H238765   4.630   4.054   0.762 -0.3010  1.0293 -0.4351
 5784TIP3   OH238766   1.011   6.814  12.810 -0.2123  0.3243  0.1386
 5784TIP3    H138767   1.083   6.877  12.821  1.7931 -1.1790 -2.9623
 5784TIP3    H238768   0.972   6.836  12.726  0.0486 -2.0034 -0.6741
 5785TIP3   OH238769   2.153   4.084  11.115 -0.5308  0.0501 -0.1996
 5785TIP3    H138770   2.086   4.027  11.152 -0.4603  0.0598 -0.0568
 5785TIP3    H238771   2.175   4.044  11.031  0.1936 -0.6503  0.3154
 5786TIP3   OH238772   1.794   6.742  13.419  0.1633  0.6449  0.4256
 5786TIP3    H138773   1.873   6.723  13.369 -1.1096 -2.4570 -0.6560
 5786TIP3    H238774   1.804   6.693  13.501 -1.5118 -1.8279 -0.7204
 5787TIP3   OH238775   0.758   4.549  10.678 -0.4144  0.0713 -0.3767
 5787TIP3    H138776   0.686   4.595  10.634  0.2396  0.8607 -0.6451
 5787TIP3    H238777   0.719   4.517  10.760 -0.7234  1.7363  0.1685
 5788TIP3   OH238778   3.588   2.352   6.115 -0.1807 -0.2851  0.4268
 5788TIP3    H138779   3.666   2.336   6.169  0.2791  0.8333  0.1202
 5788TIP3    H238780   3.557   2.438   6.144 -0.5814 -0.1812 -0.3024
 5789TIP3   OH238781   0.331   6.544  11.404 -0.2134 -0.3297  0.3158
 5789TIP3    H138782   0.359   6.635  11.392  0.9100 -0.7693 -0.6830
 5789TIP3    H238783   0.255   6.535  11.346 -0.4790  0.0377  0.6045
 5790TIP3   OH238784   3.523   4.122   0.842 -0.6604 -0.6162 -0.2441
 5790TIP3    H138785   3.492   4.033   0.853 -2.2017 -0.4082 -2.3839
 5790TIP3    H238786   3.460   4.176   0.890 -1.8277 -0.4573 -1.8683
 5791TIP3   OH238787   5.218   3.932   3.713  0.6408  0.2241 -0.2487
 5791TIP3    H138788   5.194   3.857   3.658  0.2287  0.1553  0.0207
 5791TIP3    H238789   5.157   4.001   3.688 -0.1679 -0.1013  0.7738
 5792TIP3   OH238790   2.033   2.859  11.697  0.5939 -0.4059 -0.2803
 5792TIP3    H138791   1.963   2.901  11.647  0.5580  0.7012  0.6691
 5792TIP3    H238792   1.990   2.819  11.772  0.7456 -1.4202 -0.7148
 5793TIP3   OH238793   2.237   1.287  15.711  0.1449 -0.2843  0.5836
 5793TIP3    H138794   2.221   1.381  15.708  1.4388  0.0685  2.5567
 5793TIP3    H238795   2.332   1.279  15.703  0.0420 -1.4271  0.3602
 5794TIP3   OH238796   0.031   0.809  14.849  0.3488  0.3583 -0.1137
 5794TIP3    H138797  -0.058   0.800  14.882 -0.3853  0.4276 -1.9721
 5794TIP3    H238798   0.023   0.863  14.771  1.6186 -1.6732 -1.7795
 5795TIP3   OH238799   6.499   5.859  15.673  0.4471 -0.1090  0.2356
 5795TIP3    H138800   6.589   5.864  15.706  0.5974 -0.0087 -0.1749
 5795TIP3    H238801   6.456   5.937  15.706  1.0744  0.8897 -1.1826
 5796TIP3   OH238802   2.582   2.667   1.372  0.2101  0.5120  0.3556
 5796TIP3    H138803   2.497   2.632   1.399 -0.4323  1.6226 -0.1198
 5796TIP3    H238804   2.632   2.591   1.342 -0.6069 -0.1592  0.6568
 5797TIP3   OH238805   4.672   4.310   4.459 -0.3254 -0.1862 -0.7472
 5797TIP3    H138806   4.616   4.362   4.516 -0.7179 -0.5082 -0.8308
 5797TIP3    H238807   4.733   4.267   4.519  1.4013  1.9841 -0.8366
 5798TIP3   OH238808   3.975   5.225  13.569 -0.4961 -0.3632  0.2422
 5798TIP3    H138809   3.972   5.313  13.530  0.1839 -0.8268 -0.9215
 5798TIP3    H238810   3.896   5.219  13.622 -1.0744  0.5798 -0.4841
 5799TIP3   OH238811   2.365   5.586  15.391  0.2369  0.0955  0.1948
 5799TIP3    H138812   2.313   5.583  15.471  0.3238 -0.9653  0.2249
 5799TIP3    H238813   2.445   5.538  15.413  0.2000 -0.3247 -0.5728
 5800TIP3   OH238814   5.022   0.764   0.441 -0.0918  0.1653  0.3687
 5800TIP3    H138815   4.999   0.832   0.376 -0.0686  0.0293  0.2167
 5800TIP3    H238816   5.117   0.773   0.452 -0.1617  0.4882  0.7252
 5801TIP3   OH238817   2.954   0.483   6.081  0.0256  0.0349  0.3404
 5801TIP3    H138818   2.907   0.458   6.161 -1.1388 -0.0328 -0.3394
 5801TIP3    H238819   2.905   0.557   6.047  0.3152 -0.1483 -0.4864
 5802TIP3   OH238820   5.956   3.102  13.731  0.2736 -0.4059 -1.3611
 5802TIP3    H138821   5.949   3.054  13.648  0.8890 -2.4861 -0.2724
 5802TIP3    H238822   6.003   3.182  13.708  0.3902 -0.9021 -3.0173
 5803TIP3   OH238823   0.097   6.130   1.342  0.8029 -1.1681 -0.4559
 5803TIP3    H138824   0.180   6.160   1.379  0.6356 -0.5971 -0.5439
 5803TIP3    H238825   0.101   6.035   1.349  1.1053 -1.1039  0.3254
 5804TIP3   OH238826   2.872   1.778   5.996 -0.2180 -0.4678  0.6574
 5804TIP3    H138827   2.890   1.791   5.903  0.8929 -1.5717  0.6926
 5804TIP3    H238828   2.951   1.808   6.041  0.1384 -1.9799  1.0808
 5805TIP3   OH238829   1.111   1.156  14.579 -0.1898 -0.0717 -0.3422
 5805TIP3    H138830   1.094   1.064  14.558 -0.5854  0.5389 -3.0470
 5805TIP3    H238831   1.205   1.167  14.560  0.5491 -0.4731  2.5883
 5806TIP3   OH238832   3.314   1.218   4.029  0.0795  0.2820  0.1931
 5806TIP3    H138833   3.220   1.214   4.046 -0.0037  1.1163 -0.0268
 5806TIP3    H238834   3.325   1.172   3.945 -0.2648  0.9745 -0.2434
 5807TIP3   OH238835   3.382   5.873  15.174 -0.2843 -0.4652 -0.1569
 5807TIP3    H138836   3.289   5.851  15.182  0.0941 -1.7490  1.0051
 5807TIP3    H238837   3.403   5.920  15.255  0.1777 -0.5602 -0.2194
 5808TIP3   OH238838   2.322   4.462  13.443  0.4136  0.0954 -0.0066
 5808TIP3    H138839   2.380   4.521  13.394  0.4267  0.7478  0.7667
 5808TIP3    H238840   2.243   4.455  13.389  0.7593  0.1101 -0.5250
 5809TIP3   OH238841   1.448   3.199   2.529  0.7324  0.1781  0.1908
 5809TIP3    H138842   1.457   3.116   2.482 -0.0554 -0.5294  1.2291
 5809TIP3    H238843   1.437   3.173   2.621  0.7756  1.4525  0.5782
 5810TIP3   OH238844   2.382   0.204  13.247 -0.2444  0.8678  0.2476
 5810TIP3    H138845   2.468   0.230  13.281  0.1476 -1.4877  1.2282
 5810TIP3    H238846   2.356   0.129  13.300 -2.3871  0.7614 -0.8164
 5811TIP3   OH238847   3.202   3.173   1.561 -0.5571 -0.2652  0.1661
 5811TIP3    H138848   3.283   3.176   1.510  0.2747  0.0161  1.4339
 5811TIP3    H238849   3.226   3.124   1.640 -1.5137  0.1638  0.7398
 5812TIP3   OH238850   3.177   4.997   5.095 -0.0543  0.1185  0.0256
 5812TIP3    H138851   3.146   4.999   5.004 -3.4499  0.2874  1.0410
 5812TIP3    H238852   3.142   5.078   5.133  1.1089 -0.0705  1.5756
 5813TIP3   OH238853   1.758   4.771  13.919 -0.1294  0.0075  0.3498
 5813TIP3    H138854   1.776   4.865  13.928  0.7424 -0.0533 -0.6133
 5813TIP3    H238855   1.843   4.729  13.927 -0.3984 -0.6405 -0.1052
 5814TIP3   OH238856   5.573   5.013  16.245  0.2344 -0.2884 -0.3093
 5814TIP3    H138857   5.600   4.951  16.177 -0.2913 -1.7076  0.7289
 5814TIP3    H238858   5.570   4.961  16.325  1.8115  1.5640  1.0360
 5815TIP3   OH238859   5.945   0.466  15.070  0.1254 -0.1032 -0.5377
 5815TIP3    H138860   6.024   0.412  15.075 -0.0122 -0.4831 -1.9334
 5815TIP3    H238861   5.879   0.417  15.119  0.6873  0.1244  0.4768
 5816TIP3   OH238862   4.416   2.679  13.690  0.2027  0.6901 -0.4426
 5816TIP3    H138863   4.377   2.670  13.777 -2.0716  1.4367 -1.3166
 5816TIP3    H238864   4.454   2.593  13.672  0.4125  0.4184  1.1102
 5817TIP3   OH238865   0.866   0.246   1.890  0.1447 -0.4239  0.3721
 5817TIP3    H138866   0.843   0.276   1.978  0.7369  1.4768 -0.0834
 5817TIP3    H238867   0.922   0.169   1.905 -1.4752 -1.4407  1.5836
 5818TIP3   OH238868   1.028   1.059  16.369  0.6410  0.3839  0.1136
 5818TIP3    H138869   0.944   1.014  16.379  0.5551  0.1058 -1.5249
 5818TIP3    H238870   1.091   1.003  16.414  0.2588 -0.5261 -0.4482
 5819TIP3   OH238871   6.521   6.005   6.121  0.7086 -0.1162  0.0705
 5819TIP3    H138872   6.532   6.013   6.027  0.9421 -0.7238  0.0404
 5819TIP3    H238873   6.535   5.912   6.139 -1.4059 -0.4178  0.4119
 5820TIP3   OH238874   5.918   0.244   5.557  0.4280  0.4479 -0.2362
 5820TIP3    H138875   5.883   0.317   5.609  1.2468  1.4659 -1.0662
 5820TIP3    H238876   5.849   0.178   5.560 -0.3115  1.2246  0.6128
 5821TIP3   OH238877   5.669   6.081   3.004 -0.3030  0.3101  0.1464
 5821TIP3    H138878   5.719   5.999   3.008 -2.2673 -0.9896 -0.4900
 5821TIP3    H238879   5.597   6.068   3.065 -1.6166  0.8506 -1.2313
 5822TIP3   OH238880   4.335   4.185  14.659 -0.6879 -0.5905  0.5239
 5822TIP3    H138881   4.430   4.178  14.644 -0.7358  1.1730 -0.9055
 5822TIP3    H238882   4.307   4.095  14.674  1.3306 -1.0784  1.8567
 5823TIP3   OH238883   5.996   6.299   3.170  1.0805 -0.4779 -0.1405
 5823TIP3    H138884   6.066   6.360   3.194 -0.2490  0.6958  1.0013
 5823TIP3    H238885   5.957   6.273   3.254 -0.6530 -0.0595 -0.7596
 5824TIP3   OH238886   5.859   5.668  14.371 -0.1103 -0.3207 -0.1203
 5824TIP3    H138887   5.939   5.705  14.407 -0.9988  0.5194  1.0595
 5824TIP3    H238888   5.877   5.574  14.364  1.3564 -0.0146 -0.9489
 5825TIP3   OH238889   0.762   3.832  14.613  0.3283 -0.2155 -0.1557
 5825TIP3    H138890   0.699   3.779  14.564  0.9574 -1.7805  0.6442
 5825TIP3    H238891   0.790   3.775  14.685  1.8461  0.8388  0.1343
 5826TIP3   OH238892   3.419   4.607   1.822 -0.3619 -0.0951  0.1055
 5826TIP3    H138893   3.477   4.646   1.887 -0.7937 -0.5561  0.7834
 5826TIP3    H238894   3.477   4.560   1.763  0.4415  3.2570 -2.0604
 5827TIP3   OH238895   5.799   2.631  13.069  0.1920  0.2166  0.1545
 5827TIP3    H138896   5.743   2.685  13.013  0.1483  0.1711  0.1535
 5827TIP3    H238897   5.804   2.547  13.023 -2.4838 -0.9327  1.7418
 5828TIP3   OH238898   0.943   6.422  16.263 -0.2152 -0.1988 -0.3551
 5828TIP3    H138899   0.988   6.342  16.237  1.6337  0.9499 -0.9307
 5828TIP3    H238900   0.934   6.472  16.182 -1.6755  0.0583 -0.0710
 5829TIP3   OH238901   4.802   5.153   3.252  0.2253 -0.0604  0.1634
 5829TIP3    H138902   4.763   5.237   3.276 -0.4008 -0.3987  0.3591
 5829TIP3    H238903   4.877   5.144   3.312  1.2804  1.0847 -0.9215
 5830TIP3   OH238904   4.322   0.217   5.289 -0.0381 -0.2390  0.4019
 5830TIP3    H138905   4.354   0.259   5.368  1.5313  1.1201 -0.8935
 5830TIP3    H238906   4.372   0.135   5.284  0.6497  0.1836  0.2601
 5831TIP3   OH238907   5.778   4.749  16.883  0.0498  0.4452 -0.1475
 5831TIP3    H138908   5.722   4.727  16.808  0.8926 -1.0176 -0.3835
 5831TIP3    H238909   5.841   4.677  16.888  0.7917  1.1491  1.2142
 5832TIP3   OH238910   6.326   2.505  14.081  0.1822 -0.0240  0.4422
 5832TIP3    H138911   6.395   2.444  14.054  0.7284  1.2120 -1.0937
 5832TIP3    H238912   6.322   2.496  14.176  2.3621 -0.2629  0.5612
 5833TIP3   OH238913   5.752   3.906   6.339 -0.2287 -0.1996  0.2730
 5833TIP3    H138914   5.749   3.836   6.273  0.8072  0.2947 -0.3328
 5833TIP3    H238915   5.665   3.905   6.378 -0.9242 -0.4437 -1.1869
 5834TIP3   OH238916   6.623   4.120   2.534  0.1056 -0.0422  0.0008
 5834TIP3    H138917   6.575   4.152   2.611 -0.3346  0.3402 -0.4237
 5834TIP3    H238918   6.641   4.028   2.553  4.1782  1.0509  2.7073
 5835TIP3   OH238919   2.578   4.544  16.747  0.0271  0.5776  0.3728
 5835TIP3    H138920   2.530   4.503  16.819  2.0086 -0.9061  0.9165
 5835TIP3    H238921   2.525   4.620  16.724 -0.4882  1.3488  3.6468
 5836TIP3   OH238922   1.034   4.124  13.830 -0.3617  0.4564  0.2619
 5836TIP3    H138923   0.957   4.083  13.870  0.1984  0.3161  1.2289
 5836TIP3    H238924   1.066   4.186  13.895  0.4014  0.4453 -0.0831
 5837TIP3   OH238925   0.388   6.083   1.454 -0.5028  0.6186  0.0977
 5837TIP3    H138926   0.388   6.017   1.384  0.1616  0.5124  0.1964
 5837TIP3    H238927   0.480   6.101   1.470 -0.6242  0.3079  1.2638
 5838TIP3   OH238928   3.926   6.348   0.316  0.0094  0.4370  0.6985
 5838TIP3    H138929   4.001   6.408   0.324 -0.7524  1.2936  1.5411
 5838TIP3    H238930   3.870   6.369   0.390 -1.3623  0.2092 -0.2403
 5839TIP3   OH238931   6.562   4.175  13.496 -0.0239  0.2794 -0.4103
 5839TIP3    H138932   6.632   4.116  13.524 -2.2144 -1.9708  0.7150
 5839TIP3    H238933   6.606   4.241  13.442  2.7794 -1.5402 -0.5318
 5840TIP3   OH238934   1.951   6.226  13.361  0.2601 -0.4411 -0.1663
 5840TIP3    H138935   1.924   6.155  13.302  1.4372 -0.1476 -1.0900
 5840TIP3    H238936   1.868   6.261  13.395 -0.4961 -0.5056 -1.8029
 5841TIP3   OH238937   4.437   2.751  16.350 -0.1940 -0.3749  0.0475
 5841TIP3    H138938   4.523   2.779  16.320  0.0557 -0.5476  0.6027
 5841TIP3    H238939   4.406   2.823  16.404 -0.5638 -0.1464 -0.4629
 5842TIP3   OH238940   5.487   1.319   5.249 -0.2438  0.3261 -0.2028
 5842TIP3    H138941   5.499   1.309   5.343 -0.4637 -1.4762 -0.3308
 5842TIP3    H238942   5.501   1.412   5.232  3.2677  0.1695  1.1033
 5843TIP3   OH238943   2.978   0.575   0.812 -0.0990 -0.1508  0.3880
 5843TIP3    H138944   2.915   0.617   0.871  1.6106  3.7433 -0.2187
 5843TIP3    H238945   3.052   0.553   0.868  0.8839  2.1158  0.0982
 5844TIP3   OH238946   3.053   1.905   5.122  0.0915 -0.4511 -0.2447
 5844TIP3    H138947   2.973   1.897   5.069 -1.4646 -0.4600  1.9849
 5844TIP3    H238948   3.053   1.995   5.152  0.4405 -0.6937  0.5003
 5845TIP3   OH238949   1.925   6.353  14.178 -0.4354  0.4825 -0.3783
 5845TIP3    H138950   1.856   6.329  14.116  0.3515 -0.7146 -0.8254
 5845TIP3    H238951   1.913   6.293  14.252  0.2148  0.1536 -0.5338
 5846TIP3   OH238952   6.526   3.144   5.391  0.0879  0.3055  0.1788
 5846TIP3    H138953   6.518   3.116   5.300 -2.0717 -0.5220  0.5626
 5846TIP3    H238954   6.610   3.108   5.419  0.4377 -0.0768 -1.2592
 5847TIP3   OH238955   6.167   2.466   3.529  0.7026  0.3411 -0.4457
 5847TIP3    H138956   6.092   2.449   3.472 -0.2902 -2.3945  1.4447
 5847TIP3    H238957   6.129   2.479   3.616  2.3595 -0.7744  0.5076
 5848TIP3   OH238958   3.145   3.965  14.952  0.1039  0.1140  0.4442
 5848TIP3    H138959   3.111   3.889  14.904  2.2889 -1.0449  0.6150
 5848TIP3    H238960   3.200   3.928  15.021  0.8572  1.8552  0.8455
 5849TIP3   OH238961   2.982   4.922  14.776  0.5703  0.2570 -0.2999
 5849TIP3    H138962   2.956   4.848  14.832  0.2625 -0.3654 -1.2452
 5849TIP3    H238963   2.899   4.964  14.753  0.6638  0.2650 -0.6188
 5850TIP3   OH238964   3.657   3.892  13.097 -0.0221  0.0602 -0.4413
 5850TIP3    H138965   3.672   3.898  13.003  3.6413  2.1032  0.0594
 5850TIP3    H238966   3.667   3.799  13.118  3.2019 -0.0261 -1.7173
 5851TIP3   OH238967   6.065   5.248  16.884 -0.1920  0.0826 -0.2837
 5851TIP3    H138968   6.146   5.272  16.838 -1.2964 -0.2054 -2.5306
 5851TIP3    H238969   6.027   5.332  16.910  1.6998  0.1785  2.5877
 5852TIP3   OH238970   3.942   4.329   4.582  0.3628  0.4974  0.7869
 5852TIP3    H138971   3.856   4.366   4.601  0.6188  1.0151  0.9599
 5852TIP3    H238972   3.978   4.309   4.669 -0.1598 -1.0888  0.6786
 5853TIP3   OH238973   3.326   6.469   2.162 -0.1004  0.2130 -0.4062
 5853TIP3    H138974   3.283   6.549   2.132  1.0708  0.6992 -0.8529
 5853TIP3    H238975   3.305   6.403   2.096  0.4913  0.6610 -1.0589
 5854TIP3   OH238976   0.087   4.628  16.041  0.3669 -0.0944 -0.2740
 5854TIP3    H138977   0.178   4.611  16.064 -0.3479 -1.6284  1.6800
 5854TIP3    H238978   0.051   4.674  16.117 -0.7924 -0.6104 -0.4884
 5855TIP3   OH238979   4.473   3.696  11.291 -0.0473 -0.3815  0.0474
 5855TIP3    H138980   4.474   3.792  11.290  1.5268 -0.3819 -0.3721
 5855TIP3    H238981   4.490   3.673  11.382 -0.0708 -0.2576  0.0836
 5856TIP3   OH238982   1.460   4.786   5.351  0.4447  0.2559 -0.0581
 5856TIP3    H138983   1.376   4.797   5.396  0.8430 -2.8896  1.7459
 5856TIP3    H238984   1.526   4.793   5.420  1.4370 -0.2982 -0.9183
 5857TIP3   OH238985   1.599   1.371  12.194  0.0283 -0.0061 -0.2767
 5857TIP3    H138986   1.552   1.302  12.241  1.2046 -0.7437 -0.1576
 5857TIP3    H238987   1.557   1.373  12.107 -0.4376 -0.4158 -0.0664
 5858TIP3   OH238988   2.341   4.643   4.534  0.5219 -0.7973 -0.2019
 5858TIP3    H138989   2.275   4.707   4.506  1.0845 -0.0839  0.0679
 5858TIP3    H238990   2.329   4.569   4.475 -1.6320 -1.3881  0.8614
 5859TIP3   OH238991   4.721   5.780   1.519 -0.1454  0.5711 -0.1906
 5859TIP3    H138992   4.803   5.828   1.529  0.3224  0.5383 -3.1501
 5859TIP3    H238993   4.744   5.704   1.465 -1.8061 -0.3979  0.3997
 5860TIP3   OH238994   4.450   5.475  14.846 -0.1901  0.0114  0.0339
 5860TIP3    H138995   4.412   5.389  14.826 -0.0058  0.0218 -0.3590
 5860TIP3    H238996   4.543   5.466  14.825 -0.4352  0.7524 -1.4512
 5861TIP3   OH238997   6.502   0.136  14.449  0.2089 -0.5957 -0.1562
 5861TIP3    H138998   6.432   0.156  14.387 -1.4404  0.4769  1.9609
 5861TIP3    H238999   6.547   0.219  14.462  0.4301 -0.7717  0.2181
 5862TIP3   OH239000   2.954   1.485  12.409  0.1116 -0.1445  0.6035
 5862TIP3    H139001   2.958   1.571  12.368  0.6408  0.2065  1.3662
 5862TIP3    H239002   2.867   1.480  12.448  0.3558  0.3672  1.2241
 5863TIP3   OH239003   5.921   1.727   1.128  0.0859  0.2794  0.4242
 5863TIP3    H139004   5.951   1.756   1.041  1.8087  0.1886  0.9540
 5863TIP3    H239005   5.845   1.673   1.110  1.5178 -1.3306 -1.2372
 5864TIP3   OH239006   2.840   6.544   1.952  0.5302 -0.1111 -0.1085
 5864TIP3    H139007   2.844   6.474   1.886  1.7435  0.9873 -1.2727
 5864TIP3    H239008   2.750   6.576   1.948  0.5819 -0.0734 -1.2358
 5865TIP3   OH239009   5.257   3.559  13.164  0.5774  0.1659  0.8770
 5865TIP3    H139010   5.221   3.598  13.244  0.4088 -0.5477  1.1604
 5865TIP3    H239011   5.285   3.633  13.111 -0.7839  0.7214  0.9013
 5866TIP3   OH239012   6.078   0.143   2.790  0.1079  0.1584  0.4190
 5866TIP3    H139013   6.059   0.050   2.777  0.5356 -0.0588  1.2482
 5866TIP3    H239014   6.076   0.154   2.885  1.5753  0.6641  0.4104
 5867TIP3   OH239015   0.681   1.757   5.841 -0.0790 -0.1033 -0.6269
 5867TIP3    H139016   0.751   1.822   5.845  1.0209 -1.2287 -0.8358
 5867TIP3    H239017   0.691   1.706   5.922 -1.4340  0.4685 -0.0743
 5868TIP3   OH239018   2.071   4.303   4.729  0.3791 -0.2887  0.2847
 5868TIP3    H139019   2.138   4.237   4.749 -0.7764 -1.7730 -0.5055
 5868TIP3    H239020   2.027   4.268   4.651 -1.6291  0.3774  1.0712
 5869TIP3   OH239021   0.286   3.191  15.333  0.1049 -0.2153 -0.4465
 5869TIP3    H139022   0.269   3.231  15.418  0.4418 -0.8726 -0.0598
 5869TIP3    H239023   0.381   3.181  15.330  0.0169 -1.1693 -0.4383
 5870TIP3   OH239024   3.436   2.786   6.376 -0.7134  0.6013  0.8009
 5870TIP3    H139025   3.476   2.866   6.410 -2.7898  1.6271  1.0222
 5870TIP3    H239026   3.509   2.735   6.342  0.8470  1.9016  2.0327
 5871TIP3   OH239027   6.752   6.777   4.470 -0.4978  0.7001  0.6245
 5871TIP3    H139028   6.678   6.832   4.495  0.3569  2.5341 -0.6049
 5871TIP3    H239029   6.812   6.781   4.545 -1.6547 -0.9090  1.6808
 5872TIP3   OH239030   3.578   0.115  11.218 -0.0241  0.0179  0.2879
 5872TIP3    H139031   3.577   0.045  11.153 -3.7052 -0.4560  0.6936
 5872TIP3    H239032   3.594   0.194  11.167 -0.3727 -0.6023 -0.8172
 5873TIP3   OH239033   5.282   0.617  13.633 -0.0066  0.2156 -0.0622
 5873TIP3    H139034   5.253   0.657  13.551  0.7782  0.0185 -0.4453
 5873TIP3    H239035   5.249   0.528  13.630  0.2764  0.1160 -0.3112
 5874TIP3   OH239036   4.471   5.691   5.322 -0.1523  0.2791  0.0726
 5874TIP3    H139037   4.468   5.699   5.417  1.3148 -0.9556  0.2655
 5874TIP3    H239038   4.536   5.623   5.306  2.5377  3.0675 -1.9399
 5875TIP3   OH239039   0.717   4.847   2.974  0.6314  0.6126 -0.0799
 5875TIP3    H139040   0.743   4.774   2.919  0.2215 -0.7910  1.5194
 5875TIP3    H239041   0.653   4.896   2.922  1.4984  0.3164 -1.4661
 5876TIP3   OH239042   6.055   1.407  10.902  0.7014  0.2762  0.1157
 5876TIP3    H139043   6.009   1.369  10.977  1.0501 -1.9920 -0.7286
 5876TIP3    H239044   6.130   1.349  10.888 -1.0211 -1.3825 -3.8259
 5877TIP3   OH239045   6.749   5.605  13.469  0.7847  0.3787  0.4594
 5877TIP3    H139046   6.782   5.665  13.402 -1.9069  3.6361  1.7593
 5877TIP3    H239047   6.675   5.651  13.508  0.5892 -2.4452  3.9328
 5878TIP3   OH239048   3.117   5.876  12.195  0.4307 -0.4596  0.2802
 5878TIP3    H139049   3.192   5.861  12.253  0.3154 -3.1956 -0.1367
 5878TIP3    H239050   3.052   5.920  12.250  1.0989 -1.1122  1.6471
 5879TIP3   OH239051   1.303   5.169  13.769 -0.4460 -0.1039  0.4838
 5879TIP3    H139052   1.246   5.112  13.717 -1.6344 -0.0704  1.7031
 5879TIP3    H239053   1.265   5.256  13.760  0.6523  0.3192 -0.3695
 5880TIP3   OH239054   3.720   2.797  16.799  0.3471 -0.7091 -0.1154
 5880TIP3    H139055   3.768   2.854  16.739  0.0612  0.4988  0.7670
 5880TIP3    H239056   3.656   2.854  16.841 -0.7091 -1.9243 -0.0068
 5881TIP3   OH239057   4.789   4.108  10.540  0.6818  0.2210 -0.0116
 5881TIP3    H139058   4.872   4.060  10.544  0.5520 -0.1624 -1.3880
 5881TIP3    H239059   4.814   4.196  10.513  0.7035  0.3329  0.3600
 5882TIP3   OH239060   0.552   2.058   1.760 -0.4380 -0.5418  0.0294
 5882TIP3    H139061   0.519   2.133   1.709 -0.1679  0.5659  1.4156
 5882TIP3    H239062   0.597   2.098   1.834  0.9292 -2.0801  0.0807
 5883TIP3   OH239063   3.900   3.234   3.305 -0.0526 -0.2002 -0.2865
 5883TIP3    H139064   3.931   3.145   3.321  0.7452 -0.0561 -0.9340
 5883TIP3    H239065   3.873   3.234   3.213  1.5905  0.6544 -0.8150
 5884TIP3   OH239066   1.351   0.086   4.973 -0.0517 -0.4586  0.4311
 5884TIP3    H139067   1.315   0.060   4.889 -3.3924 -0.6140  1.7554
 5884TIP3    H239068   1.402   0.010   5.002  0.4347 -0.7161 -1.0078
 5885TIP3   OH239069   2.858   0.191   6.157 -0.0010 -0.4998 -0.1298
 5885TIP3    H139070   2.853   0.258   6.225 -0.4662 -0.4760 -0.1859
 5885TIP3    H239071   2.774   0.145   6.162  0.2177 -0.9158 -0.2587
 5886TIP3   OH239072   5.055   5.017  13.420 -0.2021 -0.2180  0.1147
 5886TIP3    H139073   5.011   5.007  13.336  0.2073 -1.0920 -0.0043
 5886TIP3    H239074   5.108   5.096  13.410  0.8000 -0.9891 -0.8891
 5887TIP3   OH239075   4.358   0.850  16.028  0.4726 -0.1230  0.4266
 5887TIP3    H139076   4.313   0.850  16.112 -1.1474 -1.2047 -0.3845
 5887TIP3    H239077   4.338   0.936  15.991 -1.6599 -0.8262 -0.2211
 5888TIP3   OH239078   2.849   0.661   4.532 -0.6730 -0.2745  0.2595
 5888TIP3    H139079   2.833   0.668   4.626  1.5342 -2.2544  0.8536
 5888TIP3    H239080   2.922   0.720   4.516 -1.4660  0.5665 -0.3918
 5889TIP3   OH239081   5.149   0.529  15.185  0.3537 -0.3908 -0.2068
 5889TIP3    H139082   5.185   0.470  15.251  1.0899 -0.9009 -1.0334
 5889TIP3    H239083   5.055   0.527  15.201  0.5568 -0.0863  1.1473
 5890TIP3   OH239084   5.304   2.395  13.238 -0.2184  0.0400 -0.0295
 5890TIP3    H139085   5.269   2.311  13.206 -0.9792  0.5713 -0.6232
 5890TIP3    H239086   5.257   2.461  13.187  2.7100  0.7907 -2.0394
 5891TIP3   OH239087   6.266   0.926  14.522  0.4482 -0.8555  0.0767
 5891TIP3    H139088   6.251   0.839  14.558  2.4527 -1.8280 -1.2696
 5891TIP3    H239089   6.357   0.925  14.493  0.2822  1.4298 -0.7074
 5892TIP3   OH239090   5.199   2.431   6.223  0.1536  0.4686 -0.6013
 5892TIP3    H139091   5.202   2.518   6.264 -1.5439 -0.4707  1.7372
 5892TIP3    H239092   5.141   2.443   6.148 -0.6888  1.2188  0.1372
 5893TIP3   OH239093   5.415   2.486   2.027 -0.1422 -0.0817  0.5157
 5893TIP3    H139094   5.494   2.532   2.000 -1.0067  1.2381  0.1417
 5893TIP3    H239095   5.358   2.489   1.950 -0.3384 -1.5932  0.5590
 5894TIP3   OH239096   5.570   2.901   1.385  0.5092  0.0544  0.3480
 5894TIP3    H139097   5.624   2.907   1.463  1.4760  0.1674 -0.3106
 5894TIP3    H239098   5.598   2.974   1.330  0.6697 -0.7006 -0.6036
 5895TIP3   OH239099   2.414   1.958  16.334 -0.2633  0.1352  0.1331
 5895TIP3    H139100   2.471   2.006  16.274  0.3564 -2.0368 -1.1270
 5895TIP3    H239101   2.383   2.024  16.396  0.0254  2.2479 -1.8452
 5896TIP3   OH239102   1.928   5.681   4.296  0.7290  1.1050  0.2071
 5896TIP3    H139103   2.002   5.660   4.353  0.7978 -0.7861 -0.5091
 5896TIP3    H239104   1.944   5.632   4.216 -0.9225  1.2548 -0.2655
 5897TIP3   OH239105   5.614   5.955  10.999  0.5034 -0.0555  0.0812
 5897TIP3    H139106   5.689   5.910  10.959  1.1868  0.9723  0.1630
 5897TIP3    H239107   5.584   5.896  11.067  0.3356 -1.1177 -0.8806
 5898TIP3   OH239108   0.562   2.726  16.678 -0.7183 -0.1469 -0.5012
 5898TIP3    H139109   0.622   2.701  16.609 -0.9314  0.9303 -1.0977
 5898TIP3    H239110   0.482   2.676  16.661 -0.0148 -1.6110  0.3166
 5899TIP3   OH239111   1.771   4.973   2.640  0.1920  0.2928  0.3480
 5899TIP3    H139112   1.746   4.891   2.683 -1.1986  0.3343 -0.3359
 5899TIP3    H239113   1.786   5.034   2.713  2.2131 -0.7711  0.9108
 5900TIP3   OH239114   5.846   1.791   6.381  0.4704 -0.4731  0.5597
 5900TIP3    H139115   5.807   1.807   6.467  0.4530 -0.1150  0.4837
 5900TIP3    H239116   5.852   1.695   6.375 -2.3454 -0.6802 -0.2973
 5901TIP3   OH239117   2.213   2.987   5.664  0.0772 -0.2995  0.4923
 5901TIP3    H139118   2.202   2.966   5.757 -0.3147 -2.4947 -0.0007
 5901TIP3    H239119   2.124   3.003   5.633  0.0504 -0.9500  0.2158
 5902TIP3   OH239120   6.281   1.211  14.573 -0.0049 -0.6319  0.5505
 5902TIP3    H139121   6.349   1.183  14.634 -1.0601 -0.4985  1.8533
 5902TIP3    H239122   6.219   1.138  14.572 -0.3511 -0.3355  0.2001
 5903TIP3   OH239123   2.911   2.295  15.727 -0.1100  0.0335 -0.3377
 5903TIP3    H139124   2.842   2.293  15.661  0.7132  1.0419 -1.2673
 5903TIP3    H239125   2.965   2.371  15.704  0.5072  0.1094  1.1931
 5904TIP3   OH239126   5.657   5.679   3.630  0.2335 -0.2899  0.4036
 5904TIP3    H139127   5.702   5.678   3.715 -0.1977 -0.7152  0.6320
 5904TIP3    H239128   5.714   5.626   3.573 -1.0966 -2.8672  1.3045
 5905TIP3   OH239129   3.464   6.164  13.346  0.3734 -0.6246  0.3488
 5905TIP3    H139130   3.418   6.090  13.386 -0.6901 -0.0975  0.1149
 5905TIP3    H239131   3.415   6.184  13.267  0.3275  0.6779  0.6777
 5906TIP3   OH239132   2.798   4.588  11.427 -0.1720 -0.4333 -0.1899
 5906TIP3    H139133   2.889   4.614  11.440 -0.3670 -0.2804  0.9201
 5906TIP3    H239134   2.799   4.492  11.428  0.0912 -0.4437 -1.0425
 5907TIP3   OH239135   4.652   4.378  15.628  0.4194 -0.5083  0.0869
 5907TIP3    H139136   4.698   4.393  15.546  1.2153  0.2096  0.6486
 5907TIP3    H239137   4.718   4.392  15.696 -0.4481 -0.1555  0.8840
 5908TIP3   OH239138   0.590   3.232   0.367  0.0885 -0.0225  0.4000
 5908TIP3    H139139   0.613   3.206   0.278 -0.5743  1.7898 -0.3425
 5908TIP3    H239140   0.627   3.319   0.377 -1.5135  0.6006  1.1937
 5909TIP3   OH239141   4.309   1.367   1.409  0.4074  0.0097  0.1251
 5909TIP3    H139142   4.259   1.413   1.476  0.0448  1.0876 -0.8587
 5909TIP3    H239143   4.268   1.281   1.404 -0.7806  0.5570 -0.0125
 5910TIP3   OH239144   3.172   4.970  11.342 -0.2339  0.0704  0.2981
 5910TIP3    H139145   3.171   5.065  11.355 -1.2498  0.1006  0.0673
 5910TIP3    H239146   3.263   4.950  11.323  0.5063  0.6587  2.7741
 5911TIP3   OH239147   1.744   4.706   4.969 -0.3149  0.1638 -0.0638
 5911TIP3    H139148   1.695   4.776   4.925 -1.0114 -0.8703 -0.9757
 5911TIP3    H239149   1.676   4.646   5.000  0.2226  0.3095  1.4997
 5912TIP3   OH239150   5.122   1.225   0.183 -0.1667 -0.2711  0.0735
 5912TIP3    H139151   5.118   1.177   0.265  0.4970  3.2201  2.3381
 5912TIP3    H239152   5.049   1.287   0.187  1.9618  2.4306 -0.1778
 5913TIP3   OH239153   0.710   6.269  16.275 -0.0217  0.7433  0.2183
 5913TIP3    H139154   0.686   6.259  16.184  0.8973  1.2051 -0.0912
 5913TIP3    H239155   0.804   6.288  16.273  0.6744 -2.0429  1.3828
 5914TIP3   OH239156   2.966   0.293   0.367  0.3578 -0.4729 -0.8514
 5914TIP3    H139157   2.901   0.351   0.406 -1.4144 -1.2820 -2.4832
 5914TIP3    H239158   2.977   0.324   0.278 -0.0485 -2.1341 -1.5187
 5915TIP3   OH239159   3.236   0.893   0.495  0.4049  0.1649  0.6631
 5915TIP3    H139160   3.147   0.925   0.476  0.6448  0.7267  0.4553
 5915TIP3    H239161   3.229   0.798   0.492  0.2425  0.1995 -1.3934
 5916TIP3   OH239162   3.314   6.313  14.395 -0.0981  0.3969  0.2096
 5916TIP3    H139163   3.409   6.314  14.396 -0.0610  2.2452  1.7442
 5916TIP3    H239164   3.290   6.396  14.353 -1.0384 -0.0539 -0.1732
 5917TIP3   OH239165   0.231   1.031   2.155 -0.1339  0.1288 -0.2393
 5917TIP3    H139166   0.212   1.101   2.218  1.0215  0.6123 -0.4007
 5917TIP3    H239167   0.309   0.989   2.190 -0.4881 -0.7144 -0.4546
 5918TIP3   OH239168   6.558   3.210  12.539  1.2207 -0.7244  0.1942
 5918TIP3    H139169   6.560   3.305  12.543 -0.2068 -0.7016  1.2992
 5918TIP3    H239170   6.604   3.181  12.618  1.6810 -0.9458 -0.1537
 5919TIP3   OH239171   5.408   5.387  12.917  0.1550  0.1474 -0.0475
 5919TIP3    H139172   5.442   5.308  12.959  0.7053  0.8550  0.8869
 5919TIP3    H239173   5.313   5.376  12.919  0.1447  0.3214  1.7605
 5920TIP3   OH239174   1.523   3.171   5.120  0.0379 -0.1392 -0.0251
 5920TIP3    H139175   1.539   3.228   5.045  1.1447 -0.9347 -0.4267
 5920TIP3    H239176   1.551   3.084   5.090  0.0448 -0.5648  1.1570
 5921TIP3   OH239177   5.701   0.708   4.196 -0.5642  0.3114  0.4040
 5921TIP3    H139178   5.691   0.796   4.159 -0.5504 -0.5232 -1.7274
 5921TIP3    H239179   5.612   0.674   4.200 -0.3213 -0.7469 -1.9533
 5922TIP3   OH239180   2.175   4.057  14.806 -0.0090 -0.0597  0.2853
 5922TIP3    H139181   2.183   4.108  14.886 -1.9583 -1.9936  1.8176
 5922TIP3    H239182   2.094   4.007  14.816  1.2588 -2.7296 -1.4903
 5923TIP3   OH239183   4.502   2.351  17.122 -0.5147 -0.1199 -0.1184
 5923TIP3    H139184   4.469   2.284  17.182 -0.7726 -0.6415 -0.8225
 5923TIP3    H239185   4.596   2.334  17.117 -0.4525  0.0864  0.3343
 5924TIP3   OH239186   3.510   2.280  10.851 -0.1887  0.2677  0.4336
 5924TIP3    H139187   3.568   2.244  10.784  0.9312  1.1218  0.9238
 5924TIP3    H239188   3.496   2.207  10.912 -0.1064 -0.1041  0.0167
 5925TIP3   OH239189   0.798   5.759  14.904 -0.4871  0.0912  0.4584
 5925TIP3    H139190   0.862   5.818  14.865  0.2954 -0.9256  0.1458
 5925TIP3    H239191   0.771   5.702  14.831  0.4441 -1.3591  1.2001
 5926TIP3   OH239192   5.645   6.667   1.321  0.2255 -0.9058  0.1757
 5926TIP3    H139193   5.712   6.598   1.324  0.4476 -0.8827 -2.4171
 5926TIP3    H239194   5.694   6.746   1.299 -0.4351 -0.5023  0.1522
 5927TIP3   OH239195   2.366   4.068   5.114 -0.1794  0.3106 -0.4916
 5927TIP3    H139196   2.294   4.122   5.082  0.7704  1.8758 -0.0773
 5927TIP3    H239197   2.424   4.058   5.038  0.0932  0.6353 -0.3256
 5928TIP3   OH239198   5.258   6.636   0.039  0.1956  0.5798 -0.3583
 5928TIP3    H139199   5.353   6.643   0.049  0.7976 -3.6131 -1.4776
 5928TIP3    H239200   5.225   6.620   0.127  0.4257  2.2142  0.0601
 5929TIP3   OH239201   3.252   6.371  15.582 -0.5177 -0.5001  0.0948
 5929TIP3    H139202   3.324   6.309  15.571  0.4355  0.3080  1.3481
 5929TIP3    H239203   3.296   6.456  15.586 -1.6606  0.1105 -0.2061
 5930TIP3   OH239204   0.293   4.536   5.790  0.0444 -0.3509 -0.0552
 5930TIP3    H139205   0.389   4.536   5.788  0.0853  1.0413  0.4173
 5930TIP3    H239206   0.270   4.625   5.818 -1.3543 -1.0856  1.3028
 5931TIP3   OH239207   0.107   4.105   5.680 -0.0264  0.7589  0.3312
 5931TIP3    H139208   0.148   4.167   5.620 -0.5246  0.6162 -0.1678
 5931TIP3    H239209   0.179   4.049   5.708  0.1359  0.5026 -0.5438
 5932TIP3   OH239210   0.949   1.506  13.733  0.0626  0.4315 -0.1244
 5932TIP3    H139211   0.896   1.489  13.655  1.1341  0.0490 -0.8021
 5932TIP3    H239212   1.000   1.426  13.745  2.6381  1.7637 -1.2645
 5933TIP3   OH239213   1.509   3.942  16.961  0.6167  0.2816 -0.5068
 5933TIP3    H139214   1.506   3.893  16.878  0.9062 -2.0509  0.7650
 5933TIP3    H239215   1.602   3.946  16.983  0.3993 -1.6612  1.0362
 5934TIP3   OH239216   5.630   5.940   1.304 -0.4881  0.4445 -0.1302
 5934TIP3    H139217   5.637   6.012   1.367 -1.3602  0.3064  0.1336
 5934TIP3    H239218   5.539   5.912   1.310 -0.3709 -0.1104 -0.8675
 5935TIP3   OH239219   3.885   6.265   3.911  0.2373 -0.2759 -0.4297
 5935TIP3    H139220   3.978   6.261   3.887  0.1781  1.6295 -1.1644
 5935TIP3    H239221   3.878   6.344   3.964 -0.7643 -1.1118  0.7435
 5936TIP3   OH239222   0.993   0.549   1.130  0.2695  0.2386  0.0566
 5936TIP3    H139223   1.089   0.549   1.130  0.2968 -0.7305  1.2249
 5936TIP3    H239224   0.969   0.456   1.131 -0.6734  0.4755  0.2056
 5937TIP3   OH239225   3.035   4.244  16.868 -0.0968 -0.4385  0.6313
 5937TIP3    H139226   3.092   4.191  16.923  0.5421  0.7278  1.1309
 5937TIP3    H239227   3.026   4.194  16.787  2.6641 -0.1352  0.0327
 5938TIP3   OH239228   6.616   2.303  11.352  0.3922  0.7649 -0.4308
 5938TIP3    H139229   6.694   2.255  11.379 -0.3678  0.6672  1.7911
 5938TIP3    H239230   6.571   2.244  11.291 -0.2621 -1.2606  1.8426
 5939TIP3   OH239231   6.348   6.807   3.816 -0.1032 -0.1410 -0.0752
 5939TIP3    H139232   6.401   6.823   3.894 -1.5721  0.8921  0.7377
 5939TIP3    H239233   6.274   6.755   3.847  0.0936 -1.0558 -1.0852
 5940TIP3   OH239234   0.758   5.458   2.526 -0.7803 -0.1818 -0.5052
 5940TIP3    H139235   0.774   5.367   2.502 -1.8977 -0.6267  0.3460
 5940TIP3    H239236   0.801   5.468   2.611 -0.5291  0.1200 -0.6704
 5941TIP3   OH239237   0.377   3.274   1.719  0.9497 -0.0113  0.1396
 5941TIP3    H139238   0.368   3.331   1.643  0.0628 -0.5742 -0.2017
 5941TIP3    H239239   0.367   3.332   1.795 -2.6331  0.0332 -0.1682
 5942TIP3   OH239240   6.108   2.911   3.932 -0.6102  0.1025  0.9891
 5942TIP3    H139241   6.034   2.969   3.913 -0.7001 -0.4852 -0.5838
 5942TIP3    H239242   6.087   2.872   4.017 -1.3165  1.1376  1.3191
 5943TIP3   OH239243   4.342   0.456  16.254  0.3237  0.5052  0.1334
 5943TIP3    H139244   4.308   0.368  16.270  2.0859 -0.2937 -0.3379
 5943TIP3    H239245   4.413   0.444  16.191  2.1882  1.9282  1.8250
 5944TIP3   OH239246   4.405   3.693  11.798  0.2517  0.6096 -0.2367
 5944TIP3    H139247   4.316   3.712  11.829  0.0097  1.1655 -1.2086
 5944TIP3    H239248   4.455   3.675  11.877 -0.2930  2.1524  0.5005
 5945TIP3   OH239249   5.170   4.962   5.322 -0.6031  0.0423 -0.3556
 5945TIP3    H139250   5.156   4.923   5.408 -3.4036  1.3088 -0.1243
 5945TIP3    H239251   5.147   4.893   5.260 -0.5118 -0.2660 -0.0448
 5946TIP3   OH239252   6.134   0.316   4.350  0.3463 -0.6025  0.8270
 5946TIP3    H139253   6.114   0.394   4.402  2.0118 -0.4631  1.3056
 5946TIP3    H239254   6.088   0.245   4.394  0.3245 -0.1952  1.4724
 5947TIP3   OH239255   3.922   6.759  16.676 -0.5459 -0.3733 -0.4738
 5947TIP3    H139256   4.017   6.747  16.673 -0.3558  0.9286 -0.1543
 5947TIP3    H239257   3.905   6.830  16.615 -1.3905 -0.9277 -0.9044
 5948TIP3   OH239258   2.858   0.410   2.842  0.1720  0.3173 -0.3306
 5948TIP3    H139259   2.894   0.395   2.754  1.0612 -0.7870  0.1914
 5948TIP3    H239260   2.806   0.331   2.859  0.1572  0.4436  0.2025
 5949TIP3   OH239261   1.951   3.549   1.714  0.4003  0.3591  0.0210
 5949TIP3    H139262   1.988   3.521   1.797  1.6592  2.6796  0.3226
 5949TIP3    H239263   1.856   3.548   1.728  0.6070  1.6503  1.8799
 5950TIP3   OH239264   2.128   3.579  12.957 -0.4765  0.5886  0.7092
 5950TIP3    H139265   2.126   3.672  12.979  1.3730  0.6059  0.9719
 5950TIP3    H239266   2.083   3.535  13.029 -0.8637  1.2252  0.8601
 5951TIP3   OH239267   2.585   1.702  12.818 -0.6010  0.2146  0.6412
 5951TIP3    H139268   2.539   1.785  12.809 -1.1839 -0.1699  0.0069
 5951TIP3    H239269   2.639   1.713  12.897 -1.2819  0.9025  1.0237
 5952TIP3   OH239270   4.937   4.112  16.670 -0.1329 -0.2224 -0.0434
 5952TIP3    H139271   5.016   4.119  16.723  0.1266  0.2412 -0.4890
 5952TIP3    H239272   4.866   4.139  16.728  0.0622 -0.4109  0.2832
 5953TIP3   OH239273   4.276   0.696  16.991  0.0981  0.4747  0.3319
 5953TIP3    H139274   4.290   0.638  16.916  1.0571  2.5024 -1.1606
 5953TIP3    H239275   4.353   0.753  16.992 -1.0022  2.0228  1.4091
 5954TIP3   OH239276   6.172   4.084   6.069 -0.3932 -0.3711 -0.0466
 5954TIP3    H139277   6.187   4.175   6.095 -1.9676 -0.2562  0.5025
 5954TIP3    H239278   6.233   4.033   6.123 -0.5249  0.2402  0.6909
 5955TIP3   OH239279   1.365   6.740   1.180 -0.4298  0.2808 -0.3042
 5955TIP3    H139280   1.312   6.717   1.256 -3.7902  2.2527 -1.8267
 5955TIP3    H239281   1.429   6.802   1.213 -2.0548  1.3802  0.9183
 5956TIP3   OH239282   1.999   0.713   1.254  0.4405  0.1113 -0.0769
 5956TIP3    H139283   1.942   0.788   1.234 -0.6939 -0.7592 -0.2549
 5956TIP3    H239284   1.952   0.638   1.218  0.6892 -0.9104  1.6265
 5957TIP3   OH239285   0.433   1.436   4.420  0.7415 -0.6697 -0.2823
 5957TIP3    H139286   0.451   1.426   4.513  1.1008  0.5275 -0.1999
 5957TIP3    H239287   0.428   1.347   4.386 -0.5088 -1.1578  1.0870
 5958TIP3   OH239288   1.168   5.059  16.917  0.0869  0.1622 -0.5880
 5958TIP3    H139289   1.224   5.022  16.985 -1.3304 -0.6450  0.1770
 5958TIP3    H239290   1.186   5.153  16.918  0.8167  0.0191  0.2001
 5959TIP3   OH239291   3.791   2.790   1.646  0.0403 -0.0737 -0.0034
 5959TIP3    H139292   3.855   2.718   1.645 -0.5547 -0.6217  0.2038
 5959TIP3    H239293   3.797   2.830   1.560  1.3564  0.5150  0.3371
 5960TIP3   OH239294   3.533   6.550  16.842  0.8175  0.3799 -0.5458
 5960TIP3    H139295   3.623   6.519  16.853  0.3603 -0.5843  0.9149
 5960TIP3    H239296   3.493   6.487  16.782  1.2444  1.1254 -1.6339
 5961TIP3   OH239297   0.036   0.684  17.007 -0.3037  0.3951 -0.0372
 5961TIP3    H139298  -0.044   0.700  17.057 -0.3945  0.2644 -0.1389
 5961TIP3    H239299   0.018   0.718  16.920 -0.8907 -1.1786 -0.5732
 5962TIP3   OH239300   0.056   6.794  12.224  0.0394 -0.0344 -0.2859
 5962TIP3    H139301   0.045   6.887  12.243 -1.1223 -0.0684 -0.6909
 5962TIP3    H239302   0.010   6.750  12.295  0.1811 -0.2951 -0.3550
 5963TIP3   OH239303   1.287   4.150   1.584 -0.0901  0.5832  0.2663
 5963TIP3    H139304   1.253   4.083   1.525  0.2928  0.0336  0.6598
 5963TIP3    H239305   1.270   4.116   1.672 -0.7272  1.4318  0.4847
 5964TIP3   OH239306   3.073   5.584  16.252 -0.2808  0.2823  0.0258
 5964TIP3    H139307   3.056   5.602  16.159 -0.2471 -1.3133 -0.3116
 5964TIP3    H239308   3.027   5.502  16.270  3.0454 -1.6959  0.2911
 5965TIP3   OH239309   5.535   2.152   3.896 -0.0145  0.1895  0.1348
 5965TIP3    H139310   5.534   2.063   3.862 -0.6002  0.5419 -0.7940
 5965TIP3    H239311   5.547   2.141   3.991  0.8276 -0.8289 -0.0757
 5966TIP3   OH239312   0.142   2.932   4.793 -0.0060  0.4922  0.7155
 5966TIP3    H139313   0.197   2.857   4.815  1.3701  1.3455  0.2492
 5966TIP3    H239314   0.203   3.000   4.765 -1.1833  1.9844  1.6221
 5967TIP3   OH239315   6.274   5.207   0.306  0.5300  0.1978 -0.0596
 5967TIP3    H139316   6.273   5.125   0.356 -0.8247  0.0860 -0.2247
 5967TIP3    H239317   6.181   5.225   0.289  0.8362  1.6077 -0.2935
 5968TIP3   OH239318   5.160   4.473  12.382 -0.7508 -0.4167 -0.0530
 5968TIP3    H139319   5.064   4.480  12.385 -0.8254 -1.3979  0.2424
 5968TIP3    H239320   5.177   4.379  12.373  0.1761 -0.1880 -0.9544
 5969TIP3   OH239321   4.689   5.604  14.537 -0.3243  0.5811  0.0300
 5969TIP3    H139322   4.661   5.602  14.629 -1.1593  2.0972 -0.1738
 5969TIP3    H239323   4.778   5.567  14.539 -0.3980  0.4176  1.4157
 5970TIP3   OH239324   4.103   3.262  14.589 -0.6548  0.1007 -0.1078
 5970TIP3    H139325   4.175   3.255  14.527  0.5730  2.5903  0.8967
 5970TIP3    H239326   4.034   3.308  14.541 -1.7038 -2.3341 -1.0873
 5971TIP3   OH239327   1.595   2.802   1.292  0.0415 -0.0140  0.5037
 5971TIP3    H139328   1.527   2.858   1.255  0.2758  0.4235  0.7252
 5971TIP3    H239329   1.602   2.728   1.231 -1.2621 -0.5327  0.9456
 5972TIP3   OH239330   5.430   5.296  15.940  0.3024 -0.6601  0.4254
 5972TIP3    H139331   5.376   5.313  15.864  1.4404  0.3217 -0.1980
 5972TIP3    H239332   5.429   5.377  15.990  2.6820  0.1069 -0.5941
 5973TIP3   OH239333   5.772   4.682   3.853  0.3588 -0.2710  0.4562
 5973TIP3    H139334   5.837   4.614   3.868  1.2083  0.2165 -0.8820
 5973TIP3    H239335   5.822   4.757   3.821 -0.7202  0.5370  0.5895
 5974TIP3   OH239336   0.718   2.497  12.524 -0.4658  0.3441  0.6942
 5974TIP3    H139337   0.794   2.439  12.534 -0.7718  0.0604  1.4525
 5974TIP3    H239338   0.650   2.441  12.486 -0.0631  0.8012 -0.7477
 5975TIP3   OH239339   3.654   6.271  16.928  0.1126  0.5306  0.0588
 5975TIP3    H139340   3.728   6.302  16.980  1.4787  0.8793 -2.0118
 5975TIP3    H239341   3.693   6.236  16.848 -1.7695 -1.7824  0.0506
 5976TIP3   OH239342   2.514   0.156  11.031 -0.0554  0.6814 -0.0346
 5976TIP3    H139343   2.560   0.090  11.083  0.4045  0.3406 -0.8509
 5976TIP3    H239344   2.495   0.227  11.093  0.7901  0.4446  0.5134
 5977TIP3   OH239345   1.057   0.696  16.295 -0.1041 -0.1369  0.4774
 5977TIP3    H139346   1.096   0.713  16.380 -0.1881 -1.1220  0.7246
 5977TIP3    H239347   1.131   0.689  16.235  0.0974 -1.5664  0.8655
 5978TIP3   OH239348   5.022   6.502  16.056  0.6094  0.3841  0.1141
 5978TIP3    H139349   4.975   6.508  16.139  1.6618 -0.6388  0.8048
 5978TIP3    H239350   5.110   6.534  16.076  1.0036 -0.2922 -0.4895
 5979TIP3   OH239351   6.721   1.182  10.351 -0.2354  0.4015 -0.0353
 5979TIP3    H139352   6.708   1.164  10.258 -2.0297  1.5655 -0.0828
 5979TIP3    H239353   6.815   1.195  10.361  0.2258 -1.6019 -1.2895
 5980TIP3   OH239354   5.025   0.681  12.708 -0.3016 -0.1206  0.4153
 5980TIP3    H139355   5.020   0.776  12.722 -0.2126 -0.0660  0.0792
 5980TIP3    H239356   4.981   0.644  12.784  2.5565  0.0866  2.3559
 5981TIP3   OH239357   0.438   6.789  12.838  0.6608  0.0055  0.3724
 5981TIP3    H139358   0.498   6.858  12.812 -0.3069 -0.0622 -2.3751
 5981TIP3    H239359   0.479   6.708  12.808 -0.6395 -0.0595 -1.3382
 5982TIP3   OH239360   2.205   5.570  13.562  0.2569 -0.2510  0.3433
 5982TIP3    H139361   2.284   5.561  13.509  1.2499  0.1369  1.7006
 5982TIP3    H239362   2.233   5.623  13.637 -1.3970  0.2397  0.6485
 5983TIP3   OH239363   1.917   6.062   5.104  0.3719 -0.0150 -0.1766
 5983TIP3    H139364   1.905   6.145   5.151 -0.7400 -0.3251  0.1103
 5983TIP3    H239365   1.899   6.084   5.013  0.4600  0.1421 -0.1566
 5984TIP3   OH239366   4.223   2.315   4.402  1.2649  0.3016  0.1453
 5984TIP3    H139367   4.288   2.266   4.352  1.1380  0.2512  0.0285
 5984TIP3    H239368   4.178   2.249   4.454  0.8707  0.2465 -0.2602
 5985TIP3   OH239369   3.393   6.613   1.856  0.4590 -0.1903  0.2298
 5985TIP3    H139370   3.393   6.680   1.788  1.6420 -0.7056 -0.3045
 5985TIP3    H239371   3.462   6.640   1.917  1.4428 -1.2365 -0.3590
 5986TIP3   OH239372   4.313   0.108   0.003 -0.2001 -0.5723 -0.4501
 5986TIP3    H139373   4.393   0.147  -0.033 -0.5130 -0.0598 -0.6036
 5986TIP3    H239374   4.328   0.103   0.097 -0.2737  0.2027 -0.3950
 5987TIP3   OH239375   4.404   2.209   4.157  0.2576  0.0682  0.0882
 5987TIP3    H139376   4.447   2.295   4.161  1.9815 -0.7272 -0.1509
 5987TIP3    H239377   4.438   2.170   4.076  0.9561 -1.5323  1.1077
 5988TIP3   OH239378   3.672   5.809  10.461 -0.0338  0.4928 -0.0651
 5988TIP3    H139379   3.760   5.817  10.423  0.9145  0.5221  1.9795
 5988TIP3    H239380   3.646   5.719  10.441  0.5359  0.4252 -0.5447
 5989TIP3   OH239381   3.736   0.521  15.547  0.4785  0.4292 -0.1388
 5989TIP3    H139382   3.671   0.485  15.607 -0.3226  0.6781 -0.8348
 5989TIP3    H239383   3.769   0.445  15.499 -2.2799  0.6654 -2.6562
 5990TIP3   OH239384   3.038   6.116  15.229 -0.4412 -0.1173 -0.0774
 5990TIP3    H139385   3.011   6.136  15.140  0.5579 -0.5503 -0.4990
 5990TIP3    H239386   3.096   6.188  15.254 -2.8325  1.4878  1.2927
 5991TIP3   OH239387   4.332   4.292   0.567 -0.2137 -0.1056  0.5265
 5991TIP3    H139388   4.396   4.274   0.498 -0.3004 -1.1141  0.6948
 5991TIP3    H239389   4.247   4.286   0.522 -0.2114  1.0348  0.3456
 5992TIP3   OH239390   5.464   4.167  11.253  0.6512 -0.4702  0.3632
 5992TIP3    H139391   5.425   4.080  11.247 -1.0917  0.2445  0.6208
 5992TIP3    H239392   5.527   4.171  11.182  1.0576 -2.0773  0.6012
 5993TIP3   OH239393   6.499   4.768  10.774 -0.1030  0.3651 -0.2984
 5993TIP3    H139394   6.465   4.683  10.803 -0.3697  0.2583 -0.9187
 5993TIP3    H239395   6.481   4.827  10.847 -1.4143  0.2602 -0.5250
 5994TIP3   OH239396   2.596   2.518  13.686  0.3671  0.2196 -0.4789
 5994TIP3    H139397   2.606   2.433  13.645  1.0138 -1.1751  2.2832
 5994TIP3    H239398   2.686   2.548  13.703  0.1378  0.3951  0.4995
 5995TIP3   OH239399   4.196   0.257  11.544 -0.2967 -0.3148 -0.0910
 5995TIP3    H139400   4.229   0.347  11.539  0.8996 -0.7116  0.3387
 5995TIP3    H239401   4.147   0.245  11.462  0.7944  0.2442 -0.8571
 5996TIP3   OH239402   2.981   4.509  13.126 -0.3118  0.3609 -0.4198
 5996TIP3    H139403   2.892   4.545  13.137  0.4231  1.9799  0.7674
 5996TIP3    H239404   3.018   4.513  13.215  1.6683  1.8090 -1.2394
 5997TIP3   OH239405   5.107   0.969  13.544 -0.2201  0.0226  0.0703
 5997TIP3    H139406   5.123   0.937  13.632 -0.7012 -1.4565 -0.3423
 5997TIP3    H239407   5.181   1.026  13.525 -0.4468  0.9039  1.6461
 5998TIP3   OH239408   0.279   6.648   3.761 -0.4022  0.2775  0.0300
 5998TIP3    H139409   0.270   6.742   3.777  1.5517  0.4584  0.3309
 5998TIP3    H239410   0.225   6.607   3.828 -1.2264  1.1749 -0.0657
 5999TIP3   OH239411   0.336   5.407   1.030 -0.1937 -0.3177  0.3764
 5999TIP3    H139412   0.388   5.381   0.954  0.1463 -1.3623  0.9437
 5999TIP3    H239413   0.327   5.327   1.082 -2.1531 -0.1091  0.4365
 6000TIP3   OH239414   6.131   4.135   3.268 -0.0770 -0.1340  0.7189
 6000TIP3    H139415   6.100   4.162   3.354 -1.3730 -1.1664  0.6268
 6000TIP3    H239416   6.148   4.041   3.277  0.4185 -0.1187  0.0291
 6001TIP3   OH239417   3.102   0.082   1.543 -0.0527 -0.5681 -0.2941
 6001TIP3    H139418   3.055   0.165   1.542 -1.8743 -1.5340 -0.8666
 6001TIP3    H239419   3.178   0.097   1.599 -0.2039  1.5290 -0.5933
 6002TIP3   OH239420   0.110   1.930   5.536  0.3497 -0.0209 -0.0658
 6002TIP3    H139421   0.036   1.931   5.475 -0.8967  1.4149  1.3627
 6002TIP3    H239422   0.110   1.842   5.573 -0.8943  0.0584  0.1638
 6003TIP3   OH239423   1.119   4.710  10.453 -0.3987 -0.4703  0.7633
 6003TIP3    H139424   1.194   4.652  10.439 -0.0994  0.1365 -0.2576
 6003TIP3    H239425   1.155   4.798  10.451 -0.4416 -0.1902  4.8042
 6004TIP3   OH239426   1.907   1.305  12.679 -0.1305 -0.1220 -0.3713
 6004TIP3    H139427   1.849   1.365  12.726  2.3709  1.7685  0.4995
 6004TIP3    H239428   1.889   1.321  12.586 -1.7860 -0.4560 -0.1331
 6005TIP3   OH239429   4.510   0.387   1.538 -0.0144 -0.3288  0.1421
 6005TIP3    H139430   4.441   0.412   1.476  0.7294  0.8681 -0.2146
 6005TIP3    H239431   4.463   0.374   1.621 -0.7801 -0.3199 -0.2748
 6006TIP3   OH239432   2.870   4.292  11.478  0.5652 -0.4592 -0.4084
 6006TIP3    H139433   2.923   4.213  11.488 -0.6241 -1.4025 -1.3229
 6006TIP3    H239434   2.885   4.320  11.388 -0.3332 -0.6152 -0.6068
 6007TIP3   OH239435   1.491   2.629   2.675 -0.2563 -0.0147 -0.6025
 6007TIP3    H139436   1.487   2.540   2.640 -2.8855 -1.0921  1.9645
 6007TIP3    H239437   1.557   2.625   2.744  0.3802  0.3321 -1.1874
 6008TIP3   OH239438   4.523   5.225   2.037 -0.2095  0.4174 -0.3093
 6008TIP3    H139439   4.519   5.206   2.130  2.6437  0.0330 -0.1819
 6008TIP3    H239440   4.540   5.320   2.032 -2.5822  0.8944 -0.5818
 6009TIP3   OH239441   5.525   0.776   0.263 -0.3603 -0.5282 -0.4698
 6009TIP3    H139442   5.589   0.828   0.312 -0.7021 -1.0897  0.6147
 6009TIP3    H239443   5.534   0.688   0.299 -1.5421 -0.6661 -0.4837
 6010TIP3   OH239444   0.283   2.356  15.825  0.3013  0.2466 -0.6854
 6010TIP3    H139445   0.288   2.346  15.920 -1.2042 -1.3034 -0.7308
 6010TIP3    H239446   0.260   2.448  15.811  0.2665  0.4168  0.4563
 6011TIP3   OH239447   4.380   3.408   5.173  0.5121 -0.1737  0.2866
 6011TIP3    H139448   4.381   3.495   5.135  0.9756 -0.0290  0.6158
 6011TIP3    H239449   4.288   3.382   5.172  0.2826  0.5918  0.8099
 6012TIP3   OH239450   1.524   4.161  12.033 -0.5622  0.9994  0.0933
 6012TIP3    H139451   1.465   4.134  11.962  2.1335 -1.6782 -1.3397
 6012TIP3    H239452   1.552   4.249  12.008 -0.5006  0.5303 -1.6196
 6013TIP3   OH239453   5.493   1.606  12.831  0.0540  0.2629  0.5410
 6013TIP3    H139454   5.485   1.599  12.926  1.7885  1.8760  0.8663
 6013TIP3    H239455   5.455   1.692  12.811  1.3918  0.7724  0.0664
 6014TIP3   OH239456   3.507   4.225   5.374  0.2218  0.3683 -0.0792
 6014TIP3    H139457   3.484   4.258   5.287 -1.0492 -1.9621 -0.7093
 6014TIP3    H239458   3.432   4.246   5.429 -0.1033 -0.4038 -0.2104
 6015TIP3   OH239459   5.190   4.079   2.235  0.1013  0.5956  0.8489
 6015TIP3    H139460   5.123   4.142   2.209  0.1961  1.0053  1.5619
 6015TIP3    H239461   5.272   4.120   2.208  0.3078  1.6335  2.8722
 6016TIP3   OH239462   5.714   6.439   0.031  0.0807  0.1267  0.0448
 6016TIP3    H139463   5.756   6.450  -0.054  1.3969 -0.1007  0.6408
 6016TIP3    H239464   5.786   6.443   0.094 -0.9614  1.1788  1.2265
 6017TIP3   OH239465   6.217   3.801  14.345 -0.0675 -0.0740 -0.3387
 6017TIP3    H139466   6.196   3.886  14.305 -0.9567 -0.4036 -0.5831
 6017TIP3    H239467   6.195   3.737  14.278  0.4946 -0.5132 -0.1099
 6018TIP3   OH239468   1.758   0.096   4.190  0.1755  0.0155 -0.3118
 6018TIP3    H139469   1.679   0.131   4.231  0.0624  0.3506 -0.8030
 6018TIP3    H239470   1.828   0.114   4.253 -0.2631 -1.0417  0.5053
 6019TIP3   OH239471   5.683   1.347   2.987 -0.5233 -0.3651  0.5109
 6019TIP3    H139472   5.623   1.404   2.938 -0.8387 -1.4364 -0.3972
 6019TIP3    H239473   5.763   1.347   2.934 -0.3056 -0.2576  0.8421
 6020TIP3   OH239474   1.905   1.935   0.568  0.8931 -0.2655  0.3162
 6020TIP3    H139475   1.888   2.020   0.608 -0.9200  0.3354 -1.5259
 6020TIP3    H239476   1.958   1.955   0.490 -2.4055 -0.1644 -2.1548
 6021TIP3   OH239477   0.361   2.701   0.805 -0.5911 -0.4243 -0.8295
 6021TIP3    H139478   0.332   2.714   0.715 -0.2568  0.3411 -0.8334
 6021TIP3    H239479   0.378   2.789   0.838  1.3339 -0.7973 -0.7016
 6022TIP3   OH239480   0.225   0.947  14.408  0.5210 -0.0028  0.0416
 6022TIP3    H139481   0.245   0.859  14.376  1.0870 -0.1025  0.6495
 6022TIP3    H239482   0.139   0.966  14.372  0.7563 -0.4650 -0.7962
 6023TIP3   OH239483   2.593   4.539  11.689 -0.4354  0.4650  0.0697
 6023TIP3    H139484   2.530   4.483  11.734  0.8351 -2.2270 -1.2255
 6023TIP3    H239485   2.679   4.506  11.718  0.3614  0.9883 -1.5798
 6024TIP3   OH239486   4.857   1.686   2.681  1.1343  0.1767 -0.0410
 6024TIP3    H139487   4.836   1.682   2.588  0.4497 -0.0260  0.1204
 6024TIP3    H239488   4.933   1.745   2.685  0.9246  0.5039 -0.6806
 6025TIP3   OH239489   6.427   3.147   6.201 -0.6068  0.1838  0.6079
 6025TIP3    H139490   6.428   3.073   6.141 -1.1512 -0.3839  1.2790
 6025TIP3    H239491   6.336   3.152   6.231 -0.4714  0.8246  0.9404
 6026TIP3   OH239492   5.720   6.139  13.223  0.1898  0.0080  0.5405
 6026TIP3    H139493   5.749   6.143  13.132 -2.1382  1.4971 -0.2196
 6026TIP3    H239494   5.798   6.160  13.274  1.2659  0.3381 -1.1613
 6027TIP3   OH239495   0.076   2.297  16.222  0.1237 -0.4027  0.3528
 6027TIP3    H139496   0.045   2.387  16.210  1.2419 -0.2136 -1.4802
 6027TIP3    H239497  -0.000   2.251  16.258 -1.6541  0.5220 -1.9401
 6028TIP3   OH239498   2.314   5.625   2.092 -0.2862 -0.6142  0.0793
 6028TIP3    H139499   2.237   5.603   2.144 -0.0498  0.1304  0.7702
 6028TIP3    H239500   2.388   5.605   2.149  0.0358 -1.2019 -0.5349
 6029TIP3   OH239501   4.703   5.696   1.118  0.1175  0.1256  0.9032
 6029TIP3    H139502   4.612   5.721   1.100  0.3342  0.3603  0.0751
 6029TIP3    H239503   4.707   5.603   1.096  0.5962  0.6009 -1.2842
 6030TIP3   OH239504   5.527   5.487   5.929  0.0697 -0.1219 -0.2454
 6030TIP3    H139505   5.566   5.402   5.905 -1.8362 -0.9056 -0.7326
 6030TIP3    H239506   5.481   5.515   5.850 -2.1003 -0.2877  0.8746
 6031TIP3   OH239507   5.441   0.705  12.788  0.2196 -0.4992  0.3265
 6031TIP3    H139508   5.425   0.617  12.754 -0.2926 -0.2118 -0.1821
 6031TIP3    H239509   5.530   0.700  12.824  0.6278 -0.9121 -0.6979
 6032TIP3   OH239510   3.312   1.590  14.352  0.2305  0.0453  0.4364
 6032TIP3    H139511   3.366   1.664  14.327 -1.8457  1.1407 -1.1126
 6032TIP3    H239512   3.330   1.577  14.445  2.1022  1.1740  0.2820
 6033TIP3   OH239513   3.322   1.913   5.286 -0.1257 -0.7252 -0.0664
 6033TIP3    H139514   3.342   1.941   5.197 -2.2688 -0.1152 -0.4310
 6033TIP3    H239515   3.237   1.870   5.279 -1.4637  1.3327  1.9544
 6034TIP3   OH239516   3.029   5.053   0.816 -0.3681 -0.0040  0.0442
 6034TIP3    H139517   3.024   5.094   0.902  1.2696  1.8555 -0.6663
 6034TIP3    H239518   3.093   4.983   0.827 -0.4484 -0.0209  0.4267
 6035TIP3   OH239519   1.095   5.904  11.192  0.0027 -0.2975  0.2921
 6035TIP3    H139520   1.076   5.816  11.224  1.2082  0.5096  3.6330
 6035TIP3    H239521   1.095   5.959  11.270  0.6725  2.4555 -1.4753
 6036TIP3   OH239522   1.823   5.722   1.323  0.0956  0.1315  0.3103
 6036TIP3    H139523   1.740   5.726   1.370 -0.8894 -0.3431 -1.3190
 6036TIP3    H239524   1.799   5.721   1.230  1.9184 -0.1432 -0.2115
 6037TIP3   OH239525   6.774   6.628   1.421  0.1843 -0.1100 -0.4054
 6037TIP3    H139526   6.750   6.668   1.338  1.2726 -0.5872 -0.9723
 6037TIP3    H239527   6.778   6.534   1.403 -0.2294 -0.2788  0.3568
 6038TIP3   OH239528   5.462   1.219   5.504  0.2082  0.2933  0.1361
 6038TIP3    H139529   5.510   1.169   5.570 -0.2318  1.9768  1.8000
 6038TIP3    H239530   5.374   1.181   5.504  0.6927 -0.9155 -0.8696
 6039TIP3   OH239531   1.004   0.907   1.129  0.3143  0.1452  0.2685
 6039TIP3    H139532   0.972   0.842   1.067 -0.8272  0.3205  0.6520
 6039TIP3    H239533   0.929   0.965   1.145  0.9830  0.9003  0.7783
 6040TIP3   OH239534   1.783   4.417  15.156  0.2871  0.3136  0.0819
 6040TIP3    H139535   1.835   4.425  15.235 -1.1921  2.3297  0.9098
 6040TIP3    H239536   1.809   4.491  15.101  0.7359 -0.6188 -1.0257
 6041TIP3   OH239537   5.594   0.690   3.245  0.1911  0.8190  0.1386
 6041TIP3    H139538   5.555   0.768   3.285 -0.6720 -0.7238  2.4626
 6041TIP3    H239539   5.574   0.619   3.305  1.0001 -1.2372 -1.8763
 6042TIP3   OH239540   6.358   1.431  12.795  0.1419 -1.3108 -0.1460
 6042TIP3    H139541   6.306   1.478  12.860  0.5947 -1.2367  0.1699
 6042TIP3    H239542   6.336   1.472  12.712 -0.6806 -1.6136 -0.0844
 6043TIP3   OH239543   0.043   1.742  15.332  0.1862 -0.1217  0.1158
 6043TIP3    H139544   0.053   1.801  15.407 -0.2110  0.4416 -0.2666
 6043TIP3    H239545   0.129   1.700  15.323  0.5819  0.6489  0.1903
 6044TIP3   OH239546   5.839   2.902   4.497  0.6064 -0.3703 -0.0653
 6044TIP3    H139547   5.804   2.912   4.409  0.0534  1.5463  0.3269
 6044TIP3    H239548   5.934   2.893   4.485  0.5284 -0.1906 -0.8377
 6045TIP3   OH239549   1.578   1.620  15.247  0.1834  0.0411  0.4583
 6045TIP3    H139550   1.615   1.540  15.286 -1.5983  0.2688  2.8223
 6045TIP3    H239551   1.524   1.588  15.174  0.7209 -0.7433  0.3882
 6046TIP3   OH239552   3.806   4.777  12.503  0.3334  0.0330 -0.3909
 6046TIP3    H139553   3.797   4.717  12.429  0.9141  0.6240 -0.9489
 6046TIP3    H239554   3.803   4.864  12.464  1.9497  0.3404  0.1228
 6047TIP3   OH239555   3.115   1.370  12.651  0.0669 -0.3526  0.3990
 6047TIP3    H139556   3.184   1.436  12.656 -0.4407  0.2695 -0.4928
 6047TIP3    H239557   3.118   1.325  12.736  1.1237  0.0935  0.6160
 6048TIP3   OH239558   6.623   5.020   1.479 -0.1025 -0.2923  0.3641
 6048TIP3    H139559   6.656   5.024   1.568  1.2541  0.6443 -0.1402
 6048TIP3    H239560   6.625   5.111   1.449 -2.1375 -0.3497 -0.0869
 6049TIP3   OH239561   1.015   3.981  12.138 -0.2084 -0.0914  0.7185
 6049TIP3    H139562   1.074   3.906  12.148 -1.0836 -0.6749  1.6042
 6049TIP3    H239563   0.935   3.944  12.102 -0.4390  0.5218  0.5896
 6050TIP3   OH239564   6.370   3.155  16.829 -0.1257  0.0192 -0.3080
 6050TIP3    H139565   6.332   3.168  16.916  0.1852  3.3504 -0.5172
 6050TIP3    H239566   6.451   3.106  16.845  0.4846  1.4810  1.4918
 6051TIP3   OH239567   1.572   6.375  11.513  0.0189  0.4387  0.0517
 6051TIP3    H139568   1.523   6.451  11.482  0.9772  1.0270 -0.0463
 6051TIP3    H239569   1.628   6.408  11.582 -0.1959 -0.3672  0.6366
 6052TIP3   OH239570   2.102   0.472   0.513  0.2163  0.1885  0.3357
 6052TIP3    H139571   2.022   0.490   0.462  0.1150 -2.2344 -0.4713
 6052TIP3    H239572   2.091   0.524   0.592 -2.2104 -0.0830  0.2683
 6053TIP3   OH239573   3.843   1.312   5.770  0.0689 -0.1545 -0.0420
 6053TIP3    H139574   3.838   1.397   5.815  1.8201 -0.9906  1.9078
 6053TIP3    H239575   3.777   1.318   5.701 -1.0644  2.1515  1.1098
 6054TIP3   OH239576   4.574   2.921   1.662 -0.0805 -0.3500  0.3517
 6054TIP3    H139577   4.627   3.000   1.664 -0.9889  0.5169 -3.1290
 6054TIP3    H239578   4.637   2.849   1.652  0.6141  0.2450  0.4149
 6055TIP3   OH239579   3.238   5.404   0.008 -0.0734 -0.3009 -0.3530
 6055TIP3    H139580   3.171   5.338   0.024 -0.9215  0.4442 -0.7392
 6055TIP3    H239581   3.205   5.483   0.051  0.0257  0.3669 -1.4563
 6056TIP3   OH239582   4.372   2.678  16.975  0.2541 -0.1197 -0.0147
 6056TIP3    H139583   4.281   2.680  17.005 -0.1860 -1.0143 -1.1953
 6056TIP3    H239584   4.417   2.742  17.030 -1.4214  1.5630 -0.4719
 6057TIP3   OH239585   4.271   0.349   3.578 -0.0821 -0.0779  0.2062
 6057TIP3    H139586   4.284   0.444   3.576  0.1856 -0.1262 -0.3027
 6057TIP3    H239587   4.347   0.313   3.533 -0.7823 -0.4820 -0.6714
 6058TIP3   OH239588   6.246   3.737  11.769 -0.1746 -0.1493 -0.5947
 6058TIP3    H139589   6.276   3.692  11.848 -2.1230 -2.5919 -1.1283
 6058TIP3    H239590   6.165   3.781  11.796  0.0263  0.4048 -0.8743
 6059TIP3   OH239591   4.465   1.732  12.873  0.6449 -0.0132  0.5740
 6059TIP3    H139592   4.503   1.727  12.786 -1.4975 -1.6536 -0.3554
 6059TIP3    H239593   4.412   1.812  12.872  2.0554  0.9729  1.0649
 6060TIP3   OH239594   1.755   6.017  16.553 -0.3587  0.1727  0.2613
 6060TIP3    H139595   1.829   6.042  16.497 -0.1834  2.9104  1.5295
 6060TIP3    H239596   1.743   5.924  16.537  1.0789  0.3663 -2.6443
 6061TIP3   OH239597   1.874   1.802   4.451 -0.1259 -0.4002 -0.3780
 6061TIP3    H139598   1.911   1.732   4.397 -1.4306 -0.1607 -1.6303
 6061TIP3    H239599   1.783   1.774   4.468  0.3707 -0.7469  2.2063
 6062TIP3   OH239600   4.308   4.877  10.585  0.8093  0.2014  0.3650
 6062TIP3    H139601   4.245   4.876  10.656  0.2950 -1.5406 -0.0583
 6062TIP3    H239602   4.342   4.787  10.582  2.0226  0.6637 -0.5276
 6063TIP3   OH239603   3.803   6.752  16.914 -0.7813 -0.1811 -0.3192
 6063TIP3    H139604   3.837   6.738  16.826 -0.5047  2.6930 -0.7854
 6063TIP3    H239605   3.881   6.750  16.971 -0.7906 -0.7623 -0.3264
 6064TIP3   OH239606   5.897   3.799  12.940 -0.4556  0.5602  0.1672
 6064TIP3    H139607   5.939   3.740  12.878  0.9164 -0.8379  2.3103
 6064TIP3    H239608   5.965   3.862  12.963 -1.2836  1.7624 -0.4860
 6065TIP3   OH239609   4.695   2.199  16.397  0.1012 -0.0236  0.2067
 6065TIP3    H139610   4.666   2.159  16.479  0.3642 -0.7170 -0.0327
 6065TIP3    H239611   4.670   2.291  16.405 -0.6528 -0.2658  0.6977
 6066TIP3   OH239612   5.157   2.464   4.383 -0.3885 -0.0391 -0.5071
 6066TIP3    H139613   5.093   2.406   4.424 -0.6102  0.1913 -0.5208
 6066TIP3    H239614   5.160   2.541   4.440  0.3557 -0.3144 -0.1598
 6067TIP3   OH239615   2.404   5.678   5.956  0.2969  0.7175 -0.0597
 6067TIP3    H139616   2.458   5.605   5.926  0.9348  1.4685 -0.7901
 6067TIP3    H239617   2.356   5.644   6.031 -0.5789 -0.9392 -1.3065
 6068TIP3   OH239618   2.254   5.393  12.628 -0.3532  0.3327 -0.3323
 6068TIP3    H139619   2.325   5.351  12.676 -0.9460  0.6137  0.8330
 6068TIP3    H239620   2.298   5.443  12.559  0.4523 -0.8701 -0.7070
 6069TIP3   OH239621   4.664   1.699   0.938 -0.2859 -0.5668  0.3773
 6069TIP3    H139622   4.574   1.707   0.968 -0.3377 -0.6442  0.2441
 6069TIP3    H239623   4.717   1.712   1.017 -0.3116  1.8679  0.0710
 6070TIP3   OH239624   2.048   6.071   4.227 -0.8796  0.2033  0.2996
 6070TIP3    H139625   1.999   6.066   4.308  0.0071 -1.2957  0.7819
 6070TIP3    H239626   1.984   6.099   4.161 -1.3249  2.7732  1.7000
 6071TIP3   OH239627   3.796   0.267  15.463  0.1571 -0.0094 -0.1073
 6071TIP3    H139628   3.755   0.198  15.516 -0.4615 -1.1080 -1.9278
 6071TIP3    H239629   3.869   0.224  15.419  2.8709  1.7104  2.3653
 6072TIP3   OH239630   6.704   3.306   4.906 -0.5324 -0.5049  0.4753
 6072TIP3    H139631   6.709   3.402   4.905  1.4239 -0.5826  0.2541
 6072TIP3    H239632   6.792   3.277   4.886 -1.8219 -2.3773 -3.6240
 6073TIP3   OH239633   5.213   3.307   4.351  0.6804  0.5552 -0.6480
 6073TIP3    H139634   5.234   3.227   4.303 -0.0703 -0.4498  0.6568
 6073TIP3    H239635   5.291   3.325   4.404  0.3169 -0.1202  0.1245
 6074TIP3   OH239636   2.029   4.535   4.832  0.2477  0.1280  0.5993
 6074TIP3    H139637   2.063   4.461   4.782  1.3335  0.1829  1.2115
 6074TIP3    H239638   1.973   4.582   4.770  1.2763  0.0072 -0.4768
 6075TIP3   OH239639   4.745   3.840  10.621 -0.4283 -0.2032 -0.1252
 6075TIP3    H139640   4.803   3.816  10.693  0.2697 -0.6091 -0.8062
 6075TIP3    H239641   4.764   3.933  10.605 -0.3268 -0.2052 -0.0169
 6076TIP3   OH239642   0.468   6.458  16.658  0.2721 -0.0332 -0.4148
 6076TIP3    H139643   0.410   6.385  16.677  1.3871 -0.4337  1.8278
 6076TIP3    H239644   0.412   6.535  16.664 -0.6855 -0.5838 -1.7132
 6077TIP3   OH239645   5.323   3.623  14.570 -1.0000  0.0593 -0.4285
 6077TIP3    H139646   5.236   3.659  14.558 -0.4597  0.9862 -1.7426
 6077TIP3    H239647   5.353   3.600  14.482  0.7074  1.3027 -0.2364
 6078TIP3   OH239648   4.183   3.401   0.608  0.0799  0.2650  0.0633
 6078TIP3    H139649   4.272   3.432   0.625 -0.6617  1.6171  1.7503
 6078TIP3    H239650   4.169   3.419   0.515  1.9648 -1.1514 -0.5744
 6079TIP3   OH239651   5.971   0.531   2.606  0.1516 -0.3595 -0.1531
 6079TIP3    H139652   5.884   0.529   2.566  0.3263 -1.7881 -0.5462
 6079TIP3    H239653   5.964   0.593   2.678 -1.3904 -0.9349  0.2318
 6080TIP3   OH239654   0.564   5.206   5.340  0.8859  0.0757  0.0090
 6080TIP3    H139655   0.525   5.150   5.406 -0.2153  0.3544 -0.3883
 6080TIP3    H239656   0.619   5.147   5.288 -0.5980 -0.7439 -0.6824
 6081TIP3   OH239657   0.366   1.431  12.224 -0.2429 -0.1138  0.0278
 6081TIP3    H139658   0.388   1.509  12.172 -0.1078 -0.1827 -0.0185
 6081TIP3    H239659   0.314   1.465  12.297 -1.3126 -0.1407 -0.7016
 6082TIP3   OH239660   1.131   1.467  12.603  0.0988 -0.3690  0.2874
 6082TIP3    H139661   1.088   1.539  12.557  0.5361 -0.3676 -0.1229
 6082TIP3    H239662   1.088   1.388  12.571  0.3603 -0.3635 -0.0767
 6083TIP3   OH239663   6.797   0.991  14.607  0.9870 -0.2248  0.4598
 6083TIP3    H139664   6.808   0.974  14.514  0.9164  2.9374 -0.2480
 6083TIP3    H239665   6.812   1.085  14.616 -1.9293  0.1397  3.1690
 6084TIP3   OH239666   1.232   2.181   5.379 -0.0914  0.2715 -0.6811
 6084TIP3    H139667   1.178   2.160   5.455 -0.6399  0.9603 -0.8666
 6084TIP3    H239668   1.199   2.123   5.310  0.3710 -0.3155 -0.4171
 6085TIP3   OH239669   3.983   5.005  14.399  0.2370  0.0937  0.2300
 6085TIP3    H139670   3.898   4.987  14.438  0.0169  0.4536 -0.0749
 6085TIP3    H239671   4.023   4.919  14.385 -1.4805 -0.3484 -2.8207
 6086TIP3   OH239672   3.608   1.104  11.475 -0.0872  0.4580 -0.6282
 6086TIP3    H139673   3.565   1.055  11.545 -0.8650  0.9488 -0.7375
 6086TIP3    H239674   3.540   1.165  11.444  0.8421  1.6009 -0.4824
 6087TIP3   OH239675   1.575   1.319  16.122 -0.2650  0.1879 -0.4580
 6087TIP3    H139676   1.651   1.346  16.070 -0.1148 -0.0325 -0.3559
 6087TIP3    H239677   1.572   1.380  16.195  0.8363 -0.8305  0.4801
 6088TIP3   OH239678   6.135   1.447   1.441  0.0830  0.6802  0.4712
 6088TIP3    H139679   6.151   1.541   1.432  0.0991  0.7594  1.3121
 6088TIP3    H239680   6.040   1.438   1.436  0.1068  0.6853 -0.0683
 6089TIP3   OH239681   6.705   4.273   3.285  0.2802  0.1024 -0.3077
 6089TIP3    H139682   6.692   4.187   3.326 -1.3135  0.6077  0.3764
 6089TIP3    H239683   6.755   4.256   3.206 -0.3440 -1.5269 -0.3893
 6090TIP3   OH239684   4.918   3.121   1.250 -0.1579 -0.6987  0.0180
 6090TIP3    H139685   4.978   3.063   1.297 -0.0060  0.2051  0.9937
 6090TIP3    H239686   4.975   3.182   1.203 -0.3080 -1.7209 -1.5605
 6091TIP3   OH239687   5.449   1.500   1.481 -0.0332  0.2551 -0.6781
 6091TIP3    H139688   5.404   1.584   1.473  1.2367  1.0582  0.1315
 6091TIP3    H239689   5.444   1.461   1.394 -0.3897  1.2997 -1.1448
 6092TIP3   OH239690   0.524   2.097   4.745 -0.6540 -0.2766  0.4131
 6092TIP3    H139691   0.552   2.013   4.783 -2.1895 -0.5659  0.9854
 6092TIP3    H239692   0.480   2.073   4.664 -0.8279 -0.0116  0.4273
 6093TIP3   OH239693   2.361   2.416   3.195  0.0057 -0.5432  0.0703
 6093TIP3    H139694   2.329   2.327   3.209 -1.2738 -0.1572 -0.2708
 6093TIP3    H239695   2.448   2.404   3.158 -0.1555 -1.6516  0.0053
 6094TIP3   OH239696   6.532   2.495   5.789 -0.2844 -0.8226 -0.2225
 6094TIP3    H139697   6.509   2.550   5.714 -1.1320  0.2732  0.7977
 6094TIP3    H239698   6.466   2.426   5.789 -0.2116 -0.8945 -0.5412
 6095TIP3   OH239699   4.146   4.919   0.911  0.9596 -0.3106 -0.6906
 6095TIP3    H139700   4.152   4.964   0.995  0.7018 -1.9198  0.2255
 6095TIP3    H239701   4.234   4.923   0.875  1.3714 -0.6887  0.2471
 6096TIP3   OH239702   6.244   1.251   5.587 -0.5921 -0.8012 -0.2875
 6096TIP3    H139703   6.289   1.321   5.635 -2.5633  0.9416 -0.8202
 6096TIP3    H239704   6.263   1.171   5.636  0.4939  0.3351  1.2355
 6097TIP3   OH239705   2.537   0.112   3.600 -0.5510  0.0641  0.1166
 6097TIP3    H139706   2.615   0.092   3.549 -0.9258 -0.7672 -0.1385
 6097TIP3    H239707   2.464   0.098   3.539 -0.8720  1.9776 -0.0207
 6098TIP3   OH239708   3.353   3.020   3.358  0.3639 -0.4124  0.1090
 6098TIP3    H139709   3.329   3.112   3.365  0.2229 -0.5464  1.6228
 6098TIP3    H239710   3.412   3.017   3.282 -0.5270  0.7111 -0.6657
 6099TIP3   OH239711   1.141   1.152   6.288  0.1953  0.7242 -0.1337
 6099TIP3    H139712   1.235   1.166   6.300  0.5976  0.4463 -2.3712
 6099TIP3    H239713   1.119   1.206   6.212 -1.1764 -0.1706 -0.4047
 6100TIP3   OH239714   6.348   3.059  13.940 -0.0079 -0.1199  0.0730
 6100TIP3    H139715   6.307   3.112  13.872 -0.1255  0.2234  0.4088
 6100TIP3    H239716   6.285   3.060  14.012  0.3004 -0.1410  0.3419
 6101TIP3   OH239717   5.551   5.502   0.117 -0.1383 -0.1081  0.2635
 6101TIP3    H139718   5.608   5.536   0.186 -0.2396  1.5435 -0.4285
 6101TIP3    H239719   5.471   5.476   0.162 -0.5323  1.7484  0.6980
 6102TIP3   OH239720   4.796   5.220  11.582  0.2164 -0.1225  0.0374
 6102TIP3    H139721   4.831   5.148  11.635 -0.8869 -0.7916 -0.1120
 6102TIP3    H239722   4.788   5.183  11.494 -0.1021  0.2609 -0.0989
 6103TIP3   OH239723   2.740   2.164  11.434  0.0819 -0.2339 -0.1249
 6103TIP3    H139724   2.735   2.169  11.530 -0.0964  0.3532 -0.1578
 6103TIP3    H239725   2.714   2.075  11.413  1.2032 -0.7178  0.4375
 6104TIP3   OH239726   6.436   5.800  12.846  0.4800  0.7924 -0.4311
 6104TIP3    H139727   6.461   5.892  12.835  0.7719  1.0162  1.6904
 6104TIP3    H239728   6.365   5.802  12.910  0.7762 -0.4788 -0.0263
 6105TIP3   OH239729   4.327   6.225  13.778  0.1189 -0.0010 -0.5242
 6105TIP3    H139730   4.401   6.163  13.779  0.4682  0.4110  0.1399
 6105TIP3    H239731   4.330   6.266  13.865 -1.1235 -0.2483 -0.3574
 6106TIP3   OH239732   3.003   4.067  16.628  0.4892 -0.0172  0.5463
 6106TIP3    H139733   3.040   4.000  16.685 -0.6527  0.6328  2.1194
 6106TIP3    H239734   2.949   4.019  16.565 -0.6190 -0.5958  1.8796
 6107TIP3   OH239735   6.645   6.713  10.925 -0.2453  0.5735  0.4383
 6107TIP3    H139736   6.552   6.716  10.950 -0.4339 -1.4803  0.1674
 6107TIP3    H239737   6.654   6.779  10.857 -2.0004 -0.5362 -0.9513
 6108TIP3   OH239738   3.050   4.604   2.155  0.5234  0.0375 -0.4432
 6108TIP3    H139739   3.081   4.631   2.241  0.8685 -1.0075 -0.2233
 6108TIP3    H239740   3.130   4.589   2.105  0.3544 -0.9359 -0.4311
 6109TIP3   OH239741   5.503   4.256   5.899  0.2109 -0.3091 -0.7215
 6109TIP3    H139742   5.550   4.218   5.825  0.2208 -2.3830  0.2503
 6109TIP3    H239743   5.493   4.183   5.960  0.7159  1.4347  1.5857
 6110TIP3   OH239744   5.879   3.843   3.750  0.4904 -0.2528 -0.6530
 6110TIP3    H139745   5.918   3.886   3.826 -1.7903 -0.0891  0.4921
 6110TIP3    H239746   5.930   3.762   3.740  1.3029  0.0762  0.5665
 6111TIP3   OH239747   5.068   1.739   1.065  0.3142  0.1223  0.1455
 6111TIP3    H139748   5.056   1.742   1.160  1.2296  0.2916  0.2670
 6111TIP3    H239749   5.029   1.656   1.039 -0.2883  0.2507  0.6171
 6112TIP3   OH239750   1.921   0.297  11.033  0.0346 -0.1549  0.3563
 6112TIP3    H139751   1.917   0.381  10.987 -0.0105 -1.2507 -1.7956
 6112TIP3    H239752   1.978   0.243  10.978 -0.1212 -1.6061  1.5710
 6113TIP3   OH239753   6.238   2.750  11.435 -0.5470 -0.4847  0.3762
 6113TIP3    H139754   6.331   2.762  11.454 -0.3296 -2.3583  0.7097
 6113TIP3    H239755   6.213   2.828  11.386  1.3132 -0.1367 -0.0965
 6114TIP3   OH239756   0.200   0.194   3.349 -0.0596  0.2844 -0.1869
 6114TIP3    H139757   0.278   0.242   3.374 -0.8564  0.0518  3.2383
 6114TIP3    H239758   0.226   0.102   3.350 -0.1893  0.2499  0.2586
 6115TIP3   OH239759   4.087   6.624  12.828  0.7220  0.2520 -0.1550
 6115TIP3    H139760   4.042   6.624  12.912 -0.4510 -1.0298 -0.7440
 6115TIP3    H239761   4.060   6.706  12.786  0.1324  0.2109  0.1315
 6116TIP3   OH239762   4.217   5.772   5.017  0.4256  0.2834 -0.2919
 6116TIP3    H139763   4.257   5.696   4.975 -0.8545 -1.0405  0.7996
 6116TIP3    H239764   4.235   5.845   4.957 -0.0686 -1.2439 -2.3925
 6117TIP3   OH239765   4.972   1.689  11.496 -0.0056  0.1320  0.4411
 6117TIP3    H139766   4.970   1.596  11.471  1.6246 -0.1508  1.2339
 6117TIP3    H239767   4.881   1.711  11.513 -0.4846 -1.1745 -0.3073
 6118TIP3   OH239768   3.968   4.486  10.560 -0.2790 -0.6824  0.6956
 6118TIP3    H139769   4.029   4.427  10.517  1.7145  2.0084 -0.4580
 6118TIP3    H239770   4.003   4.496  10.649  2.2880  2.2290 -0.4558
 6119TIP3   OH239771   1.061   1.615  12.124 -0.1322 -0.3920 -0.5109
 6119TIP3    H139772   1.042   1.699  12.164  2.8643 -0.1695  0.7578
 6119TIP3    H239773   1.144   1.628  12.078 -0.7633 -2.0889 -2.2881
 6120TIP3   OH239774   2.336   0.378  14.364 -0.1476 -0.2662  0.0329
 6120TIP3    H139775   2.401   0.374  14.434 -0.1640  2.2734  0.2613
 6120TIP3    H239776   2.387   0.405  14.287 -0.2129 -2.5761 -0.9148
 6121TIP3   OH239777   2.851   3.605  13.686 -1.0236 -0.0433 -0.0946
 6121TIP3    H139778   2.783   3.668  13.664  0.2039  1.0632 -0.8892
 6121TIP3    H239779   2.933   3.648  13.660  0.0838 -0.9015  1.7833
 6122TIP3   OH239780   1.086   4.414  15.490 -0.2576  0.1709  0.0200
 6122TIP3    H139781   1.114   4.327  15.518  0.7834  0.6035  0.3954
 6122TIP3    H239782   0.992   4.405  15.473 -0.4760 -0.6741  1.4675
 6123TIP3   OH239783   0.122   0.240   1.962 -0.4756  1.0238 -0.2392
 6123TIP3    H139784   0.154   0.268   1.877  0.4304  1.3159  0.1842
 6123TIP3    H239785   0.081   0.318   2.000  2.1185  1.8884  0.9733
 6124TIP3   OH239786   3.198   1.564  10.686 -0.6102  0.4031 -0.3328
 6124TIP3    H139787   3.151   1.551  10.768 -0.5355  0.8397 -0.2241
 6124TIP3    H239788   3.291   1.556  10.710 -0.6075  0.0337 -0.4623
 6125TIP3   OH239789   4.132   3.995  13.570 -0.2172  0.2259  0.4553
 6125TIP3    H139790   4.106   4.084  13.545  1.1238  1.1600  2.1251
 6125TIP3    H239791   4.067   3.968  13.635 -0.7090 -0.1011 -0.1588
 6126TIP3   OH239792   4.551   3.015   0.154 -0.2215  0.3069 -0.0126
 6126TIP3    H139793   4.617   2.954   0.184  1.3864  1.0776 -1.7950
 6126TIP3    H239794   4.577   3.099   0.191  1.0212  1.0016 -2.2962
 6127TIP3   OH239795   0.539   6.242   3.321 -0.2302 -0.3909 -0.3744
 6127TIP3    H139796   0.620   6.292   3.324 -0.6552  0.2664  0.7605
 6127TIP3    H239797   0.477   6.300   3.276 -0.8777  0.4077  1.4296
 6128TIP3   OH239798   2.901   3.443   4.363 -0.6508 -0.4162  0.5192
 6128TIP3    H139799   2.919   3.461   4.455  0.7376  1.4791 -0.0568
 6128TIP3    H239800   2.964   3.375   4.339  0.5662  0.6923  0.4553
 6129TIP3   OH239801   5.519   4.836   5.389  0.2766 -0.4639  0.0087
 6129TIP3    H139802   5.446   4.774   5.389  0.9096 -1.2319 -0.2458
 6129TIP3    H239803   5.554   4.833   5.478  1.4308 -1.8688 -0.4501
 6130TIP3   OH239804   0.121   3.278   1.017 -0.2688  0.5581 -0.4727
 6130TIP3    H139805   0.141   3.333   1.092  0.4049 -1.4844  0.9212
 6130TIP3    H239806   0.207   3.252   0.983 -0.4598 -2.1120  0.8576
 6131TIP3   OH239807   0.466   5.728  15.383  0.4039  0.1810 -0.4174
 6131TIP3    H139808   0.419   5.645  15.376 -1.0770  0.9555  0.0312
 6131TIP3    H239809   0.460   5.751  15.475  0.0488  1.2092 -0.6870
 6132TIP3   OH239810   6.390   2.555  16.620 -0.2739 -0.5639 -0.1155
 6132TIP3    H139811   6.436   2.499  16.682  0.9031  0.0055 -0.4326
 6132TIP3    H239812   6.300   2.524  16.621  0.6984 -3.9758 -1.9513
 6133TIP3   OH239813   1.048   0.475   5.607  0.3969 -0.0260 -0.2141
 6133TIP3    H139814   1.027   0.513   5.692  1.0441 -0.6120  0.2218
 6133TIP3    H239815   1.098   0.542   5.562  1.4483 -0.2945  0.5090
 6134TIP3   OH239816   3.094   2.931  14.987  0.3334 -0.3215  0.0913
 6134TIP3    H139817   3.136   2.927  14.901  0.5978 -1.1362  0.2503
 6134TIP3    H239818   3.105   3.022  15.015  1.3747 -0.3453 -0.1868
 6135TIP3   OH239819   1.601   0.109   4.426  0.3388 -0.4127 -0.0824
 6135TIP3    H139820   1.511   0.142   4.423  1.0512  1.6166 -0.5430
 6135TIP3    H239821   1.617   0.091   4.519 -0.4797 -0.6449  0.0168
 6136TIP3   OH239822   3.512   2.162  15.407 -0.6071 -0.1137  0.0537
 6136TIP3    H139823   3.585   2.166  15.468  0.1307  1.8881 -0.8730
 6136TIP3    H239824   3.436   2.139  15.461  0.7263 -2.8510  0.9385
 6137TIP3   OH239825   4.494   0.847  17.009  0.5414  0.6198 -0.0966
 6137TIP3    H139826   4.539   0.891  16.937 -0.9101  2.8566  0.2390
 6137TIP3    H239827   4.462   0.919  17.063 -0.5322 -0.9555  1.4347
 6138TIP3   OH239828   2.671   4.287  14.640 -0.4919  0.0534 -0.2344
 6138TIP3    H139829   2.702   4.377  14.645 -1.5064  0.3570  1.5620
 6138TIP3    H239830   2.588   4.294  14.593 -0.7244  0.1256  0.1762
 6139TIP3   OH239831   5.110   0.608   1.344 -0.1774 -0.0477  0.4244
 6139TIP3    H139832   5.200   0.634   1.363 -0.0471 -0.8168  0.9115
 6139TIP3    H239833   5.058   0.686   1.365  0.4010  0.5260 -0.2227
 6140TIP3   OH239834   6.674   0.349  12.913  0.0222  0.4038 -0.0250
 6140TIP3    H139835   6.632   0.270  12.878  0.8538 -0.1758  0.2728
 6140TIP3    H239836   6.761   0.321  12.939  1.4299  2.0412 -2.6019
 6141TIP3   OH239837   0.642   2.758   5.576  0.1668  0.3742 -0.0600
 6141TIP3    H139838   0.566   2.790   5.623 -0.9968 -0.4345 -1.3248
 6141TIP3    H239839   0.691   2.837   5.553  0.0265  0.8657  1.2258
 6142TIP3   OH239840   5.744   0.448   2.409 -0.3752  0.4276  0.4410
 6142TIP3    H139841   5.801   0.374   2.390 -0.6697  0.3816 -0.3018
 6142TIP3    H239842   5.660   0.408   2.430 -0.5530  0.5484 -0.0310
 6143TIP3   OH239843   5.244   2.095  14.425 -0.3465 -0.2452 -0.3484
 6143TIP3    H139844   5.195   2.017  14.451 -0.7240 -0.3671 -1.3500
 6143TIP3    H239845   5.228   2.158  14.495 -1.2796 -0.5661 -0.2561
 6144TIP3   OH239846   0.631   0.698  14.705  0.8179 -0.2846  0.2599
 6144TIP3    H139847   0.579   0.716  14.627  0.5507 -3.2384 -0.3507
 6144TIP3    H239848   0.602   0.764  14.769 -2.6474 -0.8453 -0.5283
 6145TIP3   OH239849   1.801   0.524  16.814 -0.1271  0.7367  0.4481
 6145TIP3    H139850   1.853   0.495  16.888  0.3411 -1.8124 -0.7666
 6145TIP3    H239851   1.713   0.488  16.830  0.0212  0.0089 -0.2614
 6146TIP3   OH239852   0.894   6.546  12.577 -0.0710 -0.3474 -0.2348
 6146TIP3    H139853   0.984   6.557  12.610 -0.1919 -1.0154  0.3467
 6146TIP3    H239854   0.851   6.629  12.597 -0.0807 -0.6567  1.1380
 6147TIP3   OH239855   0.601   6.628   5.575 -0.1516  0.5398 -0.1001
 6147TIP3    H139856   0.521   6.647   5.526 -1.1011 -1.0174  0.7702
 6147TIP3    H239857   0.637   6.714   5.595 -0.9554  1.2574 -1.5295
 6148TIP3   OH239858   1.374   6.525   1.686  0.5560  0.1853 -0.5975
 6148TIP3    H139859   1.384   6.596   1.622  2.2987 -0.3327 -0.9424
 6148TIP3    H239860   1.427   6.553   1.761  1.7926 -1.0060 -0.9915
 6149TIP3   OH239861   6.192   4.711   6.857  0.1075 -0.1885 -0.0125
 6149TIP3    H139862   6.191   4.616   6.843 -0.0543  0.1894 -3.7259
 6149TIP3    H239863   6.284   4.733   6.868 -0.0175 -0.9228  3.2734
 6150TIP3   OH239864   5.187   2.783   3.010  0.2532 -0.3674  0.3849
 6150TIP3    H139865   5.187   2.863   2.957  0.2806 -0.8507 -0.3725
 6150TIP3    H239866   5.126   2.801   3.081  1.1792  0.7621  0.9222
 6151TIP3   OH239867   5.891   2.160  16.968  0.1765  0.0521 -0.4995
 6151TIP3    H139868   5.837   2.153  16.889  0.5834 -1.2036 -0.6925
 6151TIP3    H239869   5.829   2.173  17.039 -0.2737  0.1387 -0.9030
 6152TIP3   OH239870   1.698   6.278  14.078  0.3047 -0.1098 -0.7450
 6152TIP3    H139871   1.632   6.211  14.095 -0.3439  0.7768  0.3155
 6152TIP3    H239872   1.655   6.361  14.099  1.9103  0.4625  0.5196
 6153TIP3   OH239873   6.131   1.887  16.511 -0.0117  0.2130 -0.0757
 6153TIP3    H139874   6.188   1.925  16.577 -2.4921  0.7314  1.9437
 6153TIP3    H239875   6.101   1.962  16.460 -0.2712  0.1947  0.0469
 6154TIP3   OH239876   0.279   3.710   2.155  0.1034 -0.1635 -0.1718
 6154TIP3    H139877   0.278   3.615   2.147 -3.1526 -0.6774  3.3301
 6154TIP3    H239878   0.194   3.737   2.120  0.3138  1.2279  0.3490
 6155TIP3   OH239879   5.794   3.080  13.935 -0.2867 -0.1289  0.1711
 6155TIP3    H139880   5.855   3.093  13.862  0.4737 -0.5015  0.7287
 6155TIP3    H239881   5.844   3.102  14.013 -0.3543 -1.9393  0.7799
 6156TIP3   OH239882   2.959   2.808   4.866  0.6768  0.2112  0.5506
 6156TIP3    H139883   2.971   2.730   4.920  1.7050 -0.3762 -0.4898
 6156TIP3    H239884   3.032   2.865   4.889  1.8503 -0.5600 -1.0267
 6157TIP3   OH239885   6.789   0.392   0.228 -0.2273 -0.2098  0.2876
 6157TIP3    H139886   6.766   0.346   0.309  3.2145  1.3948  2.4347
 6157TIP3    H239887   6.742   0.475   0.233  1.7734  0.9310  2.0729
 6158TIP3   OH239888   6.132   4.175   0.098  0.5990 -0.2142  0.2772
 6158TIP3    H139889   6.122   4.226   0.018 -0.4343 -2.9294 -1.4551
 6158TIP3    H239890   6.222   4.193   0.127  0.9604  0.9161 -1.4358
 6159TIP3   OH239891   6.203   4.529  16.723 -0.2461 -0.0086 -0.9066
 6159TIP3    H139892   6.204   4.434  16.708  0.8308  0.0429 -1.2053
 6159TIP3    H239893   6.269   4.543  16.790 -0.9038  0.4602 -0.3440
 6160TIP3   OH239894   3.324   6.285  12.471  0.2428  0.0939  0.1264
 6160TIP3    H139895   3.300   6.335  12.394 -1.4142  1.0359  1.1829
 6160TIP3    H239896   3.376   6.346  12.524 -0.3349  0.1355  0.6522
 6161TIP3   OH239897   3.016   0.879   4.464  0.1864 -0.4449 -0.2586
 6161TIP3    H139898   3.111   0.868   4.459  0.4399  0.9218  0.7959
 6161TIP3    H239899   2.987   0.878   4.373  1.2647 -0.5121 -0.6156
 6162TIP3   OH239900   0.723   2.597   5.941 -0.1102  0.0687 -0.1958
 6162TIP3    H139901   0.807   2.566   5.973 -0.2552 -0.6806 -0.5275
 6162TIP3    H239902   0.673   2.617   6.020  0.3342  0.3988  0.0016
 6163TIP3   OH239903   4.746   2.453   3.466  0.6835 -0.2510  0.3770
 6163TIP3    H139904   4.722   2.381   3.409 -0.7883 -0.9031  1.7453
 6163TIP3    H239905   4.827   2.424   3.509  1.4198 -0.0393 -0.8185
 6164TIP3   OH239906   2.272   4.528   3.254 -0.2231 -0.0583 -0.2305
 6164TIP3    H139907   2.310   4.555   3.338  0.5030  1.0682 -0.8829
 6164TIP3    H239908   2.201   4.469   3.277  0.0771  0.0920  1.1683
 6165TIP3   OH239909   0.802   2.039   5.217  0.1877 -0.1931  0.0486
 6165TIP3    H139910   0.733   2.079   5.164  0.4882 -0.8322 -0.8439
 6165TIP3    H239911   0.794   2.081   5.303 -0.5741  0.5573 -0.3794
 6166TIP3   OH239912   2.664   6.167   0.945 -0.1296 -0.1002  0.1056
 6166TIP3    H139913   2.571   6.183   0.957 -0.3425 -1.2034  0.0152
 6166TIP3    H239914   2.692   6.232   0.881 -0.8380  0.2390  0.1375
 6167TIP3   OH239915   0.549   0.146   0.162 -0.1382 -0.2279  0.3781
 6167TIP3    H139916   0.482   0.198   0.118 -1.4599 -2.0305  0.1152
 6167TIP3    H239917   0.625   0.150   0.103 -0.4663  0.7680  0.0105
 6168TIP3   OH239918   4.199   2.995  12.003 -0.0896 -0.1945 -0.1054
 6168TIP3    H139919   4.272   2.936  12.023  0.3904  0.8478  1.3217
 6168TIP3    H239920   4.141   2.988  12.079 -0.1030  1.0342  0.0175
 6169TIP3   OH239921   6.721   3.384  16.867 -0.0021 -0.1421 -0.3078
 6169TIP3    H139922   6.718   3.288  16.869 -2.2181 -0.1506  2.0048
 6169TIP3    H239923   6.797   3.406  16.921  0.6639 -0.5816 -1.0530
 6170TIP3   OH239924   0.802   1.333  12.774  0.3634 -0.3118  0.0147
 6170TIP3    H139925   0.708   1.319  12.782  0.0046 -0.4484 -3.1418
 6170TIP3    H239926   0.840   1.247  12.792 -0.1851 -0.4806  0.4022
 6171TIP3   OH239927   1.989   1.712   5.479  0.0333  0.4685  0.0381
 6171TIP3    H139928   1.909   1.757   5.504  1.0647  2.5306 -0.1217
 6171TIP3    H239929   1.970   1.674   5.393 -0.6527  1.2985 -0.1868
 6172TIP3   OH239930   3.659   3.027   0.866  0.5961 -0.1503 -0.0751
 6172TIP3    H139931   3.711   2.951   0.891  1.6863  0.4306 -0.5115
 6172TIP3    H239932   3.699   3.058   0.784  0.1913  0.9096  0.1090
 6173TIP3   OH239933   6.727   5.267   1.151  0.0596 -0.2593 -0.7077
 6173TIP3    H139934   6.736   5.321   1.230  2.4786  1.1540 -1.8338
 6173TIP3    H239935   6.653   5.210   1.170 -0.5509  1.2054  1.8824
 6174TIP3   OH239936   3.603   1.388  16.965  0.3252 -0.2671  0.2592
 6174TIP3    H139937   3.604   1.294  16.944  0.1692 -0.1353 -0.3666
 6174TIP3    H239938   3.693   1.408  16.992  0.3965 -0.5627  0.2408
 6175TIP3   OH239939   3.443   5.674  13.144 -0.1527 -0.5329  0.2123
 6175TIP3    H139940   3.513   5.738  13.128 -2.8887  2.0966 -2.5425
 6175TIP3    H239941   3.392   5.714  13.215  0.3213 -1.8021  1.3101
 6176TIP3   OH239942   3.246   0.410   0.480 -0.0800  1.0022 -0.1671
 6176TIP3    H139943   3.328   0.404   0.431  1.1918  1.5096  1.7480
 6176TIP3    H239944   3.187   0.349   0.437  1.7133 -0.3112 -0.8725
 6177TIP3   OH239945   2.602   1.479  15.159 -0.0799  0.4892 -0.0084
 6177TIP3    H139946   2.593   1.572  15.137 -0.3194  0.1394 -1.5222
 6177TIP3    H239947   2.694   1.459  15.140  0.0099  0.4429  0.4634
 6178TIP3   OH239948   4.043   4.377  11.674 -0.5332  0.1312 -0.3945
 6178TIP3    H139949   4.121   4.432  11.660 -1.1578  0.7057 -1.7576
 6178TIP3    H239950   4.072   4.289  11.650  0.1215  0.0580  0.6022
 6179TIP3   OH239951   3.707   3.761   5.626  0.1956 -0.0614  0.2114
 6179TIP3    H139952   3.686   3.850   5.657 -0.6698 -0.7581  1.7662
 6179TIP3    H239953   3.693   3.765   5.531 -0.7888  1.2130  0.3782
 6180TIP3   OH239954   3.206   0.789   5.675  0.1752 -0.9947  0.1653
 6180TIP3    H139955   3.292   0.823   5.701  0.6213 -0.7506 -1.5124
 6180TIP3    H239956   3.143   0.842   5.724  0.9245  0.7284 -0.6554
 6181TIP3   OH239957   3.602   2.781   5.118 -0.3952  0.4372 -0.6086
 6181TIP3    H139958   3.675   2.745   5.168  0.4324  1.8808 -0.7045
 6181TIP3    H239959   3.622   2.760   5.027 -0.8973 -0.4895 -0.5141
 6182TIP3   OH239960   3.687   0.258  16.382 -0.1625 -0.3556  0.0069
 6182TIP3    H139961   3.614   0.253  16.444 -0.3090 -1.4317 -0.2287
 6182TIP3    H239962   3.710   0.351  16.379  0.1847 -0.3270  2.0470
 6183TIP3   OH239963   2.915   3.594  16.112 -0.0368 -0.0653  0.3173
 6183TIP3    H139964   2.986   3.550  16.066  0.0052 -0.6061  0.8703
 6183TIP3    H239965   2.875   3.652  16.047  0.8742  0.2090 -0.0074
 6184TIP3   OH239966   2.305   6.552   0.025  0.3742  0.1567  0.5192
 6184TIP3    H139967   2.295   6.573  -0.068 -0.8354  2.5609  1.1068
 6184TIP3    H239968   2.228   6.498   0.046  0.7355 -0.5267  0.1161
 6185TIP3   OH239969   1.471   6.628  14.465  0.2051  0.4109 -0.0706
 6185TIP3    H139970   1.475   6.700  14.527  0.5832 -0.4802  0.9754
 6185TIP3    H239971   1.508   6.664  14.384  0.8125  1.2506  0.5626
 6186TIP3   OH239972   2.496   2.962   3.132 -0.5732 -0.1670  0.0389
 6186TIP3    H139973   2.591   2.969   3.145 -0.6555 -0.0500  0.6445
 6186TIP3    H239974   2.485   2.891   3.069 -0.0720 -0.0661 -0.1630
 6187TIP3   OH239975   4.941   4.880  15.232 -0.1463 -0.3502  0.3640
 6187TIP3    H139976   4.977   4.807  15.281  0.1388 -0.7695 -0.4479
 6187TIP3    H239977   4.846   4.875  15.247 -0.3021 -1.7857 -0.8248
 6188TIP3   OH239978   0.560   3.319   1.120 -0.4443 -0.2357 -0.0985
 6188TIP3    H139979   0.562   3.298   1.027 -0.2386 -0.1194 -0.1213
 6188TIP3    H239980   0.570   3.235   1.165 -1.3696 -0.4011 -0.1689
 6189TIP3   OH239981   3.657   0.049   3.735 -0.3382  0.2688 -0.5258
 6189TIP3    H139982   3.594  -0.013   3.770 -1.3740  1.9594  0.7735
 6189TIP3    H239983   3.613   0.134   3.741  2.3774  1.6820  1.3109
 6190TIP3   OH239984   6.461   6.299  11.449 -0.0456 -0.2760 -0.2155
 6190TIP3    H139985   6.480   6.223  11.504  0.9748 -0.3324 -0.6258
 6190TIP3    H239986   6.418   6.263  11.372  2.0417 -0.7193 -1.2626
 6191TIP3   OH239987   4.737   2.184  15.377 -0.2533 -0.4226 -0.0546
 6191TIP3    H139988   4.753   2.273  15.407  0.7457 -1.1193  1.6739
 6191TIP3    H239989   4.789   2.175  15.297 -0.2835  0.4954 -0.1846
 6192TIP3   OH239990   1.993   2.628   6.480  0.3701 -0.1383  0.1269
 6192TIP3    H139991   2.038   2.582   6.551 -1.6713 -0.0815  1.5578
 6192TIP3    H239992   1.927   2.681   6.525 -3.8274 -3.1236 -1.8508
 6193TIP3   OH239993   2.231   5.204  14.964  0.1305  0.1675 -0.7519
 6193TIP3    H139994   2.255   5.177  14.875 -1.4388  0.1665 -1.2075
 6193TIP3    H239995   2.169   5.276  14.952  0.0200  0.2763  0.3413
 6194TIP3   OH239996   3.037   1.889   0.594 -0.3545 -0.0347  0.0973
 6194TIP3    H139997   2.993   1.969   0.625 -0.2713  1.1948 -2.6876
 6194TIP3    H239998   2.981   1.856   0.524  0.2837 -1.7237  0.3388
 6195TIP3   OH239999   6.794   1.479   1.399 -0.4517  0.2777  0.4242
 6195TIP3    H140000   6.813   1.405   1.456  1.3665 -1.3722 -2.1291
 6195TIP3    H240001   6.701   1.470   1.378 -0.4425 -0.7859  0.8151
 6196TIP3   OH240002   2.107   5.891   0.255 -0.2302 -0.0822 -0.4803
 6196TIP3    H140003   2.079   5.803   0.280  2.2120 -0.2692  2.1141
 6196TIP3    H240004   2.143   5.882   0.167 -2.1517 -1.0893 -1.2332
 6197TIP3   OH240005   3.033   0.788  14.876  0.0645 -0.6633 -0.6240
 6197TIP3    H140006   2.978   0.772  14.953  3.9422 -0.9996  2.3950
 6197TIP3    H240007   3.003   0.871  14.841 -0.8781  0.3372  2.3055
 6198TIP3   OH240008   1.185   2.695  10.756  0.4118 -0.1686 -0.3313
 6198TIP3    H140009   1.090   2.708  10.765  0.3879 -0.8471  0.6363
 6198TIP3    H240010   1.213   2.665  10.843  1.7090  1.1084 -0.2792
 6199TIP3   OH240011   4.655   5.104   1.570 -0.3764  0.5262  0.2815
 6199TIP3    H140012   4.630   5.014   1.591  0.0633  0.0848 -1.0017
 6199TIP3    H240013   4.721   5.127   1.635  0.3327 -0.4868 -0.0733
 6200TIP3   OH240014   5.216   5.267  16.215  0.5961  0.6104 -0.1234
 6200TIP3    H140015   5.222   5.207  16.289 -2.0515 -2.4577 -2.1381
 6200TIP3    H240016   5.307   5.279  16.187  1.4074 -0.4468  1.8398
 6201TIP3   OH240017   1.838   5.907  16.884  0.2958  0.0673 -0.5001
 6201TIP3    H140018   1.786   5.827  16.890 -0.2323  0.1537 -2.9780
 6201TIP3    H240019   1.789   5.971  16.936 -0.1307 -0.7681  0.1595
 6202TIP3   OH240020   4.404   2.581  11.684  0.4323  0.4717 -0.0648
 6202TIP3    H140021   4.351   2.502  11.687  0.1634  0.6678  0.4723
 6202TIP3    H240022   4.462   2.568  11.608  1.7845 -1.1220  1.1654
 6203TIP3   OH240023   5.860   1.835   2.971 -0.1920  0.3393  0.5618
 6203TIP3    H140024   5.950   1.857   2.993 -0.4384  0.6267  1.3403
 6203TIP3    H240025   5.867   1.769   2.903  0.5945  1.9525 -1.0102
 6204TIP3   OH240026   5.932   2.103   5.529  0.6670 -0.1612  0.0898
 6204TIP3    H140027   5.946   2.046   5.605  0.6587 -0.4652 -0.1351
 6204TIP3    H240028   5.894   2.183   5.565  1.3173 -0.0279  0.4966
 6205TIP3   OH240029   5.665   4.012   2.763 -0.8219 -0.4805 -0.3245
 6205TIP3    H140030   5.740   4.056   2.804 -1.0276 -0.5438  0.1325
 6205TIP3    H240031   5.590   4.067   2.787 -1.1150 -1.1994  0.4627
 6206TIP3   OH240032   0.844   3.844  10.504 -0.1262 -0.9212  0.3504
 6206TIP3    H140033   0.880   3.823  10.591  1.9965  1.7606  0.2525
 6206TIP3    H240034   0.761   3.888  10.523  2.1758  3.4266  1.4992
 6207TIP3   OH240035   3.628   4.489  13.766 -0.4121  1.0498 -0.4339
 6207TIP3    H140036   3.634   4.454  13.855 -3.7701  2.1438  0.3634
 6207TIP3    H240037   3.598   4.579  13.777 -1.7874  0.9492 -2.6564
 6208TIP3   OH240038   1.643   4.385   6.251  0.2596  0.0606 -0.2351
 6208TIP3    H140039   1.587   4.446   6.203  1.0241  0.2427 -0.9293
 6208TIP3    H240040   1.606   4.299   6.234 -0.1333  0.2286 -0.2301
 6209TIP3   OH240041   6.781   4.155  11.641  0.1695 -0.0978  0.5728
 6209TIP3    H140042   6.827   4.239  11.648 -0.0381  0.0796 -0.1550
 6209TIP3    H240043   6.796   4.113  11.726  0.8138  0.3976  0.7123
 6210TIP3   OH240044   0.788   4.120   1.651 -0.5652 -0.2040 -0.0730
 6210TIP3    H140045   0.791   4.062   1.575  1.5272 -0.5414  0.2129
 6210TIP3    H240046   0.697   4.115   1.682 -1.4426 -0.1020 -2.4816
 6211TIP3   OH240047   1.181   3.297  11.907  0.0680  0.2781  0.1635
 6211TIP3    H140048   1.187   3.205  11.881  1.7889  0.6322 -0.8719
 6211TIP3    H240049   1.242   3.342  11.848  2.0079  1.5867  2.9676
 6212TIP3   OH240050   4.432   5.082  13.409  0.3523 -0.0147 -0.3488
 6212TIP3    H140051   4.448   5.009  13.468 -0.7936  0.0561  0.0605
 6212TIP3    H240052   4.518   5.125  13.401  0.1321  1.3385  3.0734
 6213TIP3   OH240053   1.987   0.396   4.177 -0.5893 -0.1274  0.5469
 6213TIP3    H140054   1.904   0.442   4.186 -0.7096 -0.2282 -0.0003
 6213TIP3    H240055   1.975   0.315   4.226 -1.2595 -0.7177 -0.5600
 6214TIP3   OH240056   5.729   1.990   3.696  0.4761 -0.1281  0.5093
 6214TIP3    H140057   5.756   2.011   3.785  0.1313  2.7661  0.0535
 6214TIP3    H240058   5.801   2.022   3.641  0.9625 -2.4053 -0.2860
 6215TIP3   OH240059   1.164   2.769  13.471 -0.7156 -0.4025 -0.0356
 6215TIP3    H140060   1.237   2.718  13.435 -0.6336  0.0643 -0.5359
 6215TIP3    H240061   1.206   2.836  13.525 -0.8541 -1.4124  1.3711
 6216TIP3   OH240062   1.823   3.288  13.248 -0.4124  0.0601  1.0132
 6216TIP3    H140063   1.807   3.377  13.280 -1.0659  0.3925 -0.1478
 6216TIP3    H240064   1.879   3.300  13.172 -0.0973 -0.5699  1.1442
 6217TIP3   OH240065   4.964   2.067   0.422  0.1692 -0.4531  0.4157
 6217TIP3    H140066   5.032   2.061   0.355  0.4009 -1.4734  0.7292
 6217TIP3    H240067   4.910   1.989   0.408 -0.3017 -0.2131  0.8631
 6218TIP3   OH240068   3.623   2.748  14.353 -0.2430 -0.4929  0.6233
 6218TIP3    H140069   3.559   2.819  14.345  0.4044  0.2626  1.8659
 6218TIP3    H240070   3.691   2.783  14.409  1.1029 -1.4297 -0.3692
 6219TIP3   OH240071   0.075   6.484   5.805 -0.5012  0.2163  0.1610
 6219TIP3    H140072   0.035   6.412   5.758 -1.8947  0.4953  0.8739
 6219TIP3    H240073   0.156   6.503   5.756 -1.9785  0.6647 -2.2624
 6220TIP3   OH240074   6.446   3.648   0.969 -0.1552 -0.0886  0.5301
 6220TIP3    H140075   6.539   3.652   0.947 -0.3263  1.3953 -0.0381
 6220TIP3    H240076   6.415   3.737   0.955 -2.2810 -1.1041 -2.0783
 6221TIP3   OH240077   6.413   5.590  16.792 -0.2514 -0.1813 -0.2016
 6221TIP3    H140078   6.470   5.628  16.725  0.2896 -0.5135  0.0622
 6221TIP3    H240079   6.325   5.600  16.757  0.0782 -1.1498 -1.3785
 6222TIP3   OH240080   4.448   5.209   1.060 -0.1446  0.6090 -0.8740
 6222TIP3    H140081   4.503   5.267   1.007  0.8140  0.2974 -0.2381
 6222TIP3    H240082   4.435   5.132   1.005  1.5399 -0.0704 -0.3790
 6223TIP3   OH240083   2.127   4.971  12.728  0.3308 -0.4649 -0.1323
 6223TIP3    H140084   2.085   4.894  12.690 -0.7384  0.8024 -1.6467
 6223TIP3    H240085   2.187   5.001  12.660  1.3627 -0.4150  0.7719
 6224TIP3   OH240086   6.776   4.580   3.136  0.6764  0.1723 -0.1579
 6224TIP3    H140087   6.744   4.491   3.121  0.5735  0.1237  0.3132
 6224TIP3    H240088   6.841   4.595   3.068 -0.5952  0.3977 -1.3691
 6225TIP3   OH240089   3.283   6.565   0.229 -1.0613  0.1800 -0.0684
 6225TIP3    H140090   3.367   6.530   0.198 -1.1018 -0.1073  0.1417
 6225TIP3    H240091   3.293   6.571   0.323 -1.4241 -0.2497  0.0015
 6226TIP3   OH240092   6.247   3.344   1.985 -0.0676 -0.1349  0.0122
 6226TIP3    H140093   6.285   3.322   2.071  0.7899 -1.1050 -0.5859
 6226TIP3    H240094   6.293   3.424   1.959 -0.8979  0.6198  0.7870
 6227TIP3   OH240095   3.032   0.346  16.889 -0.2753  0.3652  0.1845
 6227TIP3    H140096   2.996   0.384  16.809  1.0405 -0.4873 -0.8643
 6227TIP3    H240097   3.064   0.260  16.862 -0.5141 -0.2635  1.8229
 6228TIP3   OH240098   4.917   2.994  16.421 -0.2188  0.5169  0.2362
 6228TIP3    H140099   4.991   3.049  16.397  0.0566  0.6979  1.4320
 6228TIP3    H240100   4.938   2.961  16.508 -1.7039  0.8555  0.7630
 6229TIP3   OH240101   6.522   2.317  10.887 -0.2962  0.1534  0.5380
 6229TIP3    H140102   6.582   2.243  10.896 -1.4342 -0.6001  2.5635
 6229TIP3    H240103   6.520   2.358  10.973  1.2575  3.4293 -0.7828
 6230TIP3   OH240104   1.951   5.624  13.529  0.5085 -0.1556  0.0723
 6230TIP3    H140105   1.923   5.561  13.463  0.1911 -1.1043  1.0880
 6230TIP3    H240106   2.042   5.601  13.547 -0.0750 -1.4282  1.6257
 6231TIP3   OH240107   0.206   4.859  15.898  0.6676 -0.2803  0.1176
 6231TIP3    H140108   0.142   4.921  15.863  1.1010  1.7058  2.5702
 6231TIP3    H240109   0.153   4.785  15.927 -0.0959 -0.1894 -0.9683
 6232TIP3   OH240110   4.054   0.268   1.138  0.0663  0.0442  0.0482
 6232TIP3    H140111   4.055   0.334   1.068  0.8750 -0.1702 -0.1600
 6232TIP3    H240112   3.962   0.248   1.151 -0.2103  1.4063  0.2908
 6233TIP3   OH240113   5.619   3.660   3.480  0.1236  0.0157 -0.1803
 6233TIP3    H140114   5.630   3.728   3.547  1.5720  0.0201 -0.3948
 6233TIP3    H240115   5.610   3.579   3.530  2.0518 -0.0941  0.0353
 6234TIP3   OH240116   2.380   1.688   4.898 -0.0364  0.3117  0.0578
 6234TIP3    H140117   2.472   1.689   4.925 -0.0231 -0.7577  0.1114
 6234TIP3    H240118   2.340   1.621   4.953 -0.9903  1.1916  0.4514
 6235TIP3   OH240119   4.666   1.976   1.175 -0.3943  0.1656 -0.0018
 6235TIP3    H140120   4.716   1.897   1.155 -0.4022 -0.0204  0.6950
 6235TIP3    H240121   4.591   1.945   1.225  0.1378  0.7134  1.1810
 6236TIP3   OH240122   1.058   4.717  16.517  1.0124 -0.8933  0.1488
 6236TIP3    H140123   1.151   4.719  16.540  0.8189 -1.2430  1.0185
 6236TIP3    H240124   1.031   4.627  16.536  0.6777 -1.0302 -0.8960
 6237TIP3   OH240125   6.782   0.583  13.625  0.2880  0.1491  0.3152
 6237TIP3    H140126   6.797   0.640  13.550  0.7855 -1.2256 -0.6714
 6237TIP3    H240127   6.694   0.549  13.613  0.4075 -0.1576  0.2813
 6238TIP3   OH240128   2.523   6.175  12.251  0.4073 -0.6738 -0.1055
 6238TIP3    H140129   2.442   6.223  12.262  0.1367 -0.3369 -2.7416
 6238TIP3    H240130   2.541   6.136  12.336 -3.0112 -1.5321  0.3607
 6239TIP3   OH240131   6.435   3.400  13.804 -0.8895  0.1267  0.2652
 6239TIP3    H140132   6.423   3.465  13.735  0.2882  0.0236 -0.0716
 6239TIP3    H240133   6.479   3.447  13.875 -1.3264  0.0328  0.6006
 6240TIP3   OH240134   4.245   0.450  10.779 -0.1177 -0.6359 -0.1391
 6240TIP3    H140135   4.162   0.499  10.782  0.8344  1.0156  1.9384
 6240TIP3    H240136   4.219   0.359  10.789 -1.6670 -0.0543  1.9753
 6241TIP3   OH240137   0.222   0.931   4.712 -0.1989 -0.2768 -0.1206
 6241TIP3    H140138   0.138   0.897   4.679 -0.1899 -0.5681  0.1528
 6241TIP3    H240139   0.197   0.983   4.788 -0.3580  1.4547 -1.2908
 6242TIP3   OH240140   6.812   5.673   0.694  0.5293  0.0995 -0.3374
 6242TIP3    H140141   6.807   5.595   0.749 -0.7650  0.8700  0.7193
 6242TIP3    H240142   6.825   5.640   0.605  0.0384 -1.3076  0.0905
 6243TIP3   OH240143   3.760   4.434  14.634 -0.0219 -0.0366 -1.1737
 6243TIP3    H140144   3.826   4.446  14.702 -0.5412 -1.5335 -0.3567
 6243TIP3    H240145   3.686   4.487  14.664  0.0550 -0.0167 -1.0164
 6244TIP3   OH240146   5.179   3.063  12.300 -0.1390  0.1717  0.3973
 6244TIP3    H140147   5.254   3.099  12.251 -1.0771 -0.0838 -1.3312
 6244TIP3    H240148   5.171   2.973  12.268 -1.1060  0.1685  0.6238
 6245TIP3   OH240149   6.670   5.249  16.160  0.3751 -0.4403  0.1181
 6245TIP3    H140150   6.747   5.193  16.168 -1.7469 -3.2670  2.8856
 6245TIP3    H240151   6.625   5.217  16.082  1.7681  1.1744 -1.4684
 6246TIP3   OH240152   4.754   0.685   0.559 -0.2903 -0.6083 -0.6581
 6246TIP3    H140153   4.691   0.683   0.631  0.6647 -0.2934  0.2313
 6246TIP3    H240154   4.834   0.721   0.599  0.4317 -0.9390 -1.7493
 6247TIP3   OH240155   1.638   2.024  12.163  0.4162 -0.4458  0.1814
 6247TIP3    H140156   1.657   1.933  12.185  1.2837 -0.2773  0.1485
 6247TIP3    H240157   1.545   2.024  12.138  0.5140 -1.3898 -0.2149
 6248TIP3   OH240158   4.666   4.196  11.134 -0.1491  0.3781  0.6125
 6248TIP3    H140159   4.654   4.230  11.223 -1.3860 -0.5589  0.8221
 6248TIP3    H240160   4.584   4.217  11.089 -0.0669 -0.3812  0.1033
 6249TIP3   OH240161   3.853   1.339   3.060 -0.0854 -0.3660 -0.3500
 6249TIP3    H140162   3.842   1.392   2.980  0.1219 -0.0839 -0.1924
 6249TIP3    H240163   3.764   1.331   3.095  0.0326  1.0150  0.3444
 6250TIP3   OH240164   2.451   5.874  15.105 -0.2829  0.4554  0.3060
 6250TIP3    H140165   2.419   5.964  15.107 -0.4505  0.4303 -0.8057
 6250TIP3    H240166   2.509   5.868  15.181 -0.5085  1.4024  0.5728
 6251TIP3   OH240167   5.411   2.895   6.192 -1.0869  0.4001 -0.4415
 6251TIP3    H140168   5.386   2.968   6.136 -2.1341  0.6956  0.3707
 6251TIP3    H240169   5.400   2.929   6.281  0.2198 -0.1596 -0.0453
 6252TIP3   OH240170   1.047   1.958   0.200  0.4933  0.3963 -0.1971
 6252TIP3    H140171   1.127   1.954   0.147  0.7112  1.3963  0.0452
 6252TIP3    H240172   1.033   1.867   0.228  0.2334 -0.2106 -2.1517
 6253TIP3   OH240173   5.276   6.015  14.514 -0.2664  0.1072  0.2741
 6253TIP3    H140174   5.262   6.014  14.419 -0.9492  1.5766  0.3225
 6253TIP3    H240175   5.371   6.015  14.525 -0.1115  2.7437 -0.5339
 6254TIP3   OH240176   5.698   0.823  12.876  0.1838  0.1553 -0.4148
 6254TIP3    H140177   5.677   0.835  12.783 -2.4659  0.2767  0.1084
 6254TIP3    H240178   5.726   0.910  12.906 -2.2331  1.0091 -0.4257
 6255TIP3   OH240179   1.836   2.889   1.137 -0.3360 -0.2082  0.5341
 6255TIP3    H140180   1.906   2.828   1.162 -0.5903 -0.8348 -0.2655
 6255TIP3    H240181   1.787   2.903   1.218  0.3854 -0.1810  0.9802
 6256TIP3   OH240182   6.655   2.813   5.467 -0.6559 -0.6294 -0.1850
 6256TIP3    H140183   6.560   2.814   5.457 -0.6403 -0.1393 -0.3049
 6256TIP3    H240184   6.676   2.722   5.489 -1.1608 -0.7172 -0.0572
 6257TIP3   OH240185   3.609   5.809  13.492 -0.5177  0.2403 -0.0883
 6257TIP3    H140186   3.596   5.758  13.572 -2.3202 -0.3406 -0.7048
 6257TIP3    H240187   3.592   5.900  13.519 -2.1826 -0.0702  0.0029
 6258TIP3   OH240188   3.492   3.655   1.197 -0.0501  0.0154  0.4222
 6258TIP3    H140189   3.560   3.625   1.137  0.0375 -1.1729  1.0734
 6258TIP3    H240190   3.433   3.580   1.205  0.7532 -0.4322  2.9481
 6259TIP3   OH240191   3.376   1.173   2.705 -0.5260  0.5934 -0.1614
 6259TIP3    H140192   3.415   1.189   2.619  0.2073 -0.6863 -0.0962
 6259TIP3    H240193   3.323   1.094   2.693 -1.4796  1.1379  0.2673
 6260TIP3   OH240194   0.395   2.459  15.577  0.4334  0.7873 -0.1125
 6260TIP3    H140195   0.394   2.403  15.655 -1.2586  0.7527 -0.1220
 6260TIP3    H240196   0.481   2.443  15.537  0.7477 -0.3203  0.9382
 6261TIP3   OH240197   2.257   4.669  15.586 -0.1367  0.2871 -0.0656
 6261TIP3    H140198   2.282   4.595  15.532 -0.8090  0.5410 -0.7408
 6261TIP3    H240199   2.184   4.710  15.540  0.5500  1.6788  0.0128
 6262TIP3   OH240200   2.449   3.810   1.913 -0.0074  0.2078  0.1488
 6262TIP3    H140201   2.461   3.817   1.818 -0.2858 -1.7387 -0.0802
 6262TIP3    H240202   2.498   3.883   1.949  2.5464 -0.6496 -1.3457
 6263TIP3   OH240203   4.247   0.837   0.555 -0.0522  0.0120  0.1917
 6263TIP3    H140204   4.280   0.838   0.644 -2.1479 -0.5186  1.0364
 6263TIP3    H240205   4.155   0.812   0.564 -0.0154 -1.2930 -2.2141
 6264TIP3   OH240206   1.284   1.541  14.748  0.1998  0.0711 -0.5592
 6264TIP3    H140207   1.259   1.532  14.657 -3.1252  1.4076  0.0997
 6264TIP3    H240208   1.278   1.634  14.766  0.4371 -0.1972  1.1100
 6265TIP3   OH240209   0.952   6.411   3.242 -0.2188  0.1912  0.1654
 6265TIP3    H140210   0.879   6.374   3.193  0.1364 -1.5613  0.8524
 6265TIP3    H240211   1.008   6.335   3.261  1.2065  1.3055  0.6219
 6266TIP3   OH240212   2.718   1.346   0.220  0.3909  0.1353  0.1392
 6266TIP3    H140213   2.807   1.311   0.212  0.2624 -0.4812  1.2327
 6266TIP3    H240214   2.693   1.327   0.311 -0.1865  1.8955  0.3872
 6267TIP3   OH240215   6.630   2.404   4.897  0.3667  0.5645  0.1721
 6267TIP3    H140216   6.581   2.333   4.856  1.8928  1.0473 -2.7042
 6267TIP3    H240217   6.721   2.377   4.890  1.0352  2.9905 -1.5409
 6268TIP3   OH240218   3.172   0.902  12.643 -0.3847 -0.2743  0.2933
 6268TIP3    H140219   3.250   0.883  12.694 -0.4442 -0.1316  0.4363
 6268TIP3    H240220   3.109   0.936  12.706 -0.3787  0.1247  0.0866
 6269TIP3   OH240221   1.652   0.916  15.485  0.1773  0.8343 -0.3322
 6269TIP3    H140222   1.655   0.958  15.399 -0.2745  1.3096 -0.1237
 6269TIP3    H240223   1.703   0.974  15.542  1.5149 -0.1075 -0.5225
 6270TIP3   OH240224   2.983   4.043  11.546 -0.3447  0.2040  0.1583
 6270TIP3    H140225   3.073   4.009  11.543 -0.4371 -0.0181 -0.0629
 6270TIP3    H240226   2.933   3.985  11.489 -0.6201  0.3605  0.2394
 6271TIP3   OH240227   1.075   0.993   3.246  0.3425  0.0683  0.0797
 6271TIP3    H140228   1.125   0.939   3.185  1.5611 -0.8074  1.7697
 6271TIP3    H240229   1.129   1.072   3.258 -0.7857  1.1215 -1.3325
 6272TIP3   OH240230   2.875   4.916   1.224  0.7610  0.2842  0.6671
 6272TIP3    H140231   2.830   4.862   1.159  0.2900  0.4051  0.8899
 6272TIP3    H240232   2.939   4.857   1.264  0.0303 -0.2006  1.1334
 6273TIP3   OH240233   1.003   2.798  11.831 -0.0550  0.0136 -0.3976
 6273TIP3    H140234   1.001   2.759  11.918 -0.3389 -1.4858 -1.0303
 6273TIP3    H240235   0.933   2.753  11.783  0.0667  0.8308 -1.3855
 6274TIP3   OH240236   2.175   2.382   6.096  0.5132 -0.0402 -0.5528
 6274TIP3    H140237   2.234   2.417   6.029  2.0565  1.3498  1.4035
 6274TIP3    H240238   2.213   2.411   6.179 -2.4190  0.0958  0.8891
 6275TIP3   OH240239   1.766   1.322  10.996 -0.4202  0.2196 -0.5955
 6275TIP3    H140240   1.672   1.312  10.982 -0.0947 -1.1506 -2.1088
 6275TIP3    H240241   1.807   1.282  10.919  1.4107  1.4326 -0.3484
 6276TIP3   OH240242   1.370   6.357  14.260  0.3540 -0.8524  0.2097
 6276TIP3    H140243   1.453   6.401  14.279  0.3433 -1.2800  1.2925
 6276TIP3    H240244   1.394   6.269  14.234  0.2488 -1.0007  0.5983
 6277TIP3   OH240245   4.275   5.062  12.418 -0.4180  0.3796 -0.0303
 6277TIP3    H140246   4.179   5.061  12.415 -0.4519 -0.7066  0.7903
 6277TIP3    H240247   4.299   5.140  12.368 -1.7191  0.5822 -0.3990
 6278TIP3   OH240248   1.808   3.457  12.760  0.7459 -0.8254  0.5835
 6278TIP3    H140249   1.775   3.368  12.766  0.0045 -0.6597 -0.5927
 6278TIP3    H240250   1.849   3.461  12.673 -1.2018  0.5798 -0.3472
 6279TIP3   OH240251   4.478   2.132  14.331  0.1763 -0.8440 -0.1317
 6279TIP3    H140252   4.523   2.216  14.329 -1.1577 -0.0895  0.3958
 6279TIP3    H240253   4.472   2.106  14.238  1.4849 -0.8813 -0.2233
 6280TIP3   OH240254   0.970   3.890   0.029  0.1830 -0.1507  0.3708
 6280TIP3    H140255   1.009   3.917   0.113 -0.9032 -1.2693  1.2629
 6280TIP3    H240256   0.903   3.827   0.053  0.1496 -0.8336 -1.3960
 6281TIP3   OH240257   2.447   5.365   2.863  0.7922 -0.0685  0.2385
 6281TIP3    H140258   2.424   5.346   2.954 -1.2945 -0.0882 -0.2423
 6281TIP3    H240259   2.444   5.461   2.858 -2.0841 -0.1006 -0.4288
 6282TIP3   OH240260   1.540   6.758  11.009 -0.4910  0.9689  0.3439
 6282TIP3    H140261   1.581   6.843  11.023  1.0382  0.5962 -1.6146
 6282TIP3    H240262   1.599   6.695  11.050 -1.0260  0.7355  0.7712
 6283TIP3   OH240263   3.959   4.503  12.291  0.5590 -0.2987  0.6281
 6283TIP3    H140264   3.982   4.595  12.305  0.3900 -0.2433  0.5443
 6283TIP3    H240265   3.897   4.505  12.219 -0.4965 -0.3538  1.5087
 6284TIP3   OH240266   6.157   3.233  13.384 -0.0035  0.3735  0.3567
 6284TIP3    H140267   6.083   3.268  13.335  0.1800  1.7960  1.0408
 6284TIP3    H240268   6.188   3.159  13.332 -2.5037 -0.8888  0.5577
 6285TIP3   OH240269   6.102   6.316   0.140 -0.6330 -0.4024  0.5468
 6285TIP3    H140270   6.051   6.245   0.178 -0.9831 -0.2257  0.4130
 6285TIP3    H240271   6.144   6.277   0.064 -2.5157  0.0353 -0.7999
 6286TIP3   OH240272   6.279   5.040   4.571 -0.4009  0.1798  0.1934
 6286TIP3    H140273   6.248   5.117   4.618 -1.1525 -0.5468  0.9149
 6286TIP3    H240274   6.205   4.979   4.574 -0.1585 -0.2155 -1.1860
 6287TIP3   OH240275   1.158   2.913  12.127 -0.5555  0.2237  0.0924
 6287TIP3    H140276   1.098   2.840  12.142 -0.1056  0.1685  1.7996
 6287TIP3    H240277   1.110   2.990  12.159 -0.5645  0.5166 -0.6046
 6288TIP3   OH240278   2.907   1.994  11.645 -0.3163 -0.2829  0.0849
 6288TIP3    H140279   2.959   2.014  11.568 -0.4227  2.1415  0.5339
 6288TIP3    H240280   2.832   1.945  11.612 -1.0705  1.8566 -1.6657
 6289TIP3   OH240281   0.086   2.366  14.934 -0.3869 -0.3218  0.0578
 6289TIP3    H140282   0.178   2.354  14.960 -0.1633  2.6039  1.0350
 6289TIP3    H240283   0.039   2.376  15.016 -0.7029  2.9659 -0.3770
 6290TIP3   OH240284   4.278   0.437   3.923  0.3490 -0.2347  0.2690
 6290TIP3    H140285   4.224   0.494   3.978  0.5429  0.0523  0.1631
 6290TIP3    H240286   4.304   0.492   3.849  0.1208 -0.6051 -0.0953
 6291TIP3   OH240287   4.449   6.736  11.503  0.3144  0.9092 -0.6226
 6291TIP3    H140288   4.438   6.642  11.488 -2.3818  0.9811  0.3367
 6291TIP3    H240289   4.544   6.748  11.509  0.7358 -1.8458 -0.1860
 6292TIP3   OH240290   1.859   2.523  11.712  0.2787  0.2032 -0.6027
 6292TIP3    H140291   1.902   2.505  11.628 -0.5740 -0.2866 -0.9452
 6292TIP3    H240292   1.818   2.441  11.737  2.1036 -0.2308  1.2870
 6293TIP3   OH240293   5.711   5.472  16.289 -0.2260 -0.2486 -0.2320
 6293TIP3    H140294   5.616   5.463  16.287 -0.3036  0.3750  0.3588
 6293TIP3    H240295   5.738   5.466  16.198 -0.7683 -1.0489 -0.3461
 6294TIP3   OH240296   4.475   2.623   3.679  0.2561  0.2384  0.1353
 6294TIP3    H140297   4.528   2.659   3.609  0.0702 -1.5048 -0.9827
 6294TIP3    H240298   4.538   2.585   3.740  0.3876 -0.6902 -0.5404
 6295TIP3   OH240299   6.785   4.877  10.831  0.8643  0.3954 -0.0266
 6295TIP3    H140300   6.799   4.962  10.790 -0.1205  0.5299 -0.1062
 6295TIP3    H240301   6.707   4.842  10.789  1.1522 -0.4719  0.1367
 6296TIP3   OH240302   2.459   2.874   0.057 -0.5046 -0.4429 -0.0467
 6296TIP3    H140303   2.527   2.937   0.077  0.6589 -1.2942 -1.1367
 6296TIP3    H240304   2.469   2.806   0.124 -1.5004  0.2898  0.8867
 6297TIP3   OH240305   3.522   5.335  11.312 -0.4348 -0.3931 -0.3644
 6297TIP3    H140306   3.589   5.388  11.354 -0.6429 -1.1828  1.0024
 6297TIP3    H240307   3.500   5.384  11.232  0.6241  0.6617 -0.0408
 6298TIP3   OH240308   4.858   5.060  16.452  0.1218 -0.1170 -0.4418
 6298TIP3    H140309   4.848   4.972  16.487  1.6258  0.4247  1.5032
 6298TIP3    H240310   4.774   5.103  16.469  0.1429 -0.4961  0.6633
 6299TIP3   OH240311   4.348   2.450   3.968  0.0018  0.4582  0.2789
 6299TIP3    H140312   4.358   2.545   3.959  0.6903  0.2823 -1.0485
 6299TIP3    H240313   4.436   2.416   3.959 -0.2795 -0.3421  0.4833
 6300TIP3   OH240314   0.949   5.266  15.095 -0.3722  0.0840  0.7043
 6300TIP3    H140315   0.941   5.189  15.151 -2.0384 -0.8106 -0.6623
 6300TIP3    H240316   0.961   5.339  15.156 -1.4384 -0.9208  2.1994
 6301TIP3   OH240317   4.776   5.201   4.167 -0.0156 -0.2573 -0.1612
 6301TIP3    H140318   4.807   5.180   4.079  1.0973 -0.0768  0.1679
 6301TIP3    H240319   4.822   5.282   4.190 -0.4008 -0.2292  0.5271
 6302TIP3   OH240320   0.148   3.313  10.785 -0.0140 -0.3551 -0.1101
 6302TIP3    H140321   0.086   3.255  10.740 -0.1891 -0.4731  0.2762
 6302TIP3    H240322   0.232   3.269  10.778  0.1456  0.0967 -1.1671
 6303TIP3   OH240323   3.739   0.042   0.502  0.2949 -0.1478 -0.5762
 6303TIP3    H140324   3.787  -0.028   0.458  0.5664  1.3058 -2.7126
 6303TIP3    H240325   3.647   0.019   0.491  0.3862 -0.2815 -1.0695
 6304TIP3   OH240326   2.615   2.074   1.335 -0.4556 -0.1030  0.4669
 6304TIP3    H140327   2.677   2.001   1.329 -0.3527  0.0674 -1.0620
 6304TIP3    H240328   2.542   2.048   1.280 -0.7640  0.6286  0.5198
 6305TIP3   OH240329   2.995   3.225   5.325  0.5290  0.4825 -0.0219
 6305TIP3    H140330   3.076   3.266   5.293  0.8683  1.3786  1.8979
 6305TIP3    H240331   3.024   3.143   5.364  0.8461  1.6452  2.3526
 6306TIP3   OH240332   3.894   5.664  16.053 -1.0119  0.2771 -0.0961
 6306TIP3    H140333   3.975   5.614  16.060 -0.4612  1.0215 -0.8334
 6306TIP3    H240334   3.824   5.599  16.056 -0.2811 -0.7442 -2.5853
 6307TIP3   OH240335   1.329   0.384  13.325  0.6911 -0.9251  0.6451
 6307TIP3    H140336   1.377   0.433  13.392 -1.3354 -1.5977  2.7354
 6307TIP3    H240337   1.345   0.292  13.347  0.1191 -1.1519  0.1149
 6308TIP3   OH240338   0.830   6.459   5.505  1.2187  0.3851 -0.2929
 6308TIP3    H140339   0.840   6.548   5.471 -0.9411  1.8976  2.6284
 6308TIP3    H240340   0.752   6.463   5.560 -0.3453 -3.9359 -1.8012
 6309TIP3   OH240341   6.645   1.266   0.146  0.1996  0.3368 -0.5342
 6309TIP3    H140342   6.629   1.234   0.235  5.6876 -2.7274 -0.2318
 6309TIP3    H240343   6.616   1.357   0.148 -0.7660  0.1687  4.1046
 6310TIP3   OH240344   2.027   5.503  12.374  0.5948  0.5679  0.7664
 6310TIP3    H140345   2.098   5.534  12.317 -0.1680 -1.5157 -1.5051
 6310TIP3    H240346   1.949   5.506  12.318 -0.5603  0.0716  2.2859
 6311TIP3   OH240347   3.684   0.290   4.283  0.3760  0.2619  0.3348
 6311TIP3    H140348   3.673   0.351   4.356 -0.8826  0.6296 -0.1283
 6311TIP3    H240349   3.776   0.295   4.260  0.8420  0.0130  1.9967
 6312TIP3   OH240350   4.892   6.343   3.024 -0.3447  0.3793 -0.0252
 6312TIP3    H140351   4.937   6.380   2.948  0.0968 -2.0220 -1.0501
 6312TIP3    H240352   4.892   6.413   3.089  0.2802  2.1424 -1.8299
 6313TIP3   OH240353   0.222   2.536  13.669 -0.1116  0.3169  0.1458
 6313TIP3    H140354   0.218   2.572  13.580  1.6033 -0.9936 -0.5079
 6313TIP3    H240355   0.239   2.613  13.725  0.7393  0.9256 -0.8982
 6314TIP3   OH240356   0.076   0.097   1.028  0.1097 -0.4844 -0.2488
 6314TIP3    H140357   0.162   0.068   1.000 -0.2858 -1.4604 -0.4987
 6314TIP3    H240358   0.018   0.077   0.955 -0.4221 -0.3377  0.1216
 6315TIP3   OH240359   2.893   2.885   2.983 -0.0851  0.0381  0.0398
 6315TIP3    H140360   2.826   2.838   3.032 -0.4526 -0.0193 -0.5118
 6315TIP3    H240361   2.976   2.858   3.024 -0.2256 -1.6650 -0.7236
 6316TIP3   OH240362   5.477   1.995  12.376 -0.4760  0.1278 -0.4372
 6316TIP3    H140363   5.571   1.984  12.393 -0.6345 -0.2736  0.1980
 6316TIP3    H240364   5.473   2.070  12.316  0.1100  1.8765  1.5617
 6317TIP3   OH240365   2.798   2.239   3.379  0.0436  0.3216  0.0884
 6317TIP3    H140366   2.849   2.229   3.459  1.5339  0.3641 -0.8192
 6317TIP3    H240367   2.784   2.150   3.348  3.9532  0.3004 -2.2583
 6318TIP3   OH240368   4.896   4.415  14.217  0.4748  0.5400  0.8567
 6318TIP3    H140369   4.819   4.367  14.247 -0.0422 -0.1299 -1.3383
 6318TIP3    H240370   4.915   4.378  14.130  1.5586  2.6271  0.1364
 6319TIP3   OH240371   0.079   1.529   0.519  0.1381  0.0079 -0.3773
 6319TIP3    H140372   0.006   1.580   0.483  0.0829 -0.9879 -1.7741
 6319TIP3    H240373   0.142   1.525   0.447  1.4622  0.5959  0.7091
 6320TIP3   OH240374   6.506   4.579  11.134 -0.2524  0.3250  0.4209
 6320TIP3    H140375   6.424   4.598  11.090 -0.1785  2.2200  1.0127
 6320TIP3    H240376   6.563   4.653  11.114  1.4773 -1.0828 -0.2445
 6321TIP3   OH240377   3.315   5.406   4.608 -0.5624 -0.0479  0.0270
 6321TIP3    H140378   3.400   5.410   4.565 -1.6364 -1.3341 -2.4032
 6321TIP3    H240379   3.326   5.458   4.687  2.0634  1.0056 -0.9197
 6322TIP3   OH240380   4.653   1.906   1.976  0.9788 -0.2661 -0.0008
 6322TIP3    H140381   4.653   1.934   1.884 -0.3859  1.3802  0.4616
 6322TIP3    H240382   4.603   1.824   1.975  2.6972 -1.3595 -0.9840
 6323TIP3   OH240383   4.294   4.904   2.512  0.1399  0.1495  0.6580
 6323TIP3    H140384   4.373   4.882   2.561 -0.5142 -0.4070  1.4857
 6323TIP3    H240385   4.293   4.842   2.439  1.0780  0.9337 -0.0474
 6324TIP3   OH240386   5.273   0.759   5.049  0.0046  0.0193 -0.2847
 6324TIP3    H140387   5.368   0.755   5.061 -0.0746 -1.4892  0.0296
 6324TIP3    H240388   5.243   0.819   5.117  0.7367  0.5229 -0.3977
 6325TIP3   OH240389   1.023   6.641   1.494  0.2252 -0.1136  0.1267
 6325TIP3    H140390   1.046   6.593   1.573 -0.9489 -0.2613  0.4005
 6325TIP3    H240391   0.945   6.595   1.460 -0.4941  1.1453  0.0096
 6326TIP3   OH240392   1.863   2.540  12.488  0.0684 -0.0626  0.4445
 6326TIP3    H140393   1.914   2.513  12.412 -3.8834 -0.6340 -2.3063
 6326TIP3    H240394   1.851   2.459  12.538  2.3297  0.2370  1.6142
 6327TIP3   OH240395   3.841   2.191   0.296  0.1738  0.5082  0.0414
 6327TIP3    H140396   3.771   2.234   0.246  1.7343  2.2550 -0.7775
 6327TIP3    H240397   3.919   2.202   0.242  1.3682 -0.1366  1.5637
 6328TIP3   OH240398   5.157   3.831  10.897  0.4978  0.1273 -0.5663
 6328TIP3    H140399   5.144   3.922  10.869 -0.0923  0.0546 -0.5233
 6328TIP3    H240400   5.246   3.830  10.933  0.9977  0.3902 -1.7480
 6329TIP3   OH240401   6.713   2.297  13.715 -0.0448 -0.5245 -0.0562
 6329TIP3    H140402   6.802   2.279  13.684  0.2275  0.1653  0.3079
 6329TIP3    H240403   6.725   2.361  13.785 -0.6154 -2.1774  1.6388
 6330TIP3   OH240404   1.867   6.728  16.968 -0.3328  0.1127  0.0425
 6330TIP3    H140405   1.876   6.681  16.885 -0.9292  1.0687 -0.5824
 6330TIP3    H240406   1.811   6.672  17.022  1.4445 -1.3487  0.4764
 6331TIP3   OH240407   4.539   4.972   3.744 -0.8301  0.1066  0.0313
 6331TIP3    H140408   4.530   4.996   3.837 -0.4738  0.0714  0.0790
 6331TIP3    H240409   4.614   4.913   3.743  0.5791  1.7919 -0.5542
 6332TIP3   OH240410   5.251   6.531   2.916 -0.2277  0.0340  0.2142
 6332TIP3    H140411   5.273   6.458   2.975  0.7490  0.3361  0.2446
 6332TIP3    H240412   5.237   6.490   2.831 -0.2356 -0.2516  0.3526
 6333TIP3   OH240413   4.942   0.658   2.219  0.1021 -0.5729  0.1529
 6333TIP3    H140414   5.001   0.583   2.212  0.0484 -0.5828 -0.2260
 6333TIP3    H240415   4.972   0.719   2.151 -0.6830 -0.8278 -0.4439
 6334TIP3   OH240416   2.013   4.746  16.994  0.0399  0.1431 -0.1238
 6334TIP3    H140417   1.949   4.791  16.938 -0.7739 -1.5703 -0.6248
 6334TIP3    H240418   2.098   4.772  16.958 -0.3863  1.5350 -0.1742
 6335TIP3   OH240419   5.648   3.616  11.467  0.7581 -0.2333 -0.2134
 6335TIP3    H140420   5.718   3.675  11.494  0.8625 -0.1106 -0.7427
 6335TIP3    H240421   5.682   3.528  11.485  1.0319 -0.1729 -0.4282
 6336TIP3   OH240422   6.639   3.765   1.908 -0.1293 -0.0678 -0.1106
 6336TIP3    H140423   6.558   3.813   1.890  0.4852  2.1240  2.3756
 6336TIP3    H240424   6.688   3.771   1.826 -1.6428  0.2466 -1.0496
 6337TIP3   OH240425   3.557   4.366  16.577 -0.4675 -0.0040  0.2011
 6337TIP3    H140426   3.616   4.294  16.554 -2.2002 -0.8033 -2.2285
 6337TIP3    H240427   3.473   4.324  16.594 -1.0695  1.3154  0.6342
 6338TIP3   OH240428   5.411   3.939   4.862  0.2733  0.1998  0.4932
 6338TIP3    H140429   5.439   3.985   4.941 -1.6356 -0.6064  1.7308
 6338TIP3    H240430   5.415   4.004   4.793  0.0889  1.4951  1.6687
 6339TIP3   OH240431   3.883   4.835  16.496  0.3380 -0.4573 -0.0088
 6339TIP3    H140432   3.826   4.758  16.500  1.9177 -1.6355  3.0447
 6339TIP3    H240433   3.970   4.800  16.480  1.2070  0.5106  2.1360
 6340TIP3   OH240434   2.523   5.646   2.253 -0.0992  0.2169 -0.0744
 6340TIP3    H140435   2.563   5.709   2.312  1.3292  0.3455 -1.1468
 6340TIP3    H240436   2.594   5.589   2.226 -1.2835 -1.6653  0.5812
 6341TIP3   OH240437   4.261   5.664  14.942 -0.7518 -0.0198  1.1520
 6341TIP3    H140438   4.196   5.597  14.921 -1.1529  1.0175 -1.3522
 6341TIP3    H240439   4.345   5.622  14.921 -0.7595 -0.6118  2.2321
 6342TIP3   OH240440   4.060   4.100  15.802 -0.8259 -0.2149 -0.3596
 6342TIP3    H140441   4.107   4.137  15.876 -2.7678  3.7914 -0.8689
 6342TIP3    H240442   3.978   4.068  15.840 -0.2765 -1.6762 -0.3313
 6343TIP3   OH240443   1.472   5.781   5.147  0.2452  0.0032 -0.3840
 6343TIP3    H140444   1.435   5.745   5.066 -0.7473 -0.9276  0.4565
 6343TIP3    H240445   1.519   5.707   5.186 -1.7515 -0.4535  1.3273
 6344TIP3   OH240446   6.248   6.750  15.367 -0.1115 -0.2093  0.6845
 6344TIP3    H140447   6.202   6.691  15.426  0.7146 -0.6903  0.8644
 6344TIP3    H240448   6.217   6.837  15.390 -1.0869 -0.5408  0.6490
 6345TIP3   OH240449   1.456   1.042  12.398 -0.4563  0.3490 -0.3072
 6345TIP3    H140450   1.412   0.970  12.352  0.8301 -1.9914  1.8922
 6345TIP3    H240451   1.546   1.012  12.410  0.3775  2.7417 -0.0394
 6346TIP3   OH240452   3.402   5.265   4.997 -0.5289 -0.1561  0.1085
 6346TIP3    H140453   3.481   5.262   4.944 -0.0990  0.6950  0.6817
 6346TIP3    H240454   3.343   5.324   4.950 -1.0048 -1.1101 -0.5319
 6347TIP3   OH240455   0.296   5.435  14.807  0.4446  0.6774 -0.4013
 6347TIP3    H140456   0.219   5.491  14.820  1.3637  1.4101  2.9201
 6347TIP3    H240457   0.369   5.497  14.802  1.1645 -0.1147  0.1022
 6348TIP3   OH240458   2.025   0.086  12.997 -0.4699  0.4547 -0.0720
 6348TIP3    H140459   1.981   0.162  13.035  0.4905  1.0618 -0.1346
 6348TIP3    H240460   2.048   0.032  13.073  0.8717  1.3547  0.2073
 6349TIP3   OH240461   5.574   2.153   2.885  0.0253 -0.2711  0.3969
 6349TIP3    H140462   5.548   2.221   2.947 -0.0613 -0.3951  0.4971
 6349TIP3    H240463   5.639   2.195   2.829 -0.7732  0.2041 -0.1901
 6350TIP3   OH240464   1.114   5.420   1.423  0.9406  0.1043  0.3206
 6350TIP3    H140465   1.158   5.346   1.465  0.8322 -0.0574  0.1493
 6350TIP3    H240466   1.039   5.439   1.479 -0.0335 -1.0380 -0.5580
 6351TIP3   OH240467   5.016   1.343   4.722  0.8950 -0.3409  0.0234
 6351TIP3    H140468   4.937   1.332   4.775  0.3932 -0.8733 -0.8068
 6351TIP3    H240469   5.076   1.393   4.777 -0.4324  1.0587  0.2666
 6352TIP3   OH240470   0.689   4.066   4.293  0.1227  0.2737  0.2633
 6352TIP3    H140471   0.694   3.997   4.359 -0.9393 -0.3479 -0.2703
 6352TIP3    H240472   0.596   4.087   4.288  0.4099  1.5680  0.2238
 6353TIP3   OH240473   4.113   2.592  12.118  0.2814 -0.6173  0.1374
 6353TIP3    H140474   4.058   2.514  12.119  1.3102 -1.3948 -0.4890
 6353TIP3    H240475   4.054   2.664  12.095 -0.8995 -0.9998  1.8102
 6354TIP3   OH240476   5.510   2.042  12.981  0.2080 -0.0055  0.2959
 6354TIP3    H140477   5.508   2.119  13.037  0.5346 -0.7785  1.4019
 6354TIP3    H240478   5.603   2.020  12.972  0.1007 -0.4669  0.2737
 6355TIP3   OH240479   6.090   0.667  11.325 -0.1676 -0.2645  0.0866
 6355TIP3    H140480   6.104   0.677  11.231  0.7201  1.7921  0.3820
 6355TIP3    H240481   6.017   0.605  11.332 -1.1682  0.5691 -1.9978
 6356TIP3   OH240482   3.853   6.524   3.987  0.4677  0.4205 -0.1571
 6356TIP3    H140483   3.763   6.543   4.013  0.0472  0.4182 -1.5137
 6356TIP3    H240484   3.907   6.567   4.053 -0.5162  1.6451 -0.1208
 6357TIP3   OH240485   0.613   0.603  13.776 -0.5240  0.3504  0.1503
 6357TIP3    H140486   0.523   0.596  13.743 -0.1794  1.7863 -1.2478
 6357TIP3    H240487   0.666   0.613  13.697  0.6561  1.3043  1.0283
 6358TIP3   OH240488   2.652   2.296  13.343 -0.2129 -0.1220 -0.5515
 6358TIP3    H140489   2.678   2.388  13.338 -0.8839  0.1800  1.1342
 6358TIP3    H240490   2.569   2.292  13.296 -0.6272  0.3286  0.1252
 6359TIP3   OH240491   2.384   4.169   0.980 -0.0577 -0.2962  0.4502
 6359TIP3    H140492   2.325   4.189   0.907  3.2883  1.4598 -2.0862
 6359TIP3    H240493   2.409   4.255   1.014  2.3638 -0.8294  0.1807
 6360TIP3   OH240494   2.967   3.556  15.702  0.2751  0.3241  0.5752
 6360TIP3    H140495   3.039   3.559  15.766  0.9139  0.6350 -0.1359
 6360TIP3    H240496   2.932   3.468  15.709  1.3584 -0.1548  0.2783
 6361TIP3   OH240497   2.436   5.724   4.571  0.3244 -0.4962 -0.2542
 6361TIP3    H140498   2.465   5.641   4.609 -0.1915 -0.1813  0.8663
 6361TIP3    H240499   2.356   5.745   4.618  0.4972  0.6902 -0.4675
 6362TIP3   OH240500   1.860   1.687  16.135 -0.9962  0.0387  0.4453
 6362TIP3    H140501   1.899   1.604  16.160 -1.4982 -0.0651  0.8943
 6362TIP3    H240502   1.929   1.733  16.087 -0.8085 -0.7406 -0.0352
 6363TIP3   OH240503   2.461   5.556  13.469 -0.3152  0.1495  0.0101
 6363TIP3    H140504   2.447   5.607  13.390 -0.3083  0.4724  0.2166
 6363TIP3    H240505   2.549   5.579  13.498 -0.1305 -0.3330 -0.1536
 6364TIP3   OH240506   2.351   2.183  11.719 -0.3412  0.4742 -0.3809
 6364TIP3    H140507   2.322   2.181  11.628 -1.7787 -2.1597  0.0434
 6364TIP3    H240508   2.370   2.091  11.741 -2.1851  0.6555  2.5927
 6365TIP3   OH240509   1.569   4.040   1.896 -0.3654 -0.3455 -0.6210
 6365TIP3    H140510   1.611   3.973   1.950 -1.1418  0.0384  0.4985
 6365TIP3    H240511   1.490   4.064   1.944 -0.5109  0.8112 -1.3813
 6366TIP3   OH240512   2.523   0.617   1.836  0.5663  0.3842 -0.5835
 6366TIP3    H140513   2.460   0.561   1.790  0.6290 -0.0187 -0.1899
 6366TIP3    H240514   2.499   0.607   1.929  0.1184  1.5794 -0.5619
 6367TIP3   OH240515   3.412   5.465   0.506  0.1253 -0.3669 -0.1607
 6367TIP3    H140516   3.437   5.537   0.564  2.0757 -1.5991  0.6179
 6367TIP3    H240517   3.453   5.487   0.422 -1.7596  0.8478 -0.8346
 6368TIP3   OH240518   1.082   5.660   0.769  0.6250  0.2051  0.1372
 6368TIP3    H140519   1.100   5.753   0.781  1.7171 -0.0852  0.9015
 6368TIP3    H240520   1.025   5.656   0.692  0.9072  1.4713 -0.1546
 6369TIP3   OH240521   2.244   3.401  12.150 -0.5804  0.1967 -0.1694
 6369TIP3    H140522   2.271   3.338  12.217 -1.3471 -1.8291 -1.6741
 6369TIP3    H240523   2.298   3.478  12.167  1.6702 -1.4568  0.7132
 6370TIP3   OH240524   5.103   3.735   3.560  0.2069  0.4673 -0.2220
 6370TIP3    H140525   5.023   3.722   3.509 -0.2356  0.5608  0.4340
 6370TIP3    H240526   5.174   3.720   3.497 -0.3003 -1.0292 -0.4811
 6371TIP3   OH240527   4.154   0.324  14.202  0.1700  0.8407 -0.0397
 6371TIP3    H140528   4.161   0.245  14.148 -0.9608  0.1764  0.7162
 6371TIP3    H240529   4.059   0.339  14.210  0.3629  2.0891  0.1010
 6372TIP3   OH240530   4.335   0.043   4.846  0.1624 -0.1304 -0.2370
 6372TIP3    H140531   4.333  -0.053   4.845 -2.7897 -0.1577 -1.7930
 6372TIP3    H240532   4.250   0.069   4.880  0.7865  1.9787 -0.1002
 6373TIP3   OH240533   3.463   0.433  16.039  0.1308 -0.0464  0.4115
 6373TIP3    H140534   3.376   0.441  16.079 -0.8119  0.9077 -1.6646
 6373TIP3    H240535   3.499   0.353  16.077 -1.7212 -0.5633  1.2274
 6374TIP3   OH240536   0.851   4.640  14.580 -0.0703  0.0487  0.2693
 6374TIP3    H140537   0.914   4.595  14.525  1.1708  0.8159  1.0074
 6374TIP3    H240538   0.890   4.638  14.668 -0.0881  2.2625  0.3803
 6375TIP3   OH240539   2.312   0.222  11.381 -0.1897 -0.1198 -0.6588
 6375TIP3    H140540   2.360   0.282  11.438 -1.3378  0.4083 -0.2091
 6375TIP3    H240541   2.324   0.258  11.293 -1.0110  0.9217 -0.3791
 6376TIP3   OH240542   3.954   4.853   2.536 -0.1015 -0.0686  0.1620
 6376TIP3    H140543   3.940   4.904   2.616 -3.4381 -1.0883  0.3709
 6376TIP3    H240544   4.007   4.778   2.565 -1.9037 -0.8440  1.6971
 6377TIP3   OH240545   6.357   2.137   1.995  0.0284  0.0067  0.2759
 6377TIP3    H140546   6.322   2.205   1.938 -0.0264  0.9835  1.4354
 6377TIP3    H240547   6.452   2.151   1.993  0.0857 -0.4283 -0.1474
 6378TIP3   OH240548   2.665   4.920  10.879  0.4646 -0.0015  0.5795
 6378TIP3    H140549   2.662   4.971  10.799 -0.0930  2.3264  1.9883
 6378TIP3    H240550   2.737   4.858  10.865  1.2281  1.2007 -1.2068
 6379TIP3   OH240551   1.537   0.298   0.929 -0.5299  0.1751  0.2640
 6379TIP3    H140552   1.491   0.374   0.893 -0.5797 -0.2014 -0.4892
 6379TIP3    H240553   1.531   0.309   1.024 -0.6474  1.0414  0.1644
 6380TIP3   OH240554   1.276   6.123  13.724  1.3272 -0.2823  0.0266
 6380TIP3    H140555   1.262   6.036  13.763  0.2176  1.1596  3.1940
 6380TIP3    H240556   1.193   6.143  13.681  0.7164  0.0666  1.2990
 6381TIP3   OH240557   6.011   0.566  16.994  0.4584  0.5019  0.2839
 6381TIP3    H140558   5.925   0.548  16.956  0.3901  1.4128 -0.0212
 6381TIP3    H240559   6.033   0.486  17.043 -1.4547  0.9689  2.0649
 6382TIP3   OH240560   3.922   0.231  15.975 -0.7602 -0.4819  0.4455
 6382TIP3    H140561   3.931   0.314  16.020 -1.4684  0.1579 -0.5357
 6382TIP3    H240562   3.943   0.251  15.884 -1.2053 -1.3143  0.1517
 6383TIP3   OH240563   6.212   4.428   3.531  0.1578 -0.2500 -0.5340
 6383TIP3    H140564   6.193   4.519   3.507 -0.2158 -0.5997 -1.6234
 6383TIP3    H240565   6.227   4.384   3.447  2.9429 -0.6455  0.0543
 6384TIP3   OH240566   5.491   6.284  11.791  0.1617 -0.0697  0.0673
 6384TIP3    H140567   5.552   6.357  11.782  0.3862 -0.0484  1.5520
 6384TIP3    H240568   5.404   6.323  11.778  0.3907 -0.0542 -1.7732
 6385TIP3   OH240569   2.174   6.453  13.763  0.1703 -0.2848 -0.0968
 6385TIP3    H140570   2.179   6.476  13.856  0.4617  1.4086 -0.4811
 6385TIP3    H240571   2.126   6.371  13.761 -0.0322 -0.2543  1.5343
 6386TIP3   OH240572   6.221   2.749  13.572 -0.5555  0.2738  0.1852
 6386TIP3    H140573   6.307   2.781  13.547 -0.1150 -1.4616 -0.7092
 6386TIP3    H240574   6.189   2.813  13.636  1.5534  0.7593  0.8454
 6387TIP3   OH240575   2.886   6.178  14.986 -0.1904 -0.0995  0.3327
 6387TIP3    H140576   2.891   6.274  14.989 -0.6019 -0.0187 -1.0676
 6387TIP3    H240577   2.900   6.156  14.894 -2.2335 -1.2631  0.2517
 6388TIP3   OH240578   1.804   6.275  11.395 -0.0632 -0.0977 -0.2049
 6388TIP3    H140579   1.720   6.304  11.431 -0.6954 -1.8383 -0.1583
 6388TIP3    H240580   1.866   6.343  11.421 -1.3369  0.9282  0.2849
 6389TIP3   OH240581   5.433   1.764  13.463  0.1059  0.9365 -0.3299
 6389TIP3    H140582   5.359   1.803  13.417  0.3972  0.5971 -1.1182
 6389TIP3    H240583   5.423   1.670  13.449  1.0775  0.9300 -1.0907
 6390TIP3   OH240584   2.111   4.173   3.660  0.4458 -0.0489  0.6474
 6390TIP3    H140585   2.150   4.139   3.580  0.7555 -1.2420  1.2735
 6390TIP3    H240586   2.180   4.165   3.726  1.4018  4.1400  0.3825
 6391TIP3   OH240587   3.628   5.529  16.073 -0.2924 -0.0303  0.1427
 6391TIP3    H140588   3.537   5.533  16.104 -0.6787 -1.3798 -0.7174
 6391TIP3    H240589   3.644   5.436  16.058  1.2344  0.1884  0.2273
 6392TIP3   OH240590   6.326   6.764   2.548  0.4365  0.0903  0.6035
 6392TIP3    H140591   6.240   6.730   2.522 -0.0011  1.3636  0.2773
 6392TIP3    H240592   6.368   6.692   2.594 -0.6048 -0.7288  0.3061
 6393TIP3   OH240593   4.124   6.246   4.150 -0.1818 -0.2991  0.2254
 6393TIP3    H140594   4.150   6.335   4.174 -0.2368 -0.5893  1.3820
 6393TIP3    H240595   4.188   6.220   4.083 -1.0378  1.1281 -1.2233
 6394TIP3   OH240596   2.915   2.673   6.215  0.6023 -0.1396 -0.0683
 6394TIP3    H140597   2.995   2.634   6.252 -0.6607 -1.7938  1.0838
 6394TIP3    H240598   2.864   2.597   6.186 -1.3804  0.7244  0.9946
 6395TIP3   OH240599   1.871   0.731  14.446  1.0434  1.0767 -0.2179
 6395TIP3    H140600   1.844   0.815  14.410  1.8940  0.1228 -3.4747
 6395TIP3    H240601   1.790   0.689  14.473  0.0271  1.2959 -2.6558
 6396TIP3   OH240602   3.565   6.627  14.517  0.0285 -0.4220 -0.0176
 6396TIP3    H140603   3.603   6.696  14.464  3.4210 -2.6988 -0.8891
 6396TIP3    H240604   3.578   6.655  14.608 -0.4203  0.8620 -0.3360
 6397TIP3   OH240605   4.104   5.863  13.622  0.0133 -0.3060 -0.4077
 6397TIP3    H140606   4.020   5.818  13.621 -0.7824  1.0250  1.2913
 6397TIP3    H240607   4.082   5.955  13.635  1.7235  0.0886 -0.0397
 6398TIP3   OH240608   5.443   6.175  16.760 -0.1631 -0.4765  0.1444
 6398TIP3    H140609   5.362   6.182  16.709 -0.1029  1.0174  0.2070
 6398TIP3    H240610   5.434   6.240  16.829  0.5423 -1.2196  0.9694
 6399TIP3   OH240611   0.523   4.048   1.723 -0.4537 -0.1538 -0.8810
 6399TIP3    H140612   0.448   4.067   1.666 -1.4867 -0.1280  0.4365
 6399TIP3    H240613   0.505   3.961   1.759  0.8730 -0.7703 -1.6275
 6400TIP3   OH240614   6.290   4.140  11.363  0.3428 -0.2863 -0.2607
 6400TIP3    H140615   6.226   4.133  11.291  1.9239 -0.7654 -1.6902
 6400TIP3    H240616   6.237   4.162  11.439 -1.6831 -1.6700 -1.1509
 6401TIP3   OH240617   0.926   6.585   4.072  0.0400  0.1590  0.7755
 6401TIP3    H140618   0.833   6.577   4.096 -1.3473  4.9378 -1.6088
 6401TIP3    H240619   0.929   6.551   3.982  0.1400  1.3899  0.2904
 6402TIP3   OH240620   2.581   1.531  10.897 -0.0933  0.5783  0.6037
 6402TIP3    H140621   2.641   1.544  10.823 -0.1803  1.0225  0.6108
 6402TIP3    H240622   2.507   1.587  10.879 -1.9945 -2.1933 -0.9566
 6403TIP3   OH240623   4.504   5.874   3.355  0.2107  0.2085  0.1952
 6403TIP3    H140624   4.506   5.962   3.317 -2.8350  1.1689  1.9225
 6403TIP3    H240625   4.505   5.815   3.279  2.1658  1.6529 -1.0004
 6404TIP3   OH240626   2.613   6.717  10.525  0.0657  0.6883  0.2752
 6404TIP3    H140627   2.677   6.763  10.581  0.1452 -0.7320  1.3899
 6404TIP3    H240628   2.601   6.632  10.566 -1.3076  0.2913 -0.8604
 6405TIP3   OH240629   6.231   4.775  11.411 -0.3471 -0.1936 -0.1270
 6405TIP3    H140630   6.307   4.817  11.371 -0.5360  0.6195  0.3408
 6405TIP3    H240631   6.156   4.820  11.373 -0.5125  1.2909  1.8322
 6406TIP3   OH240632   5.035   0.929   5.715 -0.3818  0.0739 -0.1356
 6406TIP3    H140633   5.059   0.867   5.784 -0.6298 -0.2184 -0.3076
 6406TIP3    H240634   4.967   0.984   5.755 -0.0658  0.3229  0.0604
 6407TIP3   OH240635   1.311   1.248   2.671 -0.0895  0.4660  0.0086
 6407TIP3    H140636   1.312   1.153   2.672  0.8046  0.4568 -0.6439
 6407TIP3    H240637   1.239   1.270   2.611  0.7504  0.1561 -1.1648
 6408TIP3   OH240638   0.558   6.159   5.528  0.2019 -1.1057  0.5623
 6408TIP3    H140639   0.653   6.157   5.517  0.2192  0.2901  0.2343
 6408TIP3    H240640   0.535   6.073   5.563  1.7324 -1.0300  1.8395
 6409TIP3   OH240641   6.136   6.259  11.703  0.4911 -0.5658  0.3244
 6409TIP3    H140642   6.190   6.195  11.749  0.8336 -0.4307  0.1118
 6409TIP3    H240643   6.170   6.344  11.731  1.3344 -0.4744 -0.8973
 6410TIP3   OH240644   0.194   6.813   4.630  0.2847  0.5883 -0.3742
 6410TIP3    H140645   0.277   6.838   4.671  0.4075 -1.1524  0.5209
 6410TIP3    H240646   0.127   6.861   4.680  0.6428  0.9151 -0.2000
 6411TIP3   OH240647   1.695   6.526   1.757 -0.5296  0.2800 -0.1849
 6411TIP3    H140648   1.627   6.589   1.784 -2.2073 -0.2666 -2.6943
 6411TIP3    H240649   1.754   6.578   1.702 -0.9497  0.0718 -0.8554
 6412TIP3   OH240650   1.967   1.193  15.851 -0.3516 -0.5056 -0.0856
 6412TIP3    H140651   1.970   1.106  15.812 -1.5461 -0.8931  0.6364
 6412TIP3    H240652   2.041   1.195  15.911 -0.9067 -1.4120  0.6533
 6413TIP3   OH240653   1.223   5.263  11.027 -0.8306 -0.2192  0.0025
 6413TIP3    H140654   1.167   5.333  10.995  1.2238  0.8915 -1.3518
 6413TIP3    H240655   1.295   5.307  11.072  0.2864 -1.4388 -0.5043
 6414TIP3   OH240656   6.299   2.392   3.821 -0.2172 -0.2044  0.2816
 6414TIP3    H140657   6.316   2.339   3.899  0.0798  0.0466  0.3909
 6414TIP3    H240658   6.216   2.436   3.839  0.8728  1.5125  1.3828
 6415TIP3   OH240659   3.975   1.560  16.127 -0.2558 -0.2064 -0.1377
 6415TIP3    H140660   3.902   1.613  16.160  0.0564 -0.8891  1.7434
 6415TIP3    H240661   3.933   1.483  16.089 -0.6067  0.4293 -1.0687
 6416TIP3   OH240662   0.114   1.749  12.061  0.2366  0.1689  0.0645
 6416TIP3    H140663   0.024   1.718  12.051  0.4797 -0.6550  0.3515
 6416TIP3    H240664   0.167   1.670  12.049  0.9406  0.7189 -0.4779
 6417TIP3   OH240665   4.152   2.930  13.880 -0.1803  0.3552  0.1963
 6417TIP3    H140666   4.152   2.959  13.789 -0.2476  0.4692  0.2328
 6417TIP3    H240667   4.183   2.839  13.876 -0.2959  0.3214  0.0481
 6418TIP3   OH240668   5.647   0.550   3.755 -0.3587  0.1159  0.3009
 6418TIP3    H140669   5.663   0.508   3.839  0.1980 -1.1821 -0.4241
 6418TIP3    H240670   5.733   0.560   3.715 -0.6934 -0.1190 -0.5057
 6419TIP3   OH240671   5.365   4.032  11.693  0.0986 -0.2060  0.5795
 6419TIP3    H140672   5.332   4.121  11.678 -1.3627 -0.2713  2.9426
 6419TIP3    H240673   5.446   4.028  11.641 -1.3364  1.4361 -1.9947
 6420TIP3   OH240674   2.021   4.738   2.738  0.3089 -0.3465  0.0930
 6420TIP3    H140675   2.076   4.732   2.816  1.5550  0.9477 -0.6319
 6420TIP3    H240676   1.990   4.828   2.738  0.7669 -0.1691 -1.1678
 6421TIP3   OH240677   2.448   4.993  15.021 -0.1975  0.3811 -0.7174
 6421TIP3    H140678   2.475   5.064  15.079 -1.3502  2.1770 -2.2313
 6421TIP3    H240679   2.352   4.990  15.030 -0.0609 -2.9960  1.4263
 6422TIP3   OH240680   1.842   3.129  12.177  0.2332 -0.5112 -0.1078
 6422TIP3    H140681   1.800   3.109  12.261 -0.7877 -0.2058 -0.5318
 6422TIP3    H240682   1.893   3.209  12.195  0.8774 -1.0432  0.4843
 6423TIP3   OH240683   6.726   5.062  13.258 -0.0651 -0.0536 -0.0414
 6423TIP3    H140684   6.670   5.069  13.335 -0.2265 -0.4274 -0.1261
 6423TIP3    H240685   6.809   5.028  13.292 -0.1726 -0.3245 -0.0491
 6424TIP3   OH240686   6.683   2.559   3.537 -0.1833 -0.2742 -0.5300
 6424TIP3    H140687   6.597   2.521   3.552 -0.1856 -0.0424  0.0583
 6424TIP3    H240688   6.707   2.600   3.620  0.3417 -0.0314 -0.7908
 6425TIP3   OH240689   4.067   4.969   6.508  0.0623 -0.4988 -0.6230
 6425TIP3    H140690   4.048   4.894   6.565 -2.1367  0.9762  0.7573
 6425TIP3    H240691   4.159   4.960   6.486  0.1198 -3.0541  0.2810
 6426TIP3   OH240692   1.429   0.109  15.101 -0.1729 -0.1989 -0.1284
 6426TIP3    H140693   1.490   0.181  15.113 -0.7848  0.0761  1.6204
 6426TIP3    H240694   1.478   0.031  15.130 -0.3966 -0.0773  0.6013
 6427TIP3   OH240695   1.397   0.940  11.381  0.1014 -0.1395 -0.1501
 6427TIP3    H140696   1.487   0.949  11.411  0.6007  0.4968 -1.7241
 6427TIP3    H240697   1.397   0.860  11.328 -0.8749 -1.5175  1.8350
 6428TIP3   OH240698   3.097   6.255   4.095 -0.6021 -0.4021 -0.2956
 6428TIP3    H140699   3.060   6.301   4.020 -0.7228 -1.1188 -0.6854
 6428TIP3    H240700   3.147   6.183   4.057  0.6580  0.1584  0.2546
 6429TIP3   OH240701   6.320   3.121  11.158  0.1853 -0.8453  0.0343
 6429TIP3    H140702   6.247   3.157  11.107 -0.4317 -0.6758  0.9949
 6429TIP3    H240703   6.375   3.076  11.094  0.5524  1.0955 -1.0941
 6430TIP3   OH240704   0.945   3.623  13.150  0.3853 -1.1069  0.4497
 6430TIP3    H140705   0.890   3.546  13.169  0.0471 -1.1916 -0.7939
 6430TIP3    H240706   0.959   3.664  13.236 -3.8591  0.4430  0.6178
 6431TIP3   OH240707   1.113   6.780  11.221  0.0907 -0.1554  0.1785
 6431TIP3    H140708   1.065   6.833  11.285  0.4284 -1.5036  1.6069
 6431TIP3    H240709   1.206   6.794  11.243  0.3605  1.1765 -1.5426
 6432TIP3   OH240710   1.126   0.370  15.377 -0.2546  0.7069  0.3522
 6432TIP3    H140711   1.078   0.434  15.430  0.9033  2.4838 -0.6632
 6432TIP3    H240712   1.062   0.338  15.314 -0.2854  2.7731 -0.7434
 6433TIP3   OH240713   5.925   6.148  14.240 -0.5739 -0.1174 -0.0843
 6433TIP3    H140714   5.945   6.055  14.238  0.1739  0.0599 -2.0925
 6433TIP3    H240715   5.934   6.178  14.150 -2.3030  1.6018  0.2321
 6434TIP3   OH240716   5.013   1.905   0.849  0.0980  0.6615  0.6481
 6434TIP3    H140717   4.940   1.854   0.816  0.4890 -0.6733  1.7261
 6434TIP3    H240718   5.027   1.872   0.938  1.7298  1.1739  0.6206
 6435TIP3   OH240719   3.090   2.441   5.522 -0.0851  0.4277  0.4287
 6435TIP3    H140720   3.087   2.345   5.519 -0.1213  0.4149  0.8276
 6435TIP3    H240721   3.096   2.462   5.615  3.6016  0.7187  0.2656
 6436TIP3   OH240722   6.543   1.032   6.338  0.1657  0.3396  0.2585
 6436TIP3    H140723   6.617   1.051   6.280  0.2688 -0.4773  0.1046
 6436TIP3    H240724   6.572   1.063   6.424 -0.3297  2.3641 -0.2555
 6437TIP3   OH240725   4.192   5.929   2.247 -0.4535  0.0749 -0.1140
 6437TIP3    H140726   4.209   6.017   2.281  0.2238 -0.6323  1.4582
 6437TIP3    H240727   4.143   5.885   2.317 -0.1216 -1.0411 -0.5582
 6438TIP3   OH240728   2.438   1.393   0.177  0.4297  0.1572  0.2741
 6438TIP3    H140729   2.526   1.357   0.183  0.7221  0.5342 -1.4442
 6438TIP3    H240730   2.392   1.336   0.116 -0.2839  0.4430  0.5261
 6439TIP3   OH240731   0.141   2.225  10.601 -0.0796  0.8540  0.3172
 6439TIP3    H140732   0.118   2.262  10.515  0.9692  1.8989  0.4620
 6439TIP3    H240733   0.085   2.272  10.663  0.1835  1.1255  0.3491
 6440TIP3   OH240734   4.993   0.576  15.557  0.6535 -0.1435  0.0888
 6440TIP3    H140735   5.088   0.565  15.560  0.7168  0.4087  0.1039
 6440TIP3    H240736   4.974   0.637  15.627  0.2991 -0.1470 -0.0037
 6441TIP3   OH240737   2.360   5.905  11.399 -0.0430 -0.6581 -0.1652
 6441TIP3    H140738   2.273   5.890  11.363 -0.1969  1.3145 -0.7154
 6441TIP3    H240739   2.414   5.929  11.324  0.3706  0.5146  0.4783
 6442TIP3   OH240740   1.979   5.234  10.971 -1.0296 -0.4089  0.3530
 6442TIP3    H140741   2.005   5.325  10.959 -0.4172 -0.4623  1.1909
 6442TIP3    H240742   1.985   5.220  11.065 -1.5890 -1.1847  0.2831
 6443TIP3   OH240743   3.638   6.630   4.127 -0.2047  0.2925  0.1987
 6443TIP3    H140744   3.690   6.658   4.203  0.1283 -0.8530  0.4245
 6443TIP3    H240745   3.618   6.711   4.080  0.1190  0.9583  1.1702
 6444TIP3   OH240746   3.764   2.745  14.883  0.0009 -0.0167  0.2568
 6444TIP3    H140747   3.853   2.734  14.850  0.1824  1.2388  0.2461
 6444TIP3    H240748   3.775   2.759  14.977 -0.1692  0.2281  0.2423
 6445TIP3   OH240749   5.785   5.830   0.461 -0.9246 -0.1160  0.2357
 6445TIP3    H140750   5.849   5.855   0.528 -2.4057  0.8008  1.3792
 6445TIP3    H240751   5.717   5.782   0.509 -1.9651  0.4494 -0.6155
 6446TIP3   OH240752   3.700   5.325   3.941  0.1906 -0.1039 -0.2271
 6446TIP3    H140753   3.663   5.397   3.889  3.1424  1.2884 -0.6100
 6446TIP3    H240754   3.770   5.366   3.992  0.4017 -2.3075  1.3984
 6447TIP3   OH240755   5.866   1.884   5.688 -0.1062 -0.0753 -0.3489
 6447TIP3    H140756   5.790   1.825   5.682 -1.8383  1.6020  2.5297
 6447TIP3    H240757   5.924   1.842   5.750 -0.2885  0.2037  0.0123
 6448TIP3   OH240758   1.707   6.153   2.939 -0.0895 -0.1295 -0.6282
 6448TIP3    H140759   1.666   6.139   3.024  3.0288  0.2058  1.0912
 6448TIP3    H240760   1.715   6.248   2.931  0.7908 -0.1959 -0.6442
 6449TIP3   OH240761   5.709   2.438  11.173  0.2933 -0.1621  0.2154
 6449TIP3    H140762   5.620   2.464  11.151  0.0348 -0.0099  1.4002
 6449TIP3    H240763   5.713   2.440  11.268  1.2079 -1.3823  0.2351
 6450TIP3   OH240764   0.972   4.906   4.062 -0.5687  0.2109  0.5216
 6450TIP3    H140765   1.037   4.942   4.122  1.7839  0.7818 -2.1885
 6450TIP3    H240766   0.973   4.812   4.079  1.1725  0.1775  0.4114
 6451TIP3   OH240767   3.295   4.716  14.828 -1.0501  0.3194 -0.0848
 6451TIP3    H140768   3.374   4.662  14.833 -1.0593  0.4151  1.4652
 6451TIP3    H240769   3.240   4.671  14.764  0.7884  1.0100 -2.3297
 6452TIP3   OH240770   0.503   0.179  11.922 -0.1449  0.0792 -0.0901
 6452TIP3    H140771   0.589   0.148  11.951 -0.1522  0.1917  0.0516
 6452TIP3    H240772   0.460   0.208  12.002 -0.3620 -0.0930 -0.1448
 6453TIP3   OH240773   4.777   0.378   3.546  0.3299 -0.0117  0.2540
 6453TIP3    H140774   4.812   0.298   3.587 -1.1518  0.5009  2.7276
 6453TIP3    H240775   4.855   0.424   3.516  1.2306 -2.3809 -1.4141
 6454TIP3   OH240776   4.491   5.159   2.296 -0.1049 -0.0342 -0.0314
 6454TIP3    H140777   4.577   5.128   2.327 -1.2769  0.3853  4.3351
 6454TIP3    H240778   4.428   5.107   2.345 -2.2574  2.3620 -0.0406
 6455TIP3   OH240779   0.804   6.631  14.613 -0.1055 -0.2235 -0.4755
 6455TIP3    H140780   0.757   6.580  14.678  1.2648 -0.2943  0.4810
 6455TIP3    H240781   0.735   6.682  14.569 -1.0753 -0.3087  0.8849
 6456TIP3   OH240782   1.128   4.233  14.536  0.1750 -0.1359 -0.3303
 6456TIP3    H140783   1.096   4.201  14.620 -1.9324  0.6157 -0.7817
 6456TIP3    H240784   1.194   4.298  14.558 -0.6747  0.3770  0.7834
 6457TIP3   OH240785   1.476   6.315   4.369 -0.5292 -0.4609  0.1585
 6457TIP3    H140786   1.462   6.221   4.353  2.4867 -0.7519 -1.4112
 6457TIP3    H240787   1.483   6.353   4.282  1.1428  0.7006  0.7583
 6458TIP3   OH240788   1.008   1.912  13.910 -0.0542  0.6840 -0.4629
 6458TIP3    H140789   0.951   1.851  13.863  2.3744 -1.0409 -1.3349
 6458TIP3    H240790   1.022   1.871  13.995  2.5038 -0.6867 -1.4547
 6459TIP3   OH240791   1.759   2.524  12.045 -0.4028  0.2076 -0.2682
 6459TIP3    H140792   1.794   2.436  12.029 -0.7054 -0.1188  0.8011
 6459TIP3    H240793   1.836   2.578  12.060 -0.1748  0.2792 -1.5845
 6460TIP3   OH240794   2.187   5.710  16.321  0.3591  0.0036  0.8624
 6460TIP3    H140795   2.192   5.669  16.234 -0.3491  0.8138  0.4265
 6460TIP3    H240796   2.139   5.791  16.307  0.6330  0.3741  1.9432
 6461TIP3   OH240797   2.502   6.162  15.167 -0.5022 -0.1752  0.3840
 6461TIP3    H140798   2.585   6.119  15.149 -0.2538  0.2899  0.3800
 6461TIP3    H240799   2.526   6.236  15.224 -1.1563 -1.1168  1.9208
 6462TIP3   OH240800   1.334   4.307   5.954 -0.1997 -0.2671 -0.2751
 6462TIP3    H140801   1.368   4.238   6.011 -1.3747 -1.0394 -0.4746
 6462TIP3    H240802   1.401   4.376   5.957 -0.0552 -0.4355  1.7552
 6463TIP3   OH240803   3.639   5.287   1.503 -0.2128 -0.3292 -0.1014
 6463TIP3    H140804   3.679   5.252   1.583  1.6476 -0.3831 -1.0204
 6463TIP3    H240805   3.693   5.362   1.479 -0.4962 -0.5530 -1.5286
 6464TIP3   OH240806   1.170   6.215   5.177  0.0498 -0.0403  0.4517
 6464TIP3    H140807   1.136   6.288   5.228 -0.8474  0.9006 -1.3760
 6464TIP3    H240808   1.149   6.237   5.086  1.8254 -1.4868 -0.3850
 6465TIP3   OH240809   5.744   6.133   4.168  0.4793  0.3279  0.1957
 6465TIP3    H140810   5.807   6.169   4.231 -0.0892 -1.0972  1.6452
 6465TIP3    H240811   5.767   6.174   4.085  1.4267  2.0876  1.2708
 6466TIP3   OH240812   0.972   1.909   4.231  0.4500 -0.2017 -0.2442
 6466TIP3    H140813   0.889   1.898   4.184  0.4182 -0.0429 -0.2263
 6466TIP3    H240814   1.011   1.821   4.231  0.1056 -0.3594  0.0704
 6467TIP3   OH240815   1.901   6.106   4.819 -0.1389 -0.1133  0.0362
 6467TIP3    H140816   1.957   6.054   4.762 -0.1581 -1.0253  0.8284
 6467TIP3    H240817   1.910   6.196   4.786 -0.0874 -0.6025 -1.3248
 6468TIP3   OH240818   6.382   1.468   1.979 -0.3399 -0.0418  0.3917
 6468TIP3    H140819   6.411   1.529   1.912 -1.4325  1.0462  0.8855
 6468TIP3    H240820   6.340   1.397   1.931  3.2108 -1.8580 -0.3937
 6469TIP3   OH240821   6.237   2.312   0.858  0.2816  0.1067 -0.5009
 6469TIP3    H140822   6.309   2.282   0.914 -0.3633  0.9265  0.8389
 6469TIP3    H240823   6.193   2.379   0.911 -0.6308  0.6047 -1.8457
 6470TIP3   OH240824   4.478   5.795  11.733 -0.6251 -0.0775 -0.7242
 6470TIP3    H140825   4.439   5.823  11.816 -1.0641  0.0747 -0.9841
 6470TIP3    H240826   4.409   5.747  11.688 -0.4399 -0.0156 -1.0796
 6471TIP3   OH240827   4.534   6.767  16.576 -0.1004  0.1488 -0.2948
 6471TIP3    H140828   4.596   6.707  16.618 -2.2830 -1.4178  0.8607
 6471TIP3    H240829   4.557   6.853  16.611  1.3925 -0.3674  0.0932
 6472TIP3   OH240830   3.214   5.430   0.907 -0.6246 -0.0516  0.2467
 6472TIP3    H140831   3.136   5.434   0.852 -1.2481 -1.3127  1.0140
 6472TIP3    H240832   3.286   5.419   0.845 -1.2557 -0.8478 -0.3701
 6473TIP3   OH240833   6.112   6.365   5.878  0.3445 -0.0342  0.6810
 6473TIP3    H140834   6.062   6.358   5.959  1.4406 -0.3703  1.3473
 6473TIP3    H240835   6.145   6.455   5.878  0.3493 -0.0361  0.6116
 6474TIP3   OH240836   0.982   6.361  16.860 -0.3896 -0.3199  0.0646
 6474TIP3    H140837   0.923   6.311  16.805  0.6879 -2.0245  0.3826
 6474TIP3    H240838   1.010   6.300  16.928  2.0581  0.2589 -0.3139
 6475TIP3   OH240839   2.913   3.445  13.254 -0.0287  0.2003 -0.4662
 6475TIP3    H140840   2.873   3.530  13.275 -1.3012  0.1793 -2.5195
 6475TIP3    H240841   2.896   3.391  13.332 -3.3977  0.4650 -0.8449
 6476TIP3   OH240842   0.092   1.736  16.444 -0.5949 -0.3462 -0.8014
 6476TIP3    H140843   0.031   1.751  16.517  0.2919  1.5590 -0.4065
 6476TIP3    H240844   0.172   1.705  16.486  0.6514  2.7706 -0.6351
 6477TIP3   OH240845   1.012   5.261   5.278  0.3002  0.6586  0.6111
 6477TIP3    H140846   1.019   5.356   5.291 -0.2336  0.5771  1.5299
 6477TIP3    H240847   1.092   5.238   5.229  0.3800  1.5918  0.2827
 6478TIP3   OH240848   3.205   1.021  13.972 -0.3224  0.5088  0.4645
 6478TIP3    H140849   3.213   1.113  13.947  1.2257  0.4643  0.6850
 6478TIP3    H240850   3.287   0.981  13.944 -1.1226 -0.8986  0.0456
 6479TIP3   OH240851   2.274   1.081  12.626  0.6373 -0.3212  0.0124
 6479TIP3    H140852   2.270   1.028  12.706 -0.4764  1.4907  1.2358
 6479TIP3    H240853   2.267   1.171  12.657 -1.2741  0.3935 -2.2217
 6480TIP3   OH240854   3.765   3.099  14.496 -0.2860  0.0292  0.3459
 6480TIP3    H140855   3.815   3.078  14.417 -1.2718 -2.9175  0.3628
 6480TIP3    H240856   3.710   3.173  14.472  1.6978  1.2398 -0.6760
 6481TIP3   OH240857   4.455   5.325   4.682  0.6099  0.3679  0.3429
 6481TIP3    H140858   4.394   5.271   4.631 -0.2943  0.0620  1.6714
 6481TIP3    H240859   4.542   5.294   4.657  0.1794 -0.1390 -0.5825
 6482TIP3   OH240860   6.353   4.831  14.740 -0.4206 -0.2520 -0.0820
 6482TIP3    H140861   6.268   4.874  14.726 -0.0753  0.2334 -0.7465
 6482TIP3    H240862   6.347   4.751  14.688 -0.6955 -0.5143  0.3539
 6483TIP3   OH240863   1.976   5.321   3.272 -0.1294  0.2763 -0.0233
 6483TIP3    H140864   1.945   5.370   3.348 -0.9356  0.7184 -0.6124
 6483TIP3    H240865   1.897   5.278   3.237  0.4186 -0.7874  0.0037
 6484TIP3   OH240866   4.561   1.787  12.149  0.6791 -0.0676 -0.6193
 6484TIP3    H140867   4.594   1.705  12.112 -1.5078 -0.5959 -1.6175
 6484TIP3    H240868   4.583   1.853  12.083 -2.8854 -0.9501 -3.0230
 6485TIP3   OH240869   3.718   5.628  13.330  0.4864  0.2029 -0.2502
 6485TIP3    H140870   3.663   5.685  13.385  0.0081 -0.5910  0.1186
 6485TIP3    H240871   3.750   5.685  13.260 -0.1156  0.8823  0.0164
 6486TIP3   OH240872   3.185   6.342   1.962 -0.0950  0.0276  0.3830
 6486TIP3    H140873   3.134   6.273   1.919 -0.0622  0.1854  0.0825
 6486TIP3    H240874   3.216   6.396   1.889  1.4055 -0.6705  0.4778
 6487TIP3   OH240875   3.934   4.991   1.680  0.1974  0.2540  0.1452
 6487TIP3    H140876   4.024   5.015   1.705 -0.4033  1.6173  1.1504
 6487TIP3    H240877   3.894   5.074   1.654 -1.4919  0.1174  2.0765
 6488TIP3   OH240878   0.886   1.536  11.557  0.3939  0.0773  0.1277
 6488TIP3    H140879   0.931   1.592  11.494  0.8658 -0.5360 -0.0972
 6488TIP3    H240880   0.796   1.533  11.527  0.7232 -0.6174 -0.8255
 6489TIP3   OH240881   0.484   5.465   2.346  0.3344 -0.0173 -0.5822
 6489TIP3    H140882   0.566   5.435   2.306 -0.1904 -0.7836 -1.1129
 6489TIP3    H240883   0.507   5.548   2.387  0.8530  1.0034 -2.7627
 6490TIP3   OH240884   5.176   2.099  16.674  0.1466 -0.5182 -0.2386
 6490TIP3    H140885   5.122   2.020  16.676 -1.1766  0.3611 -0.0877
 6490TIP3    H240886   5.238   2.084  16.603  0.3587 -1.9641  0.2185
 6491TIP3   OH240887   3.923   3.254  12.581  0.7495  0.1367 -0.4239
 6491TIP3    H140888   3.867   3.321  12.620 -0.5855  0.0510 -2.0648
 6491TIP3    H240889   3.904   3.259  12.487  1.9133 -1.3619 -0.7786
 6492TIP3   OH240890   4.824   0.434  11.640 -0.5461  0.4136  0.2372
 6492TIP3    H140891   4.813   0.342  11.665  0.5220  0.5525  1.2945
 6492TIP3    H240892   4.813   0.483  11.722  0.3648  1.1097 -0.0330
 6493TIP3   OH240893   2.308   0.178  12.133 -0.3629 -0.1360  0.0006
 6493TIP3    H140894   2.370   0.114  12.097  0.7820  1.0021 -0.1215
 6493TIP3    H240895   2.343   0.263  12.106 -2.5607  0.5306 -0.9638
 6494TIP3   OH240896   0.831   5.096   0.010 -0.2295  0.1783  0.1210
 6494TIP3    H140897   0.742   5.106   0.046  0.0941  2.4146  0.4253
 6494TIP3    H240898   0.835   5.004  -0.017 -2.0622 -0.4175  1.6164
 6495TIP3   OH240899   2.731   1.665   2.674 -0.7130 -0.3393  0.3173
 6495TIP3    H140900   2.638   1.658   2.652 -0.7795  0.1472  0.4382
 6495TIP3    H240901   2.733   1.686   2.767 -0.5006  0.1834  0.2004
 6496TIP3   OH240902   1.591   1.315  15.333  0.4625 -0.0095  0.2734
 6496TIP3    H140903   1.524   1.251  15.309  0.1981  0.0026  0.9652
 6496TIP3    H240904   1.672   1.278  15.298  0.4171 -1.0596  1.2452
 6497TIP3   OH240905   6.429   1.898   1.288  0.0539  0.0109  0.1972
 6497TIP3    H140906   6.381   1.974   1.322  0.3936  0.0177  0.6709
 6497TIP3    H240907   6.364   1.850   1.237 -0.7486 -0.5072  1.6220
 6498TIP3   OH240908   0.192   0.424  15.005  0.7261  0.0392 -0.8838
 6498TIP3    H140909   0.243   0.358  15.053  1.0036 -0.6623 -2.0901
 6498TIP3    H240910   0.258   0.474  14.957  0.2889 -1.9348 -3.7790
 6499TIP3   OH240911   1.965   0.154   4.332 -0.6124  0.5086  0.2693
 6499TIP3    H140912   2.005   0.067   4.341  0.8806  1.0920 -0.3063
 6499TIP3    H240913   2.002   0.205   4.404 -0.1711  1.1034 -0.3658
 6500TIP3   OH240914   6.394   0.868   0.978  0.1483  0.6714 -0.1564
 6500TIP3    H140915   6.447   0.913   0.911 -0.4212  0.0231 -1.0541
 6500TIP3    H240916   6.369   0.938   1.038 -1.3007  1.7521 -1.9014
 6501TIP3   OH240917   1.214   6.455   4.418 -0.0589  0.8861  0.2940
 6501TIP3    H140918   1.245   6.383   4.474 -0.8722  0.6991  0.5201
 6501TIP3    H240919   1.214   6.419   4.330 -1.4475  0.2460  0.5287
 6502TIP3   OH240920   3.168   3.196  15.457 -0.1542  0.5536 -0.0674
 6502TIP3    H140921   3.083   3.196  15.501 -0.5708  2.6255 -0.7698
 6502TIP3    H240922   3.150   3.172  15.367  0.5838 -2.7476  0.5221
 6503TIP3   OH240923   5.774   0.334  15.227  0.4097 -0.1024 -0.3631
 6503TIP3    H140924   5.771   0.239  15.241  0.9176 -0.1151 -0.3001
 6503TIP3    H240925   5.685   0.364  15.243  0.1401 -0.6310 -0.8292
 6504TIP3   OH240926   5.027   1.370  15.501  0.3512 -0.2823 -0.1325
 6504TIP3    H140927   5.038   1.395  15.592 -0.2060 -0.7374  0.0647
 6504TIP3    H240928   5.109   1.326  15.478  0.1652 -0.9248  0.4063
 6505TIP3   OH240929   2.506   0.519  13.395  0.2001  0.5841  0.0320
 6505TIP3    H140930   2.581   0.481  13.349 -0.2096  0.7517 -0.7799
 6505TIP3    H240931   2.472   0.447  13.448  0.2069  0.1709 -0.5170
 6506TIP3   OH240932   0.178   1.681  15.041  0.2134 -0.1801  0.4463
 6506TIP3    H140933   0.206   1.720  14.958  0.9696  2.1160  1.7005
 6506TIP3    H240934   0.082   1.688  15.040  0.2056 -0.3041 -0.2795
 6507TIP3   OH240935   0.220   2.023  14.974 -0.3852 -0.4201  0.1067
 6507TIP3    H140936   0.232   1.982  15.059  1.9534  0.0767  0.0985
 6507TIP3    H240937   0.126   2.040  14.967 -0.9693 -2.7864  1.4594
 6508TIP3   OH240938   5.984   3.169  17.117  0.7305 -0.2606 -0.2390
 6508TIP3    H140939   5.958   3.202  17.031 -1.2701 -0.8498  0.0906
 6508TIP3    H240940   5.927   3.214  17.179  1.4986 -0.5377  0.7073
 6509TIP3   OH240941   6.570   2.328   2.209 -0.2440 -1.0963  0.6817
 6509TIP3    H140942   6.509   2.399   2.227 -1.8392 -1.8153 -1.4430
 6509TIP3    H240943   6.640   2.370   2.158  0.6180 -0.4455  2.3418
 6510TIP3   OH240944   3.218   1.119   5.583  0.2633 -0.0359  0.5370
 6510TIP3    H140945   3.150   1.081   5.528  0.5011  0.3866 -0.0646
 6510TIP3    H240946   3.249   1.195   5.533  2.4307 -1.2446 -0.0802
 6511TIP3   OH240947   4.755   4.670   3.291 -0.3390 -0.2680  0.1948
 6511TIP3    H140948   4.682   4.621   3.328  0.5763 -0.7767  1.4037
 6511TIP3    H240949   4.732   4.762   3.304 -0.1361 -0.4336  1.9068
 6512TIP3   OH240950   1.420   4.563   5.676  0.0256  0.0771  0.1021
 6512TIP3    H140951   1.342   4.575   5.730  0.7840 -1.6888  1.7175
 6512TIP3    H240952   1.429   4.468   5.668  1.0773  0.2716 -1.5211
 6513TIP3   OH240953   3.443   4.014  15.641 -0.5435 -0.2614 -0.1086
 6513TIP3    H140954   3.382   3.965  15.587 -0.4932 -0.4157 -0.0263
 6513TIP3    H240955   3.490   4.071  15.580 -2.0154  1.1757  0.0429
 6514TIP3   OH240956   3.873   3.914   3.646  0.3193 -0.3592  0.5222
 6514TIP3    H140957   3.889   3.844   3.710  0.7484  0.5925  1.4894
 6514TIP3    H240958   3.796   3.885   3.598  1.5048 -2.3430 -0.3218
 6515TIP3   OH240959   3.777   2.566   6.112 -0.2168  0.7770 -0.3718
 6515TIP3    H140960   3.837   2.624   6.065  0.1874  0.2956 -0.4604
 6515TIP3    H240961   3.792   2.480   6.073  0.6454  0.2223  1.1098
 6516TIP3   OH240962   6.480   4.171  10.946 -0.3914 -1.0344  0.4842
 6516TIP3    H140963   6.431   4.094  10.974 -1.3321 -0.4765  0.4577
 6516TIP3    H240964   6.472   4.170  10.850 -1.2814 -0.3830  0.5318
 6517TIP3   OH240965   5.643   5.637   4.942 -0.4870  0.6203 -0.6669
 6517TIP3    H140966   5.717   5.693   4.965 -0.5716  0.0412  1.1477
 6517TIP3    H240967   5.680   5.573   4.881  0.6780  0.0237  0.5916
 6518TIP3   OH240968   2.386   1.174   1.240 -0.3023 -0.1160  0.3310
 6518TIP3    H140969   2.311   1.116   1.226  0.6265 -1.2354 -0.1702
 6518TIP3    H240970   2.394   1.180   1.335 -0.2047 -1.0961  0.3951
 6519TIP3   OH240971   1.874   5.358   0.297  0.4495  0.4773 -0.3204
 6519TIP3    H140972   1.919   5.284   0.257  0.1580  0.2714 -0.2766
 6519TIP3    H240973   1.794   5.320   0.333  0.2665  0.8249 -0.3544
 6520TIP3   OH240974   6.011   3.191  14.468 -0.0456 -0.5590 -0.2245
 6520TIP3    H140975   6.032   3.099  14.453 -0.2457 -0.9635  1.7448
 6520TIP3    H240976   5.942   3.190  14.534  0.6967  1.0277  0.6411
 6521TIP3   OH240977   0.354   0.664  15.589  0.0505  0.3137  0.4618
 6521TIP3    H140978   0.405   0.594  15.548 -0.4625 -0.3345  0.9177
 6521TIP3    H240979   0.418   0.713  15.640  0.6973  1.1127 -1.0444
 6522TIP3   OH240980   6.794   1.257  14.621  0.0983  0.1392 -0.1615
 6522TIP3    H140981   6.801   1.345  14.656  0.8081 -0.1610  0.4673
 6522TIP3    H240982   6.775   1.270  14.528 -0.3848  0.9444  0.0392
 6523TIP3   OH240983   2.354   1.758  13.730 -0.4891 -0.1941 -0.3699
 6523TIP3    H140984   2.353   1.853  13.723  1.0458 -0.2452 -2.1413
 6523TIP3    H240985   2.413   1.729  13.660  0.6629 -2.3386  1.3219
 6524TIP3   OH240986   1.719   5.926  15.469  0.3558  0.0695  0.2660
 6524TIP3    H140987   1.738   5.841  15.430  2.0963  1.4327 -2.1120
 6524TIP3    H240988   1.792   5.982  15.441 -1.6071  2.7924  0.2424
 6525TIP3   OH240989   4.002   3.893   5.763 -0.1080 -0.4301  0.0972
 6525TIP3    H140990   3.952   3.862   5.688  1.3744  0.1269 -1.1828
 6525TIP3    H240991   4.085   3.846   5.757  1.5357  2.3220 -0.9110
 6526TIP3   OH240992   3.022   1.083   1.000  0.2781 -0.0148 -0.4683
 6526TIP3    H140993   3.111   1.065   1.030 -0.1644 -1.6601 -0.0430
 6526TIP3    H240994   3.004   1.014   0.936 -0.8609  0.0344 -0.2119
 6527TIP3   OH240995   4.493   4.852  14.579 -0.6322  0.3301 -0.5321
 6527TIP3    H140996   4.582   4.834  14.549 -0.2033  1.0760  0.2270
 6527TIP3    H240997   4.442   4.778  14.549  0.2744 -0.1725 -0.8847
 6528TIP3   OH240998   1.325   5.984  16.052 -0.4695  0.4126  0.5664
 6528TIP3    H140999   1.362   5.991  15.964 -1.5065  0.2942  0.1051
 6528TIP3    H241000   1.381   5.919  16.096 -0.2315  0.1076 -0.1632
 6529TIP3   OH241001   0.240   5.281  15.526 -0.1032 -0.4378 -0.5637
 6529TIP3    H141002   0.325   5.251  15.560 -0.9920  0.3434  2.7016
 6529TIP3    H241003   0.185   5.203  15.526 -0.2026 -0.3819  0.2998
 6530TIP3   OH241004   4.280   3.693   1.208  0.2778 -0.5891 -0.6906
 6530TIP3    H141005   4.191   3.664   1.228  0.0645  0.6590  0.3706
 6530TIP3    H241006   4.315   3.719   1.293  1.8676 -1.5659 -1.0149
 6531TIP3   OH241007   0.404   4.730   0.439 -0.2717  0.6543 -0.3172
 6531TIP3    H141008   0.493   4.711   0.470 -1.1757 -1.2439  1.4020
 6531TIP3    H241009   0.393   4.824   0.452  2.0521  1.3048 -2.3332
 6532TIP3   OH241010   3.013   1.088   5.389  0.1979 -0.1004 -0.4759
 6532TIP3    H141011   3.007   1.171   5.342  0.0415 -0.2262 -0.6802
 6532TIP3    H241012   2.945   1.033   5.350  0.8417 -0.6060 -0.9128
 6533TIP3   OH241013   1.542   3.594  16.415  0.1828 -0.3905  0.0491
 6533TIP3    H141014   1.521   3.525  16.351  1.4517 -1.7464  1.0135
 6533TIP3    H241015   1.636   3.610  16.403 -0.1018  1.2227 -0.1685
 6534TIP3   OH241016   1.802   4.607   3.916  0.2072 -0.3698  0.6611
 6534TIP3    H141017   1.824   4.538   3.853  1.2662 -0.0771  0.6849
 6534TIP3    H241018   1.717   4.582   3.951  0.9994 -2.2161  1.4004
 6535TIP3   OH241019   0.723   2.646  15.057  0.1533 -0.2152 -0.1274
 6535TIP3    H141020   0.643   2.619  15.102 -0.9029  2.1213 -0.4454
 6535TIP3    H241021   0.695   2.663  14.967  0.6054  2.0083  0.0849
 6536TIP3   OH241022   6.224   1.490  12.546  0.2606  0.2876  0.2255
 6536TIP3    H141023   6.226   1.586  12.538 -1.9799  0.4599  1.1116
 6536TIP3    H241024   6.161   1.461  12.480  0.8387 -0.5860  0.0434
 6537TIP3   OH241025   3.496   1.949   5.534 -0.4898  0.6150  0.2739
 6537TIP3    H141026   3.574   2.002   5.550 -0.4896  0.3137  1.3055
 6537TIP3    H241027   3.465   1.978   5.448  0.7687  0.7231 -0.1703
 6538TIP3   OH241028   3.105   1.965  13.973  0.0114 -0.3461  0.0467
 6538TIP3    H141029   3.045   1.993  14.042 -0.7607  0.3650 -0.8895
 6538TIP3    H241030   3.102   2.036  13.909 -1.5060 -2.2487 -2.1237
 6539TIP3   OH241031   1.519   5.539   4.372  0.3475  0.4946 -0.3975
 6539TIP3    H141032   1.592   5.483   4.398 -0.4452 -0.4728 -0.2113
 6539TIP3    H241033   1.442   5.483   4.376 -0.9192  2.1970  2.3337
 6540TIP3   OH241034   6.761   1.483  14.898  0.2703  0.6570 -0.2320
 6540TIP3    H141035   6.775   1.489  14.804  1.1494 -0.4698 -0.1976
 6540TIP3    H241036   6.838   1.438  14.931  0.1551  1.3680  1.0897
 6541TIP3   OH241037   5.913   2.849   5.401  0.4008  0.3166  0.7328
 6541TIP3    H141038   5.860   2.880   5.474  0.0185  1.0126  0.1673
 6541TIP3    H241039   5.849   2.823   5.334  0.7291 -0.9645  0.8971
 6542TIP3   OH241040   3.319   0.256  13.875 -0.0703  0.1373  0.2759
 6542TIP3    H141041   3.404   0.299  13.868  0.3100 -0.5625  0.4552
 6542TIP3    H241042   3.304   0.247  13.969  0.9646 -2.1842  0.2948
 6543TIP3   OH241043   6.112   2.489  16.604 -0.3207 -0.2521 -0.0343
 6543TIP3    H141044   6.028   2.521  16.571 -0.7948 -0.1979  1.1855
 6543TIP3    H241045   6.089   2.432  16.677  0.7891  1.5886  1.8386
 6544TIP3   OH241046   6.090   1.390   1.712  0.4404 -0.3252  0.0338
 6544TIP3    H141047   6.108   1.389   1.618 -0.5157 -2.7018 -0.1742
 6544TIP3    H241048   5.997   1.411   1.718  0.2527 -1.2479  0.3850
 6545TIP3   OH241049   1.467   5.802  11.584 -0.2753 -0.4771 -0.0954
 6545TIP3    H141050   1.560   5.782  11.595 -0.6589 -1.6071  1.5080
 6545TIP3    H241051   1.423   5.738  11.640 -2.0360 -0.0979 -0.9940
 6546TIP3   OH241052   1.004   0.764  12.421  0.2070  0.6731  0.8405
 6546TIP3    H141053   1.096   0.738  12.422 -0.1879 -0.9348  3.0543
 6546TIP3    H241054   0.960   0.697  12.370  0.1475  1.0101  0.4451
 6547TIP3   OH241055   6.016   5.891   4.064  0.7863  0.3656 -0.6860
 6547TIP3    H141056   5.933   5.855   4.095 -0.5113  2.3136 -1.6938
 6547TIP3    H241057   6.048   5.944   4.137  1.3128 -0.6001 -0.1982
 6548TIP3   OH241058   0.627   4.627  11.995 -0.0484  0.4663  0.1746
 6548TIP3    H141059   0.618   4.644  11.901  1.5801 -0.3048 -0.1743
 6548TIP3    H241060   0.559   4.680  12.036 -0.9409  0.6607 -1.4497
 6549TIP3   OH241061   3.352   2.724  15.618  0.2702 -0.2474 -0.4942
 6549TIP3    H141062   3.377   2.739  15.709 -0.8915 -2.4658  0.2354
 6549TIP3    H241063   3.344   2.813  15.581  1.0371  0.6894  1.4446
 6550TIP3   OH241064   1.907   2.933   5.477 -0.1164  0.2623  0.4891
 6550TIP3    H141065   1.844   2.914   5.546  0.0572  1.3531  0.9596
 6550TIP3    H241066   1.958   2.852   5.469 -1.1670 -0.4167  0.5240
 6551TIP3   OH241067   6.241   5.615  11.771 -0.0053 -0.0343  0.5492
 6551TIP3    H141068   6.275   5.693  11.815  0.3999 -0.4347  0.9602
 6551TIP3    H241069   6.158   5.597  11.815  0.2948 -0.3064  1.0140
 6552TIP3   OH241070   2.021   4.320   5.669  0.1883  0.6651 -0.1935
 6552TIP3    H141071   1.997   4.411   5.648  0.1567  0.9352  0.9025
 6552TIP3    H241072   1.961   4.297   5.741  2.6226  1.0994  2.1262
 6553TIP3   OH241073   3.269   2.547  11.524 -0.1762  0.1071  1.0218
 6553TIP3    H141074   3.233   2.470  11.481  0.2310  0.2086  0.4863
 6553TIP3    H241075   3.280   2.611  11.453 -1.8120  1.1607  1.6630
 6554TIP3   OH241076   0.223   3.978  12.544 -0.0850  0.0707  0.2782
 6554TIP3    H141077   0.163   4.041  12.584  1.5149  1.7184  0.1783
 6554TIP3    H241078   0.307   3.993  12.588  0.7326 -0.8795 -0.8958
 6555TIP3   OH241079   6.612   4.250  12.026 -0.1213  1.2181 -0.2036
 6555TIP3    H141080   6.697   4.233  12.065  0.2650  0.3983 -1.3427
 6555TIP3    H241081   6.585   4.166  11.990 -0.1962  2.0225 -2.1527
 6556TIP3   OH241082   0.584   4.818   3.407 -0.2463  0.2581  0.1116
 6556TIP3    H141083   0.514   4.755   3.423 -0.5975  0.8542  0.9822
 6556TIP3    H241084   0.635   4.780   3.335 -0.6329 -0.8540  0.4144
 6557TIP3   OH241085   3.491   0.881   2.824  0.1666  0.4073 -0.6994
 6557TIP3    H141086   3.581   0.913   2.831  0.1620  0.2871 -0.0955
 6557TIP3    H241087   3.439   0.941   2.877 -0.1911  0.7704 -1.4449
 6558TIP3   OH241088   2.881   6.644   0.334 -0.2392 -0.1399 -0.6694
 6558TIP3    H141089   2.888   6.703   0.410  2.2544 -0.9576 -0.1778
 6558TIP3    H241090   2.808   6.679   0.283 -1.8179  0.6316  1.9252
 6559TIP3   OH241091   6.123   2.407   4.942 -0.5603  0.7010 -0.9735
 6559TIP3    H141092   6.177   2.440   4.871 -0.9021  0.3761 -1.3874
 6559TIP3    H241093   6.104   2.484   4.996  1.7128  0.5727  0.1567
 6560TIP3   OH241094   1.290   3.959   0.554  0.4281  0.0828 -0.4679
 6560TIP3    H141095   1.372   3.937   0.510  1.0899 -1.0543  1.2175
 6560TIP3    H241096   1.225   3.900   0.516  0.4466  0.7460 -1.5614
 6561TIP3   OH241097   0.130   3.401   2.177 -0.5586 -0.0517  1.0433
 6561TIP3    H141098   0.083   3.360   2.250  0.1877  0.8399  2.0559
 6561TIP3    H241099   0.062   3.423   2.114 -1.2416 -0.7106  1.5288
 6562TIP3   OH241100   3.685   0.346   1.743  0.0250 -0.0592 -0.4307
 6562TIP3    H141101   3.611   0.337   1.802  1.0312  0.2360  0.9333
 6562TIP3    H241102   3.684   0.439   1.718  1.2870  0.5313  1.5124
 6563TIP3   OH241103   4.577   2.053  12.858 -0.0774 -0.1304  0.1347
 6563TIP3    H141104   4.485   2.059  12.832 -0.7086 -0.6465  2.0973
 6563TIP3    H241105   4.602   1.963  12.836  0.1028  0.1210 -0.7492
 6564TIP3   OH241106   4.615   0.637  15.753 -0.2747 -0.3250  0.5328
 6564TIP3    H141107   4.535   0.650  15.702 -0.2634 -2.1853 -0.0210
 6564TIP3    H241108   4.584   0.623  15.842 -0.3468  1.9672  0.9325
 6565TIP3   OH241109   4.330   0.597   4.453 -0.2206 -0.2876  0.0050
 6565TIP3    H141110   4.374   0.676   4.422  0.3362 -0.3252  0.6722
 6565TIP3    H241111   4.368   0.581   4.540 -0.2747 -1.3246 -0.1519
 6566TIP3   OH241112   3.958   5.448  13.865  0.4082  0.2337  0.2002
 6566TIP3    H141113   3.865   5.469  13.880 -0.1082  0.9854 -3.1905
 6566TIP3    H241114   4.006   5.512  13.918 -0.9141 -0.7412  2.7419
 6567TIP3   OH241115   2.119   5.388   4.963  0.0344  0.4415 -0.0977
 6567TIP3    H141116   2.168   5.434   5.031  0.0747 -0.4078  0.4651
 6567TIP3    H241117   2.119   5.297   4.992 -0.8881  0.2500 -0.6804
 6568TIP3   OH241118   0.749   0.978   2.232 -0.0251 -0.2125  0.3857
 6568TIP3    H141119   0.778   0.925   2.306 -0.1250  1.0321  1.3598
 6568TIP3    H241120   0.784   0.934   2.155 -0.1619 -1.7017  1.1466
 6569TIP3   OH241121   5.351   2.729  16.022  0.3566  0.2050 -0.3163
 6569TIP3    H141122   5.344   2.763  15.932  0.4272 -0.0064 -0.4013
 6569TIP3    H241123   5.353   2.634  16.011 -0.2100  0.1614 -0.0546
 6570TIP3   OH241124   1.339   0.846  13.298 -0.9451  0.5609 -0.1008
 6570TIP3    H141125   1.420   0.797  13.316 -1.5683 -0.9459 -1.1920
 6570TIP3    H241126   1.336   0.913  13.366  0.2593 -0.5564  1.1203
 6571TIP3   OH241127   3.236   2.768  12.619 -0.1120  0.4172  0.4157
 6571TIP3    H141128   3.169   2.777  12.551  1.1330  0.6217 -0.8079
 6571TIP3    H241129   3.186   2.766  12.701 -1.5698  1.5020 -0.3947
 6572TIP3   OH241130   4.510   1.628  11.072  0.2395 -0.3858  0.1310
 6572TIP3    H141131   4.531   1.712  11.031 -2.1199  0.0915 -0.2587
 6572TIP3    H241132   4.490   1.570  10.999 -2.1419 -0.0649  0.4535
 6573TIP3   OH241133   6.027   6.679   3.857 -0.5795  0.0006  0.4709
 6573TIP3    H141134   5.953   6.618   3.856 -0.1684 -0.5019 -0.3295
 6573TIP3    H241135   5.989   6.764   3.836 -1.0667 -0.0745  1.0161
 6574TIP3   OH241136   1.100   2.728   0.383 -0.5176  0.2411  0.2671
 6574TIP3    H141137   1.058   2.814   0.389  0.8734  0.8272  3.4693
 6574TIP3    H241138   1.058   2.676   0.451  0.6844 -0.6527  0.3452
 6575TIP3   OH241139   3.122   2.574  16.574  0.2672  0.2730  0.1619
 6575TIP3    H141140   3.125   2.489  16.532  2.3451  0.0571  0.6336
 6575TIP3    H241141   3.038   2.575  16.620 -0.1972 -1.1304 -0.5958
 6576TIP3   OH241142   3.640   3.994  16.268 -0.0850  0.3121 -0.3571
 6576TIP3    H141143   3.628   4.074  16.217  0.3956  0.4913 -0.1965
 6576TIP3    H241144   3.632   4.023  16.359  1.7599  0.5054 -0.2146
 6577TIP3   OH241145   5.685   5.651  15.628 -0.3067  0.0017  0.4424
 6577TIP3    H141146   5.652   5.718  15.687 -0.7660  1.2072 -1.1265
 6577TIP3    H241147   5.631   5.574  15.646 -0.3267  0.2898  1.6739
 6578TIP3   OH241148   1.476   5.905   6.459 -0.9056  0.3696  0.3807
 6578TIP3    H141149   1.429   5.834   6.415  0.0373 -0.3306  0.4766
 6578TIP3    H241150   1.438   5.909   6.547  0.2791 -1.2926  1.0212
 6579TIP3   OH241151   4.950   1.987  14.993 -0.6855 -0.1891  0.2796
 6579TIP3    H141152   4.874   1.937  14.963 -1.8530 -0.6137  3.5866
 6579TIP3    H241153   4.913   2.066  15.032  0.5470 -0.3404  1.8552
 6580TIP3   OH241154   6.746   3.959  12.384 -0.6796 -0.5176  0.0935
 6580TIP3    H141155   6.775   4.028  12.444 -1.6833 -1.1689  1.3872
 6580TIP3    H241156   6.660   3.988  12.353  1.1811  1.5241 -3.9125
 6581TIP3   OH241157   3.648   2.243   0.089 -0.0782 -0.0910 -0.1057
 6581TIP3    H141158   3.560   2.246   0.128  0.0138 -0.6880  0.1582
 6581TIP3    H241159   3.632   2.224  -0.004 -0.2197 -0.3246 -0.0344
 6582TIP3   OH241160   1.097   1.133   0.669 -0.0704 -0.5000 -0.4701
 6582TIP3    H141161   1.033   1.184   0.620  0.8396  0.8045 -0.3423
 6582TIP3    H241162   1.135   1.074   0.604 -0.8381 -0.7558 -0.7065
 6583TIP3   OH241163   5.547   5.672  16.534  0.5577  0.3205 -0.2351
 6583TIP3    H141164   5.534   5.592  16.483 -0.0537  1.5178 -2.0323
 6583TIP3    H241165   5.472   5.675  16.594  1.7697 -1.5798  1.5087
 6584TIP3   OH241166   0.349   5.932   3.895  0.2508 -0.9973  0.1828
 6584TIP3    H141167   0.260   5.927   3.930  0.2007  1.3277  0.5200
 6584TIP3    H241168   0.361   5.848   3.850 -1.7302 -1.7748  0.9818
 6585TIP3   OH241169   1.073   3.374   4.042  0.1584  0.5487 -0.6467
 6585TIP3    H141170   1.083   3.402   4.133 -0.3500 -0.0375 -0.4007
 6585TIP3    H241171   1.152   3.406   3.998  0.8353  0.1001  0.1944
 6586TIP3   OH241172   0.807   4.614  14.249 -0.4959  0.2340  0.0252
 6586TIP3    H141173   0.782   4.554  14.320 -0.4975  0.8189  0.5237
 6586TIP3    H241174   0.758   4.694  14.267 -0.4599  0.4039 -0.6167
 6587TIP3   OH241175   5.124   3.348  16.879  0.2620  0.6776  0.3721
 6587TIP3    H141176   5.050   3.289  16.865  1.0452 -0.2267 -0.1145
 6587TIP3    H241177   5.150   3.334  16.970 -0.8941  1.8895  0.9148
 6588TIP3   OH241178   2.592   1.359  11.143  0.0183 -0.0526  0.9681
 6588TIP3    H141179   2.636   1.412  11.209  2.7182 -0.3353 -0.4829
 6588TIP3    H241180   2.599   1.410  11.062 -2.4958 -0.0836  0.6252
 6589TIP3   OH241181   3.156   3.353  12.631 -0.2256 -0.2823 -0.0857
 6589TIP3    H141182   3.119   3.439  12.615 -0.9978 -0.0654  2.4204
 6589TIP3    H241183   3.082   3.293  12.620 -0.8539 -0.1027  2.3920
 6590TIP3   OH241184   4.114   1.763  13.434  0.7782 -0.6853  0.3081
 6590TIP3    H141185   4.206   1.766  13.460  0.8055  1.0830  0.1024
 6590TIP3    H241186   4.110   1.693  13.369  2.4765  0.7919 -1.4853
 6591TIP3   OH241187   1.101   4.248  11.578  0.5314  0.0716  0.2086
 6591TIP3    H141188   1.020   4.274  11.535  0.2502  0.0550  0.7335
 6591TIP3    H241189   1.076   4.179  11.639  0.8079  0.6170  0.9500
 6592TIP3   OH241190   5.771   1.514  13.995 -0.0176  0.1791  0.3726
 6592TIP3    H141191   5.683   1.507  13.957 -0.6599  1.1264  1.6384
 6592TIP3    H241192   5.813   1.585  13.945  0.2599 -0.6493 -0.6143
 6593TIP3   OH241193   4.793   1.952   5.333 -0.0011  0.4697 -0.2606
 6593TIP3    H141194   4.721   1.897   5.302 -0.8450  1.2547  0.2670
 6593TIP3    H241195   4.754   2.006   5.402  1.5149 -0.3589  1.3438
 6594TIP3   OH241196   0.884   2.207   0.391  0.3440  0.8630 -0.1243
 6594TIP3    H141197   0.867   2.301   0.388  0.3187  0.9531  1.8513
 6594TIP3    H241198   0.954   2.197   0.456 -2.3922 -0.7667  2.8378
 6595TIP3   OH241199   0.980   1.995   1.848  0.3555 -0.3148  0.2090
 6595TIP3    H141200   0.960   2.081   1.811  1.9339  0.3908  0.9078
 6595TIP3    H241201   0.987   1.938   1.771  4.8817  1.3859 -1.0005
 6596TIP3   OH241202   3.182   2.385  15.067 -0.3103 -0.1457  0.2169
 6596TIP3    H141203   3.093   2.373  15.034  0.4044 -0.3705 -1.7427
 6596TIP3    H241204   3.202   2.477  15.051  0.2402 -0.3847 -0.5839
 6597TIP3   OH241205   2.328   3.643  12.723  0.0563  0.0174 -0.0269
 6597TIP3    H141206   2.255   3.663  12.664 -0.6697 -0.3501  0.7236
 6597TIP3    H241207   2.286   3.614  12.804  0.9877 -2.5751 -0.3585
 6598TIP3   OH241208   6.454   2.920  14.467 -0.7277 -0.0806 -0.2409
 6598TIP3    H141209   6.427   2.830  14.485  2.3493 -1.0176  0.3330
 6598TIP3    H241210   6.454   2.926  14.371 -1.6328 -0.4306 -0.2722
 6599TIP3   OH241211   2.574   5.895  16.652  0.3846  0.0598 -0.0291
 6599TIP3    H141212   2.632   5.934  16.717 -0.1344 -2.2515  1.9979
 6599TIP3    H241213   2.619   5.814  16.627 -0.8572 -0.5975 -0.1860
 6600TIP3   OH241214   4.329   5.880  15.337 -0.0704  0.0946  0.4654
 6600TIP3    H141215   4.414   5.915  15.366  0.9088 -1.4360 -0.3729
 6600TIP3    H241216   4.269   5.955  15.341  1.0780  0.9997  1.9949
 6601TIP3   OH241217   0.425   5.122  11.537 -0.2979 -0.2701 -0.6601
 6601TIP3    H141218   0.330   5.116  11.534 -0.3402  0.6143 -1.7263
 6601TIP3    H241219   0.449   5.091  11.625 -1.5663 -0.3562 -0.3343
 6602TIP3   OH241220   6.103   5.756  16.310  0.3973  0.5434 -0.0558
 6602TIP3    H141221   6.086   5.795  16.396 -0.1654  1.1766 -0.4361
 6602TIP3    H241222   6.064   5.669  16.315  0.8899  0.3519  0.5256
 6603TIP3   OH241223   5.096   5.686   2.980  0.5548  1.0533 -0.2990
 6603TIP3    H141224   5.176   5.639   2.957  0.5361  0.5809  0.5645
 6603TIP3    H241225   5.126   5.775   3.000  0.8930  0.8300  0.2020
 6604TIP3   OH241226   4.636   5.975   0.844  0.3146  0.1309  0.1210
 6604TIP3    H141227   4.672   6.040   0.784 -1.1269  0.1622 -0.7550
 6604TIP3    H241228   4.542   5.971   0.822  0.2412 -1.7570  0.5986
 6605TIP3   OH241229   5.189   2.263  12.804  0.1517  0.1689  0.1422
 6605TIP3    H141230   5.278   2.283  12.774 -0.6971  0.1682 -2.6520
 6605TIP3    H241231   5.185   2.168  12.805  0.0990  0.1700  0.0096
 6606TIP3   OH241232   3.726   1.078  16.490  0.2460 -0.1648  0.4098
 6606TIP3    H141233   3.664   1.011  16.461 -0.2613  0.9331 -1.1337
 6606TIP3    H241234   3.672   1.141  16.538  0.3670  0.1825  0.0906
 6607TIP3   OH241235   6.250   4.182   4.951  0.4619 -0.5556  0.0749
 6607TIP3    H141236   6.221   4.135   4.873 -0.6531 -0.3188  0.3377
 6607TIP3    H241237   6.177   4.240   4.973  0.1418 -1.6410  2.1296
 6608TIP3   OH241238   5.886   2.707   3.780 -0.1536  0.5176  0.2446
 6608TIP3    H141239   5.899   2.683   3.871  1.6154  0.3687 -0.0125
 6608TIP3    H241240   5.873   2.801   3.781  0.3736  0.5875  0.6034
 6609TIP3   OH241241   3.486   0.784   5.630 -0.2869 -0.2686  0.5817
 6609TIP3    H141242   3.558   0.742   5.676  0.3883  2.3057  2.0582
 6609TIP3    H241243   3.508   0.775   5.537  1.9649  0.3952  0.9923
 6610TIP3   OH241244   2.053   6.203   0.871  0.2102 -0.5447 -0.1212
 6610TIP3    H141245   2.045   6.116   0.832 -0.2163 -0.3009 -0.5903
 6610TIP3    H241246   2.022   6.263   0.803 -1.1499 -0.1471  0.8130
 6611TIP3   OH241247   3.680   1.619   6.075  0.5047  0.1902 -0.2432
 6611TIP3    H141248   3.731   1.581   6.147 -0.4717 -1.6863 -0.4936
 6611TIP3    H241249   3.591   1.624   6.109 -0.1896 -1.7106 -1.5948
 6612TIP3   OH241250   5.356   3.596  12.851 -0.5545  0.0236 -0.0667
 6612TIP3    H141251   5.398   3.659  12.911  1.7302 -1.3260 -0.1593
 6612TIP3    H241252   5.270   3.580  12.891 -0.4927  1.8259  0.9160
 6613TIP3   OH241253   1.461   3.229  14.372  0.3407 -0.0716  0.0784
 6613TIP3    H141254   1.551   3.261  14.366  0.7003 -1.2541 -1.0541
 6613TIP3    H241255   1.467   3.149  14.424  0.2856 -1.3119 -1.7520
 6614TIP3   OH241256   6.295   4.825  12.911  0.4601 -0.4401 -0.1408
 6614TIP3    H141257   6.201   4.817  12.895  0.5989 -2.7305 -0.2280
 6614TIP3    H241258   6.335   4.788  12.832  1.4961  1.4852 -0.5789
 6615TIP3   OH241259   6.703   5.998   1.522 -0.4014  0.2798 -0.1102
 6615TIP3    H141260   6.765   5.959   1.460  0.2385  1.8087 -0.4577
 6615TIP3    H241261   6.757   6.050   1.581 -1.3694  1.8828 -0.5982
 6616TIP3   OH241262   0.526   4.668   4.199 -0.2192  0.1875  0.2471
 6616TIP3    H141263   0.498   4.685   4.289 -2.4618 -0.8814 -0.1637
 6616TIP3    H241264   0.506   4.749   4.152  1.7945  1.0731  0.8312
 6617TIP3   OH241265   6.580   0.095  11.634  0.5345 -0.0130  0.0589
 6617TIP3    H141266   6.497   0.056  11.609  0.6273 -0.3372  0.2406
 6617TIP3    H241267   6.590   0.171  11.576 -0.1833  0.4036  0.4655
 6618TIP3   OH241268   1.618   3.909   2.290  0.4981 -0.3113  0.1519
 6618TIP3    H141269   1.690   3.967   2.313 -0.3103  0.7693  0.0787
 6618TIP3    H241270   1.630   3.893   2.196  0.2862  0.4063 -0.0058
 6619TIP3   OH241271   1.879   1.134   1.375  0.2851 -0.7209 -0.2164
 6619TIP3    H141272   1.796   1.087   1.384  0.6107 -1.3291 -0.3716
 6619TIP3    H241273   1.936   1.095   1.442  0.6872 -0.8318 -0.6215
 6620TIP3   OH241274   6.031   0.768  15.864  0.4925 -0.5297  0.0104
 6620TIP3    H141275   6.094   0.777  15.936  0.7983  0.5359 -0.3744
 6620TIP3    H241276   6.084   0.764  15.785  0.0993  0.6418 -0.3438
 6621TIP3   OH241277   6.132   2.979  11.311  0.7551 -0.9540  0.6330
 6621TIP3    H141278   6.196   3.033  11.265  0.5606 -0.9087  0.4126
 6621TIP3    H241279   6.056   3.037  11.322  0.7454 -1.0127  0.8774
 6622TIP3   OH241280   5.082   1.174   2.788  0.3696  0.2295 -0.5015
 6622TIP3    H141281   5.009   1.220   2.748 -1.8769 -1.2149  1.6449
 6622TIP3    H241282   5.094   1.096   2.734 -0.5473 -0.1369 -0.2058
 6623TIP3   OH241283   2.986   3.501   4.643 -0.6149  0.0090  0.2942
 6623TIP3    H141284   2.906   3.502   4.696 -1.1404 -0.0817 -0.4810
 6623TIP3    H241285   3.041   3.435   4.684 -0.7358  0.4004  1.1190
 6624TIP3   OH241286   0.219   4.573   1.032 -0.3049  0.0398  0.0756
 6624TIP3    H141287   0.247   4.655   0.991  0.0808 -0.9434 -1.7771
 6624TIP3    H241288   0.126   4.567   1.013 -0.2376 -0.1587 -0.2032
 6625TIP3   OH241289   5.867   6.398  13.456  0.3253  0.2432  0.7821
 6625TIP3    H141290   5.898   6.347  13.382 -2.6927  0.9294 -1.1511
 6625TIP3    H241291   5.840   6.333  13.521  1.3996 -0.4065  0.6042
 6626TIP3   OH241292   5.394   2.066  16.196 -0.2285 -0.6359  0.0250
 6626TIP3    H141293   5.396   2.061  16.100  0.8809  0.2911 -0.0288
 6626TIP3    H241294   5.305   2.040  16.220 -0.2224 -1.8867 -1.1843
 6627TIP3   OH241295   6.227   4.123   4.077  0.5921  0.0711 -0.3577
 6627TIP3    H141296   6.177   4.176   4.139  0.9063 -0.7439  0.6220
 6627TIP3    H241297   6.313   4.113   4.118  0.5689 -1.1026 -0.5755
 6628TIP3   OH241298   0.750   2.675  12.250  0.2004 -0.3835  0.2283
 6628TIP3    H141299   0.661   2.704  12.230  1.1026  1.5848 -1.2735
 6628TIP3    H241300   0.768   2.710  12.337  0.3075  1.3314 -0.4461
 6629TIP3   OH241301   4.269   5.069   1.673 -0.5408  0.0137  0.1913
 6629TIP3    H141302   4.303   5.033   1.755  1.8819  0.3937 -0.5697
 6629TIP3    H241303   4.292   5.162   1.676  1.4282 -0.3295 -1.7030
 6630TIP3   OH241304   3.276   1.275   0.842  0.0440 -0.3459 -0.8912
 6630TIP3    H141305   3.250   1.183   0.838  1.4875 -1.0001  2.1445
 6630TIP3    H241306   3.365   1.277   0.807 -1.0126  0.5500 -3.8661
 6631TIP3   OH241307   6.760   4.683   0.308 -0.0728  0.6832 -0.4197
 6631TIP3    H141308   6.773   4.646   0.221 -0.0319  1.2072 -0.6398
 6631TIP3    H241309   6.732   4.609   0.362  0.0127  0.3341 -0.8501
 6632TIP3   OH241310   5.261   1.823  16.178  0.1654 -0.2922 -0.4597
 6632TIP3    H141311   5.227   1.735  16.162  0.8739 -0.4111 -1.3778
 6632TIP3    H241312   5.187   1.870  16.217  0.1571 -1.6396  1.2695
 6633TIP3   OH241313   5.885   0.539   4.290  0.0135 -0.5031  0.5137
 6633TIP3    H141314   5.960   0.598   4.291  0.6532 -1.2110 -1.3742
 6633TIP3    H241315   5.815   0.589   4.248 -0.3708 -0.1007  1.6001
 6634TIP3   OH241316   5.335   0.691   5.708 -0.1660  0.5813 -0.0104
 6634TIP3    H141317   5.297   0.604   5.717 -0.5781  0.8079  0.4969
 6634TIP3    H241318   5.270   0.750   5.747  0.1890  1.0957 -0.1823
 6635TIP3   OH241319   4.763   1.824  12.780 -0.1946  0.3175 -0.0068
 6635TIP3    H141320   4.706   1.826  12.703 -0.5438  2.5890  0.2293
 6635TIP3    H241321   4.845   1.786  12.748 -0.8634 -0.2904 -1.0673
 6636TIP3   OH241322   2.618   6.500   1.110  0.2437 -0.3034 -0.1235
 6636TIP3    H141323   2.543   6.444   1.125 -0.6502  0.7322 -0.5852
 6636TIP3    H241324   2.657   6.513   1.196 -0.5162 -0.3043  0.2242
 6637TIP3   OH241325   0.922   2.280   1.852  0.0159  0.0114 -0.1570
 6637TIP3    H141326   0.888   2.272   1.762  0.6901 -1.6915 -0.3009
 6637TIP3    H241327   0.844   2.292   1.906 -0.4815  0.0017 -0.8599
 6638TIP3   OH241328   0.504   2.848  11.676 -0.8593  0.0290  0.7026
 6638TIP3    H141329   0.463   2.897  11.747 -0.8873 -0.2339  0.8674
 6638TIP3    H241330   0.445   2.861  11.601 -0.1277  1.4568  0.3326
 6639TIP3   OH241331   5.384   4.749   3.514 -0.3447  0.2545 -0.0762
 6639TIP3    H141332   5.321   4.693   3.560 -0.4167 -0.3316 -0.8723
 6639TIP3    H241333   5.466   4.738   3.562 -0.5475  0.0567  0.2257
 6640TIP3   OH241334   6.778   4.660  12.359 -0.0411  0.1559 -0.0240
 6640TIP3    H141335   6.859   4.609  12.360  0.1394  0.4352 -0.3542
 6640TIP3    H241336   6.777   4.707  12.443  0.0555  0.0252  0.0497
 6641TIP3   OH241337   1.078   5.453   3.463  0.0227  0.1891  0.5615
 6641TIP3    H141338   1.105   5.439   3.553  1.1268  0.3051  0.2569
 6641TIP3    H241339   1.116   5.380   3.414  0.8407  1.0055 -0.0655
 6642TIP3   OH241340   6.051   4.068   0.341  0.6057  0.1714 -0.4778
 6642TIP3    H141341   6.062   4.098   0.251 -1.2360  1.8353 -0.2144
 6642TIP3    H241342   5.976   4.008   0.337  0.3198  0.4911 -0.0321
 6643TIP3   OH241343   3.506   0.540   2.064 -0.7177 -0.5404  0.1433
 6643TIP3    H141344   3.467   0.534   2.151  2.6280  0.1799  1.8577
 6643TIP3    H241345   3.482   0.457   2.022 -1.8090 -1.2389  2.0001
 6644TIP3   OH241346   1.539   0.100  14.574  0.4334  0.2229 -0.1168
 6644TIP3    H141347   1.624   0.126  14.540 -0.0948  0.5155 -1.2550
 6644TIP3    H241348   1.478   0.166  14.540 -0.3451 -0.3374  0.1627
 6645TIP3   OH241349   1.300   2.567  15.529  0.2115 -0.0560 -0.0727
 6645TIP3    H141350   1.317   2.644  15.583 -0.2224 -0.0584  0.0698
 6645TIP3    H241351   1.378   2.558  15.475 -0.7179  2.0491 -1.9711
 6646TIP3   OH241352   1.194   0.702   4.597 -0.0983  0.4032  0.6252
 6646TIP3    H141353   1.125   0.758   4.563 -0.4870 -0.2700  0.2743
 6646TIP3    H241354   1.151   0.617   4.611  0.8016 -0.2252 -0.2501
 6647TIP3   OH241355   2.372   2.118  14.270 -0.0182  0.2809  0.2417
 6647TIP3    H141356   2.293   2.069  14.249  0.0315  1.4310 -3.2896
 6647TIP3    H241357   2.366   2.136  14.364 -4.0878  0.6008  0.0616
 6648TIP3   OH241358   4.019   2.153   3.758  0.1362  0.2333 -0.0486
 6648TIP3    H141359   4.061   2.232   3.791 -0.5038  0.9188 -0.8383
 6648TIP3    H241360   3.932   2.154   3.798  0.0954 -0.0265 -0.1286
 6649TIP3   OH241361   3.627   1.182  13.394 -0.4645  0.7364 -0.3329
 6649TIP3    H141362   3.651   1.257  13.448 -1.7426  2.0853 -1.5339
 6649TIP3    H241363   3.648   1.105  13.448 -1.2675  1.9816  1.8765
 6650TIP3   OH241364   5.808   4.619   4.171 -0.9545 -0.1034  0.5073
 6650TIP3    H141365   5.868   4.582   4.107 -2.4995 -0.7066 -0.6396
 6650TIP3    H241366   5.862   4.680   4.222  0.5622 -0.4645 -0.6117
 6651TIP3   OH241367   5.547   0.116   3.579 -0.3132  0.4046  0.3036
 6651TIP3    H141368   5.510   0.171   3.510 -1.0577  0.4124  0.6898
 6651TIP3    H241369   5.640   0.114   3.561 -0.4259  0.8589 -0.3814
 6652TIP3   OH241370   6.038   5.503  11.556  0.7932 -0.0757  0.5194
 6652TIP3    H141371   6.051   5.497  11.651  2.5913  0.8145  0.3931
 6652TIP3    H241372   6.065   5.593  11.535  0.6037 -0.3234 -0.8527
 6653TIP3   OH241373   4.946   5.328  16.415  0.0193 -0.0334 -0.6759
 6653TIP3    H141374   4.866   5.276  16.413  0.0071  0.0046 -1.3137
 6653TIP3    H241375   5.017   5.263  16.418 -0.0289 -0.0676 -0.1873
 6654TIP3   OH241376   3.391   6.368   4.692  0.2018  0.2552  0.2043
 6654TIP3    H141377   3.410   6.336   4.780 -0.6156  0.1275  0.3353
 6654TIP3    H241378   3.359   6.291   4.645  0.8494  0.2693 -0.2839
 6655TIP3   OH241379   0.980   4.833  15.980  0.2617 -0.4650 -0.3555
 6655TIP3    H141380   1.011   4.923  15.980 -0.8671  0.0052  2.4018
 6655TIP3    H241381   1.059   4.780  15.992  0.5849  0.4434  2.0278
 6656TIP3   OH241382   3.713   3.416   5.240  0.3618 -0.2813 -0.3214
 6656TIP3    H141383   3.754   3.414   5.326 -1.3550  0.4408  0.5456
 6656TIP3    H241384   3.638   3.357   5.247 -0.5236  0.7307 -0.9111
 6657TIP3   OH241385   2.384   1.675  13.220 -0.3142 -0.3872  0.0079
 6657TIP3    H141386   2.394   1.586  13.252 -3.3451 -0.7748  0.2166
 6657TIP3    H241387   2.387   1.668  13.125 -3.5261 -1.3328 -0.1389
 6658TIP3   OH241388   4.642   4.122  16.975  0.4885  0.0353 -1.0819
 6658TIP3    H141389   4.677   4.156  17.058  0.0050 -1.5247 -0.2135
 6658TIP3    H241390   4.562   4.173  16.961 -0.6495 -1.1928  0.6043
 6659TIP3   OH241391   3.328   0.076  15.086 -0.7044 -0.3517 -0.2708
 6659TIP3    H141392   3.289   0.163  15.086 -0.2826 -0.1574  0.0457
 6659TIP3    H241393   3.296   0.036  15.167 -1.3109 -0.6896 -0.6619
 6660TIP3   OH241394   4.426   3.924   5.977  0.4550  0.5201  0.0482
 6660TIP3    H141395   4.371   3.857   6.017 -0.2362  1.6020  0.9705
 6660TIP3    H241396   4.515   3.899   6.002  0.2345 -0.2114  0.1315
 6661TIP3   OH241397   5.121   2.713   2.365 -0.2202 -0.1466  0.0899
 6661TIP3    H141398   5.032   2.681   2.357 -0.6203  0.9127  0.1468
 6661TIP3    H241399   5.127   2.785   2.301  1.6791 -2.4069 -2.5056
 6662TIP3   OH241400   5.441   0.037   1.078 -0.5881 -0.0134  0.1803
 6662TIP3    H141401   5.377  -0.013   1.029 -0.5876  2.1115 -2.1849
 6662TIP3    H241402   5.523  -0.013   1.069 -0.5899  0.3246 -2.0710
 6663TIP3   OH241403   3.878   4.659   0.986  0.6457  0.4467 -0.0286
 6663TIP3    H141404   3.854   4.734   1.039  0.0570 -0.8026  1.5576
 6663TIP3    H241405   3.967   4.638   1.014 -0.1911 -1.1268  1.6753
 6664TIP3   OH241406   1.821   3.300   2.389 -0.5280 -0.3023 -0.4349
 6664TIP3    H141407   1.864   3.253   2.317 -0.4951 -0.4703 -0.3074
 6664TIP3    H241408   1.802   3.386   2.353  1.5848  0.4394  0.0641
 6665TIP3   OH241409   4.087   0.041  11.924 -0.8238 -0.1967 -0.2463
 6665TIP3    H141410   4.033   0.081  11.857  1.2485  0.7040 -1.4760
 6665TIP3    H241411   4.061  -0.051  11.924 -0.9411 -0.1955 -2.2207
 6666TIP3   OH241412   0.034   4.610  14.807 -0.7477  0.5328 -0.0197
 6666TIP3    H141413   0.025   4.682  14.744 -2.1250  0.5458  0.1533
 6666TIP3    H241414  -0.054   4.572  14.812  0.1442 -1.7896 -0.8209
 6667TIP3   OH241415   2.271   4.316   1.795  0.3913  0.1368  0.1904
 6667TIP3    H141416   2.216   4.393   1.779 -0.1551 -0.2911 -0.0235
 6667TIP3    H241417   2.253   4.257   1.722  0.7265 -0.2374  0.4024
 6668TIP3   OH241418   3.685   4.398   4.140 -0.4152 -0.0642 -0.0840
 6668TIP3    H141419   3.760   4.387   4.198 -2.0625 -1.8401  1.8412
 6668TIP3    H241420   3.669   4.493   4.140  1.2643  0.2530  0.1247
 6669TIP3   OH241421   2.910   6.022   2.632 -0.3653 -0.2553 -0.3560
 6669TIP3    H141422   2.954   6.058   2.709 -0.2197  0.8807 -0.9564
 6669TIP3    H241423   2.847   5.959   2.668  0.1342 -0.2085  0.6451
 6670TIP3   OH241424   2.363   2.563  16.185 -0.1392  0.2804 -0.1045
 6670TIP3    H141425   2.355   2.614  16.104 -1.1632 -1.2833 -1.0306
 6670TIP3    H241426   2.388   2.476  16.156  1.2306  0.1269  1.4290
 6671TIP3   OH241427   3.117   5.013   2.468 -0.1975 -0.0302  0.9743
 6671TIP3    H141428   3.198   5.024   2.419  0.6263 -1.2077  2.0130
 6671TIP3    H241429   3.048   5.029   2.403  0.8380 -1.5079 -0.5973
 6672TIP3   OH241430   4.630   6.457   1.821  0.4076 -0.4547 -0.1142
 6672TIP3    H141431   4.575   6.495   1.752  0.1739 -0.5200  0.0375
 6672TIP3    H241432   4.605   6.364   1.823 -0.6676 -0.1707  1.0770
 6673TIP3   OH241433   0.762   4.079  14.471  0.4164  0.1432  0.0876
 6673TIP3    H141434   0.758   4.152  14.534 -0.2316  0.4248 -0.2707
 6673TIP3    H241435   0.757   4.001  14.525 -0.6084  0.3874  0.3766
 6674TIP3   OH241436   4.424   3.027   0.790  0.0288  0.4692  0.5365
 6674TIP3    H141437   4.447   2.973   0.866  1.6076 -0.2571 -0.4102
 6674TIP3    H241438   4.485   3.000   0.722 -0.8124  1.6887 -0.7600
 6675TIP3   OH241439   3.300   3.253  14.238  0.3789  0.1911 -0.3551
 6675TIP3    H141440   3.251   3.317  14.187 -0.8263  0.7751  1.4562
 6675TIP3    H241441   3.240   3.226  14.308  1.2889 -2.0052 -0.3324
 6676TIP3   OH241442   2.411   6.210  11.250 -0.5497  0.6958  0.1469
 6676TIP3    H141443   2.475   6.141  11.268 -1.9766 -0.1240  2.5668
 6676TIP3    H241444   2.397   6.206  11.156  0.2988 -1.5287  0.0520
 6677TIP3   OH241445   3.622   0.661  16.014  0.8725  0.4759  0.5785
 6677TIP3    H141446   3.573   0.587  16.051  2.5138 -1.0300 -0.1191
 6677TIP3    H241447   3.554   0.724  15.990 -0.7244 -1.3703 -0.0411
 6678TIP3   OH241448   5.545   5.562  15.012 -0.0912 -0.3253 -0.3871
 6678TIP3    H141449   5.540   5.645  15.058  1.1263 -0.7532  0.5716
 6678TIP3    H241450   5.457   5.549  14.975 -0.7691  0.5675  0.8627
 6679TIP3   OH241451   5.721   5.978   2.228  0.1554 -0.1076 -0.8022
 6679TIP3    H141452   5.717   6.072   2.210 -1.0487 -0.0403 -0.3046
 6679TIP3    H241453   5.759   5.971   2.315  0.3738 -0.0912 -0.8960
 6680TIP3   OH241454   0.203   5.534  12.402 -0.3804  0.0098  0.3882
 6680TIP3    H141455   0.179   5.560  12.490 -0.6970 -0.5861  0.4800
 6680TIP3    H241456   0.281   5.479  12.413  0.3199  0.9268  0.1917
 6681TIP3   OH241457   4.848   5.844   4.857 -0.4162  0.1557  0.1054
 6681TIP3    H141458   4.866   5.936   4.877  1.0350  0.6459 -2.9495
 6681TIP3    H241459   4.934   5.804   4.847 -1.0278 -1.0465 -0.6080
 6682TIP3   OH241460   2.746   1.977  16.619 -0.0640 -0.4307  0.6763
 6682TIP3    H141461   2.702   1.900  16.582  0.3859 -1.0176  1.3246
 6682TIP3    H241462   2.839   1.963  16.600  0.3096 -1.2701  2.8509
 6683TIP3   OH241463   5.450   6.231   0.491  0.3876  0.2553  0.0875
 6683TIP3    H141464   5.413   6.189   0.569  1.6571  2.3383  1.9299
 6683TIP3    H241465   5.374   6.266   0.444 -0.2965  1.6400  2.0773
 6684TIP3   OH241466   4.306   4.645  12.940 -0.0894  0.5663 -0.6753
 6684TIP3    H141467   4.289   4.582  13.010 -0.5066  1.7183  0.2987
 6684TIP3    H241468   4.267   4.727  12.972  3.8342  2.4163  0.0105
 6685TIP3   OH241469   6.054   1.026  15.502 -0.9785  0.3092  0.4091
 6685TIP3    H141470   6.118   1.092  15.475 -1.5183 -0.0249 -1.9399
 6685TIP3    H241471   6.107   0.957  15.543  0.0386  0.5952 -0.3728
 6686TIP3   OH241472   2.523   3.688   4.105 -0.3928  0.4316  0.1564
 6686TIP3    H141473   2.598   3.630   4.118 -0.8949 -0.1139  0.6751
 6686TIP3    H241474   2.519   3.740   4.185 -1.4724 -0.6021  0.8012
 6687TIP3   OH241475   6.065   4.898   2.305 -0.6071  0.1952 -0.5493
 6687TIP3    H141476   6.099   4.828   2.249 -1.1205 -0.6724  0.1944
 6687TIP3    H241477   6.018   4.853   2.375 -2.4966  1.3132 -1.0129
 6688TIP3   OH241478   5.003   1.046   1.577 -0.1271 -0.1233  0.1655
 6688TIP3    H141479   5.004   1.061   1.672  0.2963  0.0499  0.1373
 6688TIP3    H241480   4.919   1.004   1.560  0.4610 -1.6802  0.8673
 6689TIP3   OH241481   2.279   4.679  12.608  0.2718  0.1102 -0.1648
 6689TIP3    H141482   2.190   4.699  12.637  0.5650  1.3804 -0.0700
 6689TIP3    H241483   2.334   4.703  12.683  0.7814  0.3405 -0.6098
 6690TIP3   OH241484   1.492   5.060   5.429  0.3172  0.0781 -0.0574
 6690TIP3    H141485   1.553   5.024   5.364  0.9234  1.1523 -0.1211
 6690TIP3    H241486   1.408   5.065   5.383  0.3794 -0.5961 -0.2561
 6691TIP3   OH241487   4.091   1.349  15.277 -0.4681 -0.2638  0.0861
 6691TIP3    H141488   4.154   1.365  15.206  2.6413  1.8901  3.0090
 6691TIP3    H241489   4.102   1.256  15.297  1.4021 -0.0955  0.0710
 6692TIP3   OH241490   1.062   0.604   0.772  0.8066  0.1024  0.4681
 6692TIP3    H141491   1.059   0.618   0.677  0.9109  0.1144  0.4673
 6692TIP3    H241492   1.051   0.691   0.810 -0.8712 -0.0766  0.4847
 6693TIP3   OH241493   3.102   2.450  15.613 -0.2743 -0.2913 -0.4473
 6693TIP3    H141494   3.198   2.446  15.604 -0.3199 -0.9044 -0.7009
 6693TIP3    H241495   3.086   2.534  15.656  0.3292  0.2083 -1.1559
 6694TIP3   OH241496   1.950   3.782   3.015 -0.0776  0.2591 -0.1467
 6694TIP3    H141497   1.907   3.867   3.014 -0.5848  0.0150 -1.5806
 6694TIP3    H241498   1.993   3.776   2.929  1.5712 -0.1421  0.6565
 6695TIP3   OH241499   2.459   6.400   2.592 -0.0628 -0.3876  0.1993
 6695TIP3    H141500   2.548   6.420   2.563  0.3319  0.2095  1.7753
 6695TIP3    H241501   2.407   6.475   2.562  0.3420  0.2255  0.9956
 6696TIP3   OH241502   3.105   1.474  16.721 -0.3854  0.1067  0.6986
 6696TIP3    H141503   3.086   1.551  16.667 -0.5601  0.5509  1.3896
 6696TIP3    H241504   3.199   1.477  16.735 -0.5930  1.0580  2.0033
 6697TIP3   OH241505   6.202   0.516  13.224  0.3327  0.7049 -0.4120
 6697TIP3    H141506   6.179   0.477  13.140 -1.2436 -1.8387  1.0816
 6697TIP3    H241507   6.129   0.573  13.245 -0.2401 -0.2011  0.1055
 6698TIP3   OH241508   1.620   3.818  16.170  0.0446  0.4635  0.0590
 6698TIP3    H141509   1.536   3.854  16.140 -0.8889 -0.8106  1.0244
 6698TIP3    H241510   1.658   3.887  16.224 -0.4223  1.0207 -0.3144
 6699TIP3   OH241511   2.236   0.732   3.477  0.3801 -0.1859  0.7059
 6699TIP3    H141512   2.185   0.753   3.555 -1.8964  1.6711 -1.1426
 6699TIP3    H241513   2.258   0.817   3.439  3.3912 -0.9819  0.4362
 6700TIP3   OH241514   3.105   4.604  10.931  0.3965  0.2617 -0.3476
 6700TIP3    H141515   3.055   4.523  10.938  0.4567  0.2352 -0.2203
 6700TIP3    H241516   3.038   4.672  10.921  0.3389  0.2149 -0.2834
 6701TIP3   OH241517   0.876   5.759  12.407 -0.0287  0.1156  0.1169
 6701TIP3    H141518   0.832   5.698  12.348  0.5247 -1.0447  0.8601
 6701TIP3    H241519   0.968   5.731  12.407  0.1075  0.5106  0.9841
 6702TIP3   OH241520   3.771   2.952  15.705 -0.5450  0.0245 -0.1253
 6702TIP3    H141521   3.789   2.866  15.744  0.5457  0.5167  0.4946
 6702TIP3    H241522   3.816   2.950  15.621 -1.3374 -0.3549 -0.5508
 6703TIP3   OH241523   2.131   6.061  15.868 -0.0588  0.2478  0.0565
 6703TIP3    H141524   2.113   6.120  15.942 -1.3083 -0.8944  0.6967
 6703TIP3    H241525   2.146   6.120  15.794  0.6041  1.4058  1.0683
 6704TIP3   OH241526   1.632   2.007   1.983 -0.0692  0.0329 -0.0797
 6704TIP3    H141527   1.549   2.055   1.991 -0.3561 -0.3607 -0.6096
 6704TIP3    H241528   1.699   2.075   1.991 -0.4839  0.8126 -2.3306
 6705TIP3   OH241529   3.269   3.686   4.189 -0.1552 -0.0579  0.1102
 6705TIP3    H141530   3.281   3.603   4.236 -0.1043 -0.8657 -1.2821
 6705TIP3    H241531   3.330   3.746   4.231  0.6834 -1.0591  0.3780
 6706TIP3   OH241532   6.166   5.521   4.197  0.1421  0.0038  0.9147
 6706TIP3    H141533   6.141   5.539   4.287 -1.6679  0.4517  0.3754
 6706TIP3    H241534   6.107   5.451   4.169 -1.2280  1.6530 -0.6735
 6707TIP3   OH241535   1.478   3.418   4.881  0.3119 -0.4354  1.1146
 6707TIP3    H141536   1.508   3.501   4.847  1.5160 -0.6201  1.6900
 6707TIP3    H241537   1.389   3.436   4.913  0.9566  0.9174  2.2519
 6708TIP3   OH241538   4.765   2.869   4.662  0.5427 -0.2908 -0.6185
 6708TIP3    H141539   4.695   2.882   4.727  0.7912 -0.3040 -0.3451
 6708TIP3    H241540   4.770   2.952   4.616  0.2804 -0.3211 -0.7046
 6709TIP3   OH241541   4.415   6.625   1.242 -0.1280 -0.0334 -0.3118
 6709TIP3    H141542   4.371   6.684   1.181 -0.7338  0.7111  0.8022
 6709TIP3    H241543   4.360   6.626   1.320  0.2950 -1.4431  0.0337
 6710TIP3   OH241544   2.419   5.011  15.744 -0.5112  0.0474  0.0564
 6710TIP3    H141545   2.356   5.011  15.816 -2.0966  0.5402 -1.2760
 6710TIP3    H241546   2.368   4.986  15.667  1.0413 -0.0433 -1.0003
 6711TIP3   OH241547   4.634   6.458  15.729  0.2832 -0.0342  0.1801
 6711TIP3    H141548   4.681   6.408  15.796 -1.1063  1.4066  2.3981
 6711TIP3    H241549   4.546   6.422  15.730 -0.7603  2.2888  1.8431
 6712TIP3   OH241550   2.450   1.302  10.814  0.2692 -0.6884 -0.8415
 6712TIP3    H141551   2.501   1.379  10.840  0.3337 -1.2497  0.7615
 6712TIP3    H241552   2.461   1.298  10.718  2.5099 -0.2861 -0.6658
 6713TIP3   OH241553   5.698   0.273  12.481 -0.2278 -0.0212 -0.1812
 6713TIP3    H141554   5.698   0.368  12.492 -0.4435 -0.0978  0.5145
 6713TIP3    H241555   5.742   0.259  12.397  0.4578  0.6545  0.0479
 6714TIP3   OH241556   2.009   3.858   2.635  0.1819 -0.2989 -0.0353
 6714TIP3    H141557   2.060   3.935   2.659 -0.6328  0.2020  0.1326
 6714TIP3    H241558   2.043   3.788   2.690  0.2264  0.1911  0.5728
 6715TIP3   OH241559   1.755   0.822   5.033 -0.0132 -0.0858 -0.0215
 6715TIP3    H141560   1.713   0.783   4.956  0.2870  1.4983 -1.0400
 6715TIP3    H241561   1.704   0.901   5.051  0.2594 -0.1430  1.0896
 6716TIP3   OH241562   5.934   4.793  12.087  0.1359 -0.0140 -0.4475
 6716TIP3    H141563   5.961   4.765  12.000 -0.4073  2.0333 -1.3322
 6716TIP3    H241564   5.955   4.886  12.090 -0.9237  0.2205  1.1756
 6717TIP3   OH241565   5.866   4.939   5.886 -0.4868  0.0558 -0.2510
 6717TIP3    H141566   5.780   4.978   5.900 -0.9759 -1.2375  0.6041
 6717TIP3    H241567   5.895   4.914   5.974 -0.7592 -2.5571 -0.8043
 6718TIP3   OH241568   6.171   5.804   1.211 -0.1388  0.2512  0.4377
 6718TIP3    H141569   6.231   5.750   1.160 -2.5539 -1.0994 -1.1592
 6718TIP3    H241570   6.207   5.892   1.205  0.6940 -0.1726 -2.0681
 6719TIP3   OH241571   3.134   3.967   0.839  0.0059 -0.1940 -0.4344
 6719TIP3    H141572   3.185   3.921   0.905  0.2238 -0.5097 -0.8210
 6719TIP3    H241573   3.138   3.911   0.761 -2.3051 -1.0802 -0.0097
 6720TIP3   OH241574   5.344   1.441   4.801  0.3192 -0.3303 -0.5191
 6720TIP3    H141575   5.378   1.385   4.871 -0.9926  1.7131  1.9203
 6720TIP3    H241576   5.417   1.450   4.740  2.1299 -0.8831  1.4425
 6721TIP3   OH241577   3.007   5.708  11.986 -0.2781 -0.7438 -0.3576
 6721TIP3    H141578   3.098   5.699  11.955 -0.6286  1.9250 -2.5885
 6721TIP3    H241579   3.015   5.756  12.069  0.3890 -2.3078  0.5218
 6722TIP3   OH241580   0.583   1.076  14.705 -0.5855  0.7646 -0.4721
 6722TIP3    H141581   0.502   1.043  14.668 -0.7141  1.0741 -0.4668
 6722TIP3    H241582   0.624   0.999  14.746 -0.7378  0.5523 -0.7185
 6723TIP3   OH241583   3.724   1.095   3.382 -0.1170 -0.1880  0.5038
 6723TIP3    H141584   3.807   1.050   3.365 -0.4209 -0.5821  0.0177
 6723TIP3    H241585   3.706   1.143   3.301 -0.5850 -0.4642  0.4405
 6724TIP3   OH241586   4.596   1.625   5.501 -0.3024  0.0666  0.0734
 6724TIP3    H141587   4.543   1.688   5.452  1.9279  0.9015 -1.4496
 6724TIP3    H241588   4.647   1.580   5.433  0.5246 -1.0840  1.4074
 6725TIP3   OH241589   0.090   1.990   1.298 -0.2841 -0.2844 -0.0755
 6725TIP3    H141590   0.009   1.938   1.293 -0.5947  0.2923 -2.5135
 6725TIP3    H241591   0.103   2.022   1.208  2.7275 -0.4393  0.2251
 6726TIP3   OH241592   4.663   5.247  16.477 -0.1900  0.9175 -0.3675
 6726TIP3    H141593   4.587   5.220  16.528  1.0972  0.7148  1.5359
 6726TIP3    H241594   4.684   5.334  16.511  0.7702  0.7292 -0.4702
 6727TIP3   OH241595   1.273   5.460  15.026 -0.2862  0.0163  0.0106
 6727TIP3    H141596   1.294   5.481  15.117  0.0296 -0.8336  0.1346
 6727TIP3    H241597   1.177   5.453  15.025 -0.3605  0.8542  0.0870
 6728TIP3   OH241598   4.892   6.208   1.250 -0.4596 -0.6193 -0.0746
 6728TIP3    H141599   4.904   6.239   1.160 -1.0034 -0.5906 -0.1406
 6728TIP3    H241600   4.824   6.141   1.243 -1.0733 -0.0548  0.4274
 6729TIP3   OH241601   1.986   2.385  13.444  0.1684  0.2900  0.9351
 6729TIP3    H141602   2.043   2.430  13.507 -0.2248  0.0039  1.4980
 6729TIP3    H241603   1.937   2.322  13.496 -0.0172 -0.0911  0.3064
 6730TIP3   OH241604   6.251   3.661  12.039 -0.1581  0.2038  0.3986
 6730TIP3    H141605   6.238   3.738  12.094  1.5836  1.4858 -0.8613
 6730TIP3    H241606   6.343   3.664  12.015  0.0501 -2.5267  0.5917
 6731TIP3   OH241607   1.887   3.637  13.802 -0.6022  0.0200  0.7249
 6731TIP3    H141608   1.958   3.623  13.864 -0.1636  2.1720  0.7873
 6731TIP3    H241609   1.825   3.567  13.821  0.1135 -0.1402  2.7388
 6732TIP3   OH241610   3.557   2.364  13.103  0.3028  0.3539 -0.3607
 6732TIP3    H141611   3.622   2.351  13.172 -0.6354  0.7645  0.6279
 6732TIP3    H241612   3.604   2.343  13.022  0.9056 -2.0116  0.5130
 6733TIP3   OH241613   6.079   1.280   4.065  0.4427  0.6561  0.4414
 6733TIP3    H141614   6.030   1.203   4.095  1.0867  0.6494  1.5358
 6733TIP3    H241615   6.134   1.247   3.994 -1.2478  0.7064 -0.9541
 6734TIP3   OH241616   3.711   0.764  12.281  0.0614  0.0477 -0.5336
 6734TIP3    H141617   3.786   0.762  12.339  0.7261  0.6061 -1.3522
 6734TIP3    H241618   3.687   0.672  12.269 -0.9919 -0.0527  1.7104
 6735TIP3   OH241619   2.671   3.066   1.111  0.5951  0.4914  0.0521
 6735TIP3    H141620   2.621   3.135   1.155  1.0055  1.1938 -0.5529
 6735TIP3    H241621   2.641   2.985   1.152  0.1956  1.0352  0.8717
 6736TIP3   OH241622   6.002   1.882   4.433  0.3090  0.1111 -0.5451
 6736TIP3    H141623   6.028   1.824   4.362  1.5894  0.8878 -0.7281
 6736TIP3    H241624   5.906   1.889   4.424  0.2658 -1.0374 -1.2125
 6737TIP3   OH241625   2.863   4.968  16.324 -0.4566  0.1936 -0.5959
 6737TIP3    H141626   2.784   4.931  16.285 -2.0224  0.8836  1.7315
 6737TIP3    H241627   2.851   5.062  16.322 -1.2842  0.2890  2.5644
 6738TIP3   OH241628   0.408   2.622   6.110  0.0552  0.0232  0.4011
 6738TIP3    H141629   0.343   2.598   6.177 -1.1228  1.1472 -0.3050
 6738TIP3    H241630   0.367   2.693   6.061  1.7130  0.5478 -0.2737
 6739TIP3   OH241631   1.286   5.719  11.317  0.0406 -0.1507 -0.4690
 6739TIP3    H141632   1.357   5.656  11.325 -0.2075 -0.3110  0.6395
 6739TIP3    H241633   1.223   5.694  11.385 -0.6129  0.5775 -0.7812
 6740TIP3   OH241634   5.671   4.361  14.145  0.6359 -0.2701 -0.1431
 6740TIP3    H141635   5.750   4.309  14.153  0.8186  0.0696  0.3303
 6740TIP3    H241636   5.608   4.317  14.202  0.9162  0.2512  0.5822
 6741TIP3   OH241637   5.568   2.171  13.901 -0.2388  0.1547  0.1567
 6741TIP3    H141638   5.559   2.161  13.806 -1.1460 -0.2306  0.2758
 6741TIP3    H241639   5.628   2.245  13.911 -0.5979  0.5872 -0.7252
 6742TIP3   OH241640   0.720   2.840  12.800  0.3486  0.0866  0.1869
 6742TIP3    H141641   0.797   2.872  12.753 -0.1382  0.3247 -0.4631
 6742TIP3    H241642   0.710   2.900  12.874  0.5442  0.2970  0.0439
 6743TIP3   OH241643   0.444   2.013  17.041 -0.3660  0.0000  0.3427
 6743TIP3    H141644   0.372   2.030  16.979  0.7315 -1.5773 -1.4580
 6743TIP3    H241645   0.401   1.975  17.118 -1.3884 -2.4377 -1.3215
 6744TIP3   OH241646   0.439   1.191  12.585  0.0567 -0.2031 -0.0878
 6744TIP3    H141647   0.445   1.203  12.490 -1.9072  1.3895 -0.0647
 6744TIP3    H241648   0.473   1.102  12.599  1.7721  0.0512 -2.0641
 6745TIP3   OH241649   5.075   4.437  16.365  0.3633  0.2292  0.0006
 6745TIP3    H141650   5.004   4.375  16.386 -1.0340  2.2886  1.7645
 6745TIP3    H241651   5.030   4.518  16.342  2.1482  0.6802 -2.3132
 6746TIP3   OH241652   3.537   2.069  15.149 -0.4338 -0.6408  0.0773
 6746TIP3    H141653   3.570   1.979  15.159  1.9371  0.0766 -0.5055
 6746TIP3    H241654   3.525   2.100  15.239  3.6697  0.0194  0.6013
 6747TIP3   OH241655   1.388   3.301  12.747  0.9076 -0.3007  0.2144
 6747TIP3    H141656   1.373   3.223  12.694  1.4599 -0.2279 -0.0567
 6747TIP3    H241657   1.482   3.314  12.745  0.6996  1.3669 -1.1843
 6748TIP3   OH241658   5.680   1.068  11.475 -0.0849  0.0615 -0.2771
 6748TIP3    H141659   5.719   0.987  11.508 -0.5248  0.1653  0.5225
 6748TIP3    H241660   5.723   1.083  11.391 -0.3267 -1.2604 -0.6645
 6749TIP3   OH241661   3.445   1.511  14.783 -0.5735 -0.5244  0.2378
 6749TIP3    H141662   3.412   1.457  14.711  0.7394  0.1268 -0.8978
 6749TIP3    H241663   3.483   1.449  14.844 -1.4793 -1.0695  0.2679
 6750TIP3   OH241664   4.711   0.031  11.472  0.2838  0.7623  0.0255
 6750TIP3    H141665   4.725  -0.039  11.537  0.6362  0.7400 -0.0710
 6750TIP3    H241666   4.751  -0.003  11.392 -0.9287  0.4129 -0.4489
 6751TIP3   OH241667   4.736   2.878  14.523 -0.3425  0.0591 -0.2231
 6751TIP3    H141668   4.777   2.935  14.458 -0.7737 -0.0645 -0.6067
 6751TIP3    H241669   4.687   2.939  14.580  1.4848  0.3637  1.1039
 6752TIP3   OH241670   4.615   3.719   4.145 -0.6996  0.0942 -0.0075
 6752TIP3    H141671   4.649   3.780   4.211  1.7008 -1.2041  0.0724
 6752TIP3    H241672   4.684   3.715   4.079 -1.9889 -0.5138 -1.3670
 6753TIP3   OH241673   4.084   5.401   0.495 -0.0019 -0.2647 -0.0767
 6753TIP3    H141674   3.994   5.427   0.477 -0.1508 -1.6294 -1.4796
 6753TIP3    H241675   4.078   5.346   0.573 -0.8981 -2.9369 -1.9131
 6754TIP3   OH241676   0.761   1.249   2.562 -0.1416 -0.3969 -0.0178
 6754TIP3    H141677   0.796   1.248   2.473  1.8217  0.7069  0.6659
 6754TIP3    H241678   0.701   1.175   2.565 -0.5409 -0.2570 -2.3480
 6755TIP3   OH241679   4.351   5.004   6.054 -0.6249  0.0210 -0.1064
 6755TIP3    H141680   4.410   5.038   6.121 -0.5875  0.2270 -0.2450
 6755TIP3    H241681   4.285   4.955   6.103 -1.1479  0.9727  0.1603
 6756TIP3   OH241682   4.375   0.049   2.502 -0.0235  0.2467 -0.4539
 6756TIP3    H141683   4.448   0.072   2.559 -0.8466  0.6748  0.4648
 6756TIP3    H241684   4.369  -0.046   2.508 -1.1286  0.3717  1.5720
 6757TIP3   OH241685   0.170   2.982  13.442 -0.4082 -0.9185 -0.2751
 6757TIP3    H141686   0.132   3.067  13.466 -0.9137 -1.5088  1.1027
 6757TIP3    H241687   0.157   2.976  13.347 -0.1102  0.6523 -0.4519
 6758TIP3   OH241688   5.582   1.709  11.139 -0.0528  0.2149  0.6446
 6758TIP3    H141689   5.650   1.650  11.171 -0.9551 -0.0941  2.0991
 6758TIP3    H241690   5.629   1.775  11.089  1.1411 -0.8537  0.3232
 6759TIP3   OH241691   1.542   2.007  15.119 -0.2061  0.1408  0.2474
 6759TIP3    H141692   1.467   2.009  15.178  1.4340  0.5399  2.4634
 6759TIP3    H241693   1.608   1.955  15.166  1.8948  2.1668 -0.2684
 6760TIP3   OH241694   1.846   6.719   1.582  0.2094  0.0220  0.2459
 6760TIP3    H141695   1.891   6.804   1.581  0.4488 -0.0891 -1.6178
 6760TIP3    H241696   1.903   6.661   1.533 -1.2620 -0.4864 -0.9243
 6761TIP3   OH241697   1.564   1.814  14.901 -0.6259 -0.8692 -0.2556
 6761TIP3    H141698   1.614   1.865  14.837 -0.4436  0.4084  0.8446
 6761TIP3    H241699   1.534   1.879  14.965 -3.4267 -1.6360 -0.6537
 6762TIP3   OH241700   5.843   6.166  12.953  0.3621 -0.7531  0.2119
 6762TIP3    H141701   5.874   6.226  12.885 -1.4365 -1.0603 -0.9413
 6762TIP3    H241702   5.867   6.079  12.921 -0.9742 -0.9425 -0.3632
 6763TIP3   OH241703   4.824   4.838  16.600 -0.1525 -0.2512  0.7510
 6763TIP3    H141704   4.750   4.777  16.603  0.5382 -1.0635  2.1548
 6763TIP3    H241705   4.882   4.802  16.533 -0.5305 -0.1916  0.3856
 6764TIP3   OH241706   2.721   5.739   2.884  0.9046 -0.0307  0.1937
 6764TIP3    H141707   2.786   5.773   2.945  0.6211 -0.0122  0.4851
 6764TIP3    H241708   2.753   5.653   2.859  1.0277 -0.0318  0.3563
 6765TIP3   OH241709   5.991   2.013   5.266  0.0498  0.5334 -0.3979
 6765TIP3    H141710   6.065   1.955   5.248 -2.3298 -3.2651  0.8771
 6765TIP3    H241711   6.003   2.039   5.357  0.2771  0.6808 -0.4692
 6766TIP3   OH241712   4.485   3.472  12.165  0.0166  0.1654 -0.1333
 6766TIP3    H141713   4.572   3.460  12.203 -0.8205 -1.2529  1.4476
 6766TIP3    H241714   4.454   3.383  12.148 -1.4710  0.6120  0.1272
 6767TIP3   OH241715   2.556   5.455  13.824  0.1350 -0.0666 -0.8726
 6767TIP3    H141716   2.636   5.469  13.774  0.0363  0.0856 -0.9853
 6767TIP3    H241717   2.499   5.527  13.800 -0.4809 -0.7936 -1.6760
 6768TIP3   OH241718   1.773   2.230  12.006  0.2508  0.1832 -0.3010
 6768TIP3    H141719   1.723   2.250  11.928  0.3566 -0.5298 -0.5624
 6768TIP3    H241720   1.717   2.169  12.056  1.2619 -1.4973 -1.1212
 6769TIP3   OH241721   2.360   0.373  13.010 -0.2863  0.3413 -0.0234
 6769TIP3    H141722   2.356   0.288  13.052  0.3837 -0.6426 -1.8455
 6769TIP3    H241723   2.451   0.385  12.986 -0.1585  2.0864  1.1122
 6770TIP3   OH241724   6.672   0.344   4.543  0.3534  0.0803 -0.0018
 6770TIP3    H141725   6.676   0.418   4.482 -0.5774  0.8509  0.8332
 6770TIP3    H241726   6.585   0.306   4.529 -0.1517  0.6808  1.2627
 6771TIP3   OH241727   0.382   4.595  14.065  0.2949 -0.6870  0.3452
 6771TIP3    H141728   0.477   4.594  14.052  0.3599  1.8722  0.1071
 6771TIP3    H241729   0.346   4.573  13.979  0.7428  2.2258 -0.6928
 6772TIP3   OH241730   4.894   3.634  16.360 -0.2430  0.3090  0.4165
 6772TIP3    H141731   4.947   3.672  16.430 -0.2177  3.5402 -1.1789
 6772TIP3    H241732   4.805   3.633  16.395  0.2208 -1.7619  1.7775
 6773TIP3   OH241733   5.971   5.388   3.448 -0.7639  0.3558 -0.4482
 6773TIP3    H141734   5.952   5.473   3.488 -2.2285  0.7142 -1.8281
 6773TIP3    H241735   5.917   5.326   3.497  1.0068  0.0040  1.1863
 6774TIP3   OH241736   5.576   3.342   0.131  0.1292  0.4868  0.1132
 6774TIP3    H141737   5.532   3.282   0.191 -0.7685  0.0160 -0.9812
 6774TIP3    H241738   5.521   3.341   0.052  1.9157  0.1628 -1.1701
 6775TIP3   OH241739   2.447   6.313  13.376  0.7229  0.1140  0.1322
 6775TIP3    H141740   2.501   6.240  13.405 -0.1131 -0.7424 -0.4237
 6775TIP3    H241741   2.418   6.288  13.288 -1.9311 -0.2381  1.0483
 6776TIP3   OH241742   2.573   3.363  16.044  0.4722 -0.1594 -0.2141
 6776TIP3    H141743   2.554   3.410  16.126  0.5365 -0.8400  0.2020
 6776TIP3    H241744   2.640   3.300  16.069 -1.7906 -2.6558  0.0183
 6777TIP3   OH241745   2.700   4.634  10.825 -0.1282  0.6225 -0.4840
 6777TIP3    H141746   2.738   4.562  10.775  1.5444  0.4998  0.8862
 6777TIP3    H241747   2.772   4.695  10.838 -0.1607  0.1604  2.6207
 6778TIP3   OH241748   4.486   0.038   3.342  0.1436  0.0245 -0.6150
 6778TIP3    H141749   4.457  -0.010   3.420 -1.1973  0.4722 -0.7989
 6778TIP3    H241750   4.461   0.129   3.360 -1.8726 -0.1259 -2.2735
 6779TIP3   OH241751   2.433   0.049   1.822  0.4222  0.5704  0.8598
 6779TIP3    H141752   2.386   0.091   1.894 -2.9451  0.1503 -0.9204
 6779TIP3    H241753   2.400   0.093   1.744  1.2630 -1.4079 -0.6695
 6780TIP3   OH241754   2.527   4.339   1.856 -0.6375  0.6336  0.5612
 6780TIP3    H141755   2.556   4.400   1.788 -1.0300 -0.9540 -1.1156
 6780TIP3    H241756   2.435   4.323   1.836 -1.5075  1.9915  3.0010
 6781TIP3   OH241757   4.456   4.482   2.642  0.0448  0.1405 -0.0857
 6781TIP3    H141758   4.498   4.413   2.591 -1.5325 -0.4254 -0.7122
 6781TIP3    H241759   4.408   4.435   2.710  1.6812  0.8655  1.6439
 6782TIP3   OH241760   2.955   3.781   5.815  0.2198  0.7778  0.1754
 6782TIP3    H141761   3.045   3.747   5.823 -0.0280  0.0124 -0.2404
 6782TIP3    H241762   2.939   3.823   5.900  0.5894 -0.0199  0.6555
 6783TIP3   OH241763   0.494   6.213   2.331 -0.3280  0.1370 -0.2120
 6783TIP3    H141764   0.580   6.173   2.346 -0.4801  0.0844  0.5666
 6783TIP3    H241765   0.451   6.208   2.416 -0.5449  1.5146 -0.2251
 6784TIP3   OH241766   2.663   2.932  15.894  0.4233 -0.0418  0.5181
 6784TIP3    H141767   2.726   2.891  15.953  0.1378 -0.4170  0.5692
 6784TIP3    H241768   2.585   2.947  15.948  1.2067  2.5323  1.0866
 6785TIP3   OH241769   2.708   3.818  16.130  0.1678  0.2130  0.1758
 6785TIP3    H141770   2.641   3.811  16.061 -1.2949 -2.3524  1.7393
 6785TIP3    H241771   2.659   3.838  16.209  1.4698 -0.0080  1.0694
 6786TIP3   OH241772   2.001   3.446  12.567 -0.2087  0.3682  0.8822
 6786TIP3    H141773   2.062   3.385  12.608  0.0640 -0.2814 -0.4184
 6786TIP3    H241774   2.043   3.531  12.575  1.4810 -0.1965 -0.9296
 6787TIP3   OH241775   4.327   5.902   1.832  0.1349 -0.1737 -0.1260
 6787TIP3    H141776   4.358   5.853   1.756  3.2237  2.6780 -0.9702
 6787TIP3    H241777   4.313   5.990   1.799  1.0410  1.0265  2.4507
 6788TIP3   OH241778   2.100   4.643   4.250  0.4155  0.1466  0.3885
 6788TIP3    H141779   2.011   4.622   4.223  0.3600  1.3743 -0.4420
 6788TIP3    H241780   2.090   4.711   4.316  0.7256 -0.0934  0.6868
 6789TIP3   OH241781   6.123   2.047  11.122  0.8093  0.5190  0.7273
 6789TIP3    H141782   6.076   2.128  11.139 -0.3563  0.2269 -0.8963
 6789TIP3    H241783   6.102   2.026  11.031 -1.3065 -3.1244  1.8763
 6790TIP3   OH241784   6.342   2.418   0.199 -0.0117  0.1621 -0.2366
 6790TIP3    H141785   6.397   2.457   0.130  1.7857 -1.6417  0.0877
 6790TIP3    H241786   6.273   2.483   0.214  1.6621  2.2634 -1.1284
 6791TIP3   OH241787   3.358   2.590  14.096  0.0205  0.0217  0.3413
 6791TIP3    H141788   3.269   2.561  14.078 -0.6824  1.8427  0.6663
 6791TIP3    H241789   3.348   2.654  14.166  1.4405  1.2019 -0.5003
 6792TIP3   OH241790   4.835   5.263   5.439 -0.9317  0.1598 -0.2574
 6792TIP3    H141791   4.811   5.191   5.381 -2.3629  1.2195 -1.0489
 6792TIP3    H241792   4.929   5.275   5.424 -1.1885  0.1494 -2.1358
 6793TIP3   OH241793   0.320   1.392  16.347  0.3708  0.3403  0.4709
 6793TIP3    H141794   0.301   1.327  16.279  1.9818  0.6418 -0.3255
 6793TIP3    H241795   0.258   1.373  16.417  0.6111 -1.8965  0.1551
 6794TIP3   OH241796   3.719   2.797   2.385  0.3342  0.2312  0.1636
 6794TIP3    H141797   3.790   2.857   2.363  0.1384  1.0379  1.6397
 6794TIP3    H241798   3.654   2.851   2.430 -0.3561 -0.8701  0.5291
 6795TIP3   OH241799   1.724   4.494  11.030 -0.0431 -0.7341 -0.0254
 6795TIP3    H141800   1.767   4.541  10.959 -0.8784  0.9542  0.5362
 6795TIP3    H241801   1.662   4.436  10.986  0.2741 -0.5696 -0.7035
 6796TIP3   OH241802   3.039   6.636   0.095 -0.4796  0.9510 -0.4745
 6796TIP3    H141803   3.125   6.604   0.120  0.1044  1.1508 -2.1402
 6796TIP3    H241804   2.983   6.614   0.169  0.9250  0.5308  0.4979
 6797TIP3   OH241805   4.464   5.504   3.441  0.1842  0.0066 -0.4220
 6797TIP3    H141806   4.404   5.578   3.435 -0.3434 -0.4778 -1.1414
 6797TIP3    H241807   4.444   5.463   3.525  0.4540  0.6528 -0.0370
 6798TIP3   OH241808   4.562   2.019   6.469  0.4496 -0.1964 -0.0693
 6798TIP3    H141809   4.531   2.030   6.558  0.6671  0.5165 -0.0732
 6798TIP3    H241810   4.496   2.062   6.415  1.0449  0.6819 -0.1304
 6799TIP3   OH241811   2.482   2.133   3.194 -0.1349  0.4445  0.0130
 6799TIP3    H141812   2.455   2.142   3.103 -0.9159  0.2893  0.2173
 6799TIP3    H241813   2.577   2.129   3.191 -0.1495  0.5506 -0.7854
 6800TIP3   OH241814   4.950   2.093  16.505  0.4761 -0.0861 -0.3497
 6800TIP3    H141815   4.891   2.160  16.471  1.7871  1.2704 -0.0947
 6800TIP3    H241816   4.995   2.137  16.577  2.4871 -0.7132 -1.1626
 6801TIP3   OH241817   2.360   0.202  13.847 -0.5548  0.1390  0.4243
 6801TIP3    H141818   2.445   0.246  13.844  0.8924 -2.0402  3.7470
 6801TIP3    H241819   2.380   0.111  13.824 -1.9273 -0.4749  1.5264
 6802TIP3   OH241820   3.906   6.527  10.671 -0.0825  0.0972  0.3746
 6802TIP3    H141821   3.996   6.498  10.653  0.1834  0.6031  0.8884
 6802TIP3    H241822   3.901   6.534  10.766 -1.6345 -3.0569  0.6625
 6803TIP3   OH241823   0.607   5.548  12.305  0.0513 -0.2511 -0.2867
 6803TIP3    H141824   0.565   5.594  12.232 -2.0971  0.8512  1.4924
 6803TIP3    H241825   0.701   5.550  12.285 -0.1338  3.0782 -1.3772
 6804TIP3   OH241826   3.028   0.843  13.879  0.0952  0.2482 -0.5276
 6804TIP3    H141827   3.089   0.896  13.930 -0.5409 -0.2480  0.8053
 6804TIP3    H241828   2.941   0.870  13.911 -0.2984 -0.3318 -1.0895
 6805TIP3   OH241829   6.615   0.865  12.334 -0.5831 -0.0584  0.3648
 6805TIP3    H141830   6.680   0.807  12.373  0.6715  0.7386 -0.4630
 6805TIP3    H241831   6.639   0.953  12.364 -0.1897  0.4541 -1.3289
 6806TIP3   OH241832   5.679   2.977   0.948  0.0430 -0.1791  0.6710
 6806TIP3    H141833   5.589   3.005   0.960 -0.4907 -1.4008 -0.2877
 6806TIP3    H241834   5.723   3.053   0.910 -0.4948  0.5182  1.4078
 6807TIP3   OH241835   4.357   5.193   4.289  0.2663 -0.1957 -0.0330
 6807TIP3    H141836   4.286   5.255   4.309 -0.1404 -0.4750 -0.5890
 6807TIP3    H241837   4.437   5.241   4.310 -0.0868  0.0915  0.7056
 6808TIP3   OH241838   3.735   4.419  13.326  0.2138 -0.5351 -0.3051
 6808TIP3    H141839   3.772   4.461  13.403  2.1472 -0.1758 -1.3640
 6808TIP3    H241840   3.737   4.326  13.346  1.8840 -0.5402 -0.3530
 6809TIP3   OH241841   2.539   3.363   5.820 -0.3018 -0.2479  0.0335
 6809TIP3    H141842   2.586   3.432   5.868  0.5448 -1.0406  0.3793
 6809TIP3    H241843   2.523   3.295   5.886 -1.6596 -0.1537 -0.1600
 6810TIP3   OH241844   5.735   6.721   0.306  0.1997 -0.2676  0.6394
 6810TIP3    H141845   5.818   6.674   0.300  0.8614  0.9136  0.1021
 6810TIP3    H241846   5.761   6.812   0.320 -0.9229  0.4963 -1.7574
 6811TIP3   OH241847   6.168   1.698   1.313  0.6654 -0.0163 -0.1697
 6811TIP3    H141848   6.204   1.652   1.237  0.7152  0.3594 -0.3776
 6811TIP3    H241849   6.077   1.714   1.289  0.5338 -0.3770  0.0792
 6812TIP3   OH241850   2.806   2.940  14.224  0.1004 -0.3869 -0.0717
 6812TIP3    H141851   2.712   2.940  14.208  0.1791  0.2937 -0.5962
 6812TIP3    H241852   2.827   2.849  14.244 -0.6523 -0.5606 -0.0454
 6813TIP3   OH241853   1.856   5.766  11.827 -0.2991  0.1876  0.2402
 6813TIP3    H141854   1.894   5.853  11.843 -0.6978  0.6187 -1.0604
 6813TIP3    H241855   1.908   5.730  11.756 -0.8561 -0.1812  0.0175
 6814TIP3   OH241856   5.530   2.865   2.703  0.2586 -0.4099  0.0203
 6814TIP3    H141857   5.477   2.789   2.727 -0.6217  0.3457  0.5416
 6814TIP3    H241858   5.479   2.910   2.635  0.1072  0.4397  0.6762
 6815TIP3   OH241859   0.395   5.591   5.228  0.2101 -0.8455 -0.1481
 6815TIP3    H141860   0.365   5.504   5.202  2.9046 -2.4108  1.5232
 6815TIP3    H241861   0.454   5.575   5.301 -0.3589  2.5701  1.2316
 6816TIP3   OH241862   4.019   6.225  15.954  0.2159 -0.7516  0.2444
 6816TIP3    H141863   3.929   6.242  15.980  0.7824  1.2613  1.0711
 6816TIP3    H241864   4.012   6.195  15.863 -1.2624 -0.5029  0.2465
 6817TIP3   OH241865   4.432   1.099   0.483 -0.3844  0.1816 -0.2444
 6817TIP3    H141866   4.407   1.014   0.518  0.1917  0.0090 -0.2389
 6817TIP3    H241867   4.527   1.104   0.496 -0.4881  1.0639  0.2717
 6818TIP3   OH241868   6.635   5.181   5.714 -0.3484 -0.3611  0.2777
 6818TIP3    H141869   6.624   5.088   5.733 -0.7932 -0.0520  1.6697
 6818TIP3    H241870   6.669   5.218   5.795  0.7972  0.5417 -0.5748
 6819TIP3   OH241871   0.731   6.058  15.968 -0.1647 -0.7054 -0.0946
 6819TIP3    H141872   0.703   6.135  15.920  1.3251 -1.6062 -2.5714
 6819TIP3    H241873   0.689   5.985  15.923  0.0937 -1.5113  0.9287
 6820TIP3   OH241874   1.317   6.676   4.537 -0.3594 -0.2113 -0.8247
 6820TIP3    H141875   1.395   6.702   4.489  0.8247 -0.3501  0.9209
 6820TIP3    H241876   1.276   6.608   4.483  0.7985 -0.2297 -1.7127
 6821TIP3   OH241877   6.726   1.218   1.603  0.2218  0.0089 -0.0641
 6821TIP3    H141878   6.668   1.182   1.535 -0.9620 -1.6585  1.7252
 6821TIP3    H241879   6.776   1.143   1.634  0.4369  0.6592  1.2039
 6822TIP3   OH241880   3.619   4.590   5.721 -0.2459  0.0824 -0.2671
 6822TIP3    H141881   3.584   4.501   5.731 -0.2349  0.1415  0.3465
 6822TIP3    H241882   3.543   4.643   5.700 -0.0693 -0.2655 -1.8750
 6823TIP3   OH241883   4.262   0.020  16.485  0.4600 -0.4892  0.0281
 6823TIP3    H141884   4.338  -0.037  16.496  0.9618 -0.1202 -1.3168
 6823TIP3    H241885   4.266   0.080  16.560  2.6309  0.7621 -0.9960
 6824TIP3   OH241886   5.593   0.106   5.352  0.0027 -0.1279  0.2097
 6824TIP3    H141887   5.635   0.141   5.273 -0.7902  0.9254  0.2402
 6824TIP3    H241888   5.508   0.074   5.321 -0.4359  0.5698  0.6859
 6825TIP3   OH241889   2.597   3.804   4.974 -0.0703  0.1691  0.1387
 6825TIP3    H141890   2.513   3.773   5.008  0.4556 -0.4209  0.9332
 6825TIP3    H241891   2.653   3.727   4.975  0.4614  0.5388 -0.4741
 6826TIP3   OH241892   3.121   0.587  13.941 -0.1694 -0.5535  0.0953
 6826TIP3    H141893   3.081   0.669  13.911 -1.0906 -0.0171  2.4751
 6826TIP3    H241894   3.211   0.591  13.909 -0.7000  0.4934 -1.3978
 6827TIP3   OH241895   5.893   1.932  16.234  0.3130 -0.1279 -0.5762
 6827TIP3    H141896   5.902   1.866  16.303 -1.6980 -0.9693 -1.0441
 6827TIP3    H241897   5.847   2.005  16.276 -1.8810 -1.0716 -1.2002
 6828TIP3   OH241898   1.208   1.001  14.969  0.6501 -0.2098 -0.3860
 6828TIP3    H141899   1.167   1.055  15.036 -0.6891 -0.3562 -1.0618
 6828TIP3    H241900   1.228   1.062  14.898 -0.7039 -0.5274 -1.0773
 6829TIP3   OH241901   4.662   2.560   0.975  0.0845 -0.4399  0.1848
 6829TIP3    H141902   4.591   2.625   0.977 -0.6426 -1.2309  1.2750
 6829TIP3    H241903   4.617   2.476   0.966  0.8994 -0.9330  0.6135
 6830TIP3   OH241904   2.154   5.795   5.802  0.1843 -0.0115 -0.1220
 6830TIP3    H141905   2.130   5.797   5.710 -0.1616  0.5186 -0.0286
 6830TIP3    H241906   2.099   5.727   5.840 -0.0252  0.1070 -0.2124
 6831TIP3   OH241907   5.313   2.350  13.622 -0.0758 -0.3128  0.1296
 6831TIP3    H141908   5.257   2.385  13.692 -0.0887 -0.3155  0.1204
 6831TIP3    H241909   5.275   2.265  13.602 -1.3805  0.5652 -1.3710
 6832TIP3   OH241910   5.367   1.811  14.806 -0.2035 -0.4980  0.4049
 6832TIP3    H141911   5.300   1.770  14.861  0.4937 -0.3257  1.4134
 6832TIP3    H241912   5.317   1.864  14.744 -1.0033 -0.0210  1.4172
 6833TIP3   OH241913   0.431   3.603  11.334  0.9428  0.4753 -0.0667
 6833TIP3    H141914   0.356   3.614  11.275  0.9076  0.7801  0.0294
 6833TIP3    H241915   0.461   3.693  11.350  0.9522  0.3952  0.3761
 6834TIP3   OH241916   6.431   4.421  15.854 -0.0985  0.3849  0.1074
 6834TIP3    H141917   6.384   4.355  15.906  0.5608 -0.6612 -0.6007
 6834TIP3    H241918   6.485   4.467  15.918  0.6781 -0.8674  0.3873
 6835TIP3   OH241919   4.591   6.785  12.926 -0.3074 -0.0710 -0.3158
 6835TIP3    H141920   4.547   6.701  12.917 -0.3950 -0.2384  1.3424
 6835TIP3    H241921   4.654   6.772  12.997 -0.6961  1.3865  0.3538
 6836TIP3   OH241922   1.467   5.504  11.242  0.1787 -0.2568 -0.4308
 6836TIP3    H141923   1.468   5.436  11.174  1.0454 -1.4500  0.7217
 6836TIP3    H241924   1.541   5.561  11.221  0.5264 -0.6997 -0.4241
 6837TIP3   OH241925   3.724   3.799   3.257  0.3785 -0.0429 -0.5594
 6837TIP3    H141926   3.794   3.771   3.316  0.1365 -1.0751 -0.7482
 6837TIP3    H241927   3.744   3.891   3.238  0.8327  0.1132  0.5891
 6838TIP3   OH241928   2.478   2.447   4.952 -0.4136  0.0243 -0.3130
 6838TIP3    H141929   2.556   2.493   4.920 -0.1678 -0.4750 -0.4365
 6838TIP3    H241930   2.509   2.360   4.977 -0.4666  0.5936  1.9116
 6839TIP3   OH241931   2.777   3.206   0.700 -0.5976 -0.0088  0.2207
 6839TIP3    H141932   2.836   3.280   0.715 -1.1928  1.0827 -2.3715
 6839TIP3    H241933   2.694   3.234   0.738 -0.0464 -0.7009  2.0340
 6840TIP3   OH241934   1.791   3.725  16.675 -0.2221  0.7647  0.4226
 6840TIP3    H141935   1.770   3.708  16.583 -2.9469 -1.5626  1.3292
 6840TIP3    H241936   1.852   3.656  16.699  0.4551  1.3456  0.4073
 6841TIP3   OH241937   5.863   3.367   2.173  0.3434 -0.2379 -0.0016
 6841TIP3    H141938   5.950   3.405   2.168 -0.2991  1.2028 -1.6627
 6841TIP3    H241939   5.845   3.338   2.084 -0.7517 -0.7678  0.3740
 6842TIP3   OH241940   2.735   5.554  14.028  0.5071  0.0879 -0.2581
 6842TIP3    H141941   2.673   5.585  14.093 -0.0053  0.3595 -0.8634
 6842TIP3    H241942   2.686   5.490  13.976  0.9019 -0.1140 -0.3870
 6843TIP3   OH241943   5.092   2.164   0.782 -0.3682 -0.2212 -0.6535
 6843TIP3    H141944   5.054   2.087   0.825  1.4806 -0.6567  0.3140
 6843TIP3    H241945   5.162   2.192   0.841 -0.6029  1.8609 -1.2849
 6844TIP3   OH241946   0.814   4.605   0.111 -0.2056  0.1715 -0.1671
 6844TIP3    H141947   0.809   4.539   0.041  0.2706 -1.0967  0.9466
 6844TIP3    H241948   0.727   4.602   0.152 -0.5368  1.0278 -0.7805
 6845TIP3   OH241949   6.528   6.120   4.852  0.1273 -0.0158  0.0154
 6845TIP3    H141950   6.447   6.156   4.814 -0.0682  0.0827  0.5157
 6845TIP3    H241951   6.583   6.197   4.867 -0.1101  0.0321  0.6620
 6846TIP3   OH241952   0.589   6.363   0.218  0.0949 -0.1228 -0.2820
 6846TIP3    H141953   0.607   6.389   0.128 -0.5003  0.0582 -0.3554
 6846TIP3    H241954   0.641   6.423   0.271  0.7036 -0.4406 -0.5063
 6847TIP3   OH241955   2.632   1.020   0.240  0.3833 -0.2044 -0.2391
 6847TIP3    H141956   2.584   1.039   0.160 -2.3913 -1.9991  0.8631
 6847TIP3    H241957   2.629   1.102   0.290 -1.3119 -0.1550 -0.3625
 6848TIP3   OH241958   4.643   3.096  17.005  0.1678  0.6191  0.2066
 6848TIP3    H141959   4.581   3.098  17.078 -0.0517  0.5216  0.0250
 6848TIP3    H241960   4.646   3.186  16.974 -0.3228  0.5218 -0.1472
 6849TIP3   OH241961   3.192   4.776  15.384  0.4627 -0.4653  0.4949
 6849TIP3    H141962   3.148   4.861  15.379 -0.0786 -0.7454  0.4014
 6849TIP3    H241963   3.285   4.797  15.380  0.3331  0.1221  0.4375
 6850TIP3   OH241964   0.466   6.708   2.881 -0.1431  0.0554 -0.7836
 6850TIP3    H141965   0.445   6.752   2.963 -0.2624 -0.1294 -0.7147
 6850TIP3    H241966   0.515   6.773   2.830  0.6138 -0.0885 -0.2531
 6851TIP3   OH241967   2.530   0.240   0.423  0.3336  0.0609 -0.1994
 6851TIP3    H141968   2.491   0.212   0.506  1.3319 -2.3695 -0.4863
 6851TIP3    H241969   2.558   0.330   0.440 -0.8581  0.1663  1.5866
 6852TIP3   OH241970   6.026   0.434   1.012 -0.2929 -0.1155 -0.2069
 6852TIP3    H141971   6.111   0.458   1.048 -0.8679 -0.7523  1.7200
 6852TIP3    H241972   5.966   0.499   1.047 -0.8669 -0.7103 -0.0581
 6853TIP3   OH241973   4.281   2.748   4.120 -0.8110  0.4812  0.2314
 6853TIP3    H141974   4.332   2.803   4.179  0.7066  0.3883 -0.9488
 6853TIP3    H241975   4.257   2.672   4.174  2.2357 -0.5770  0.2902
 6854TIP3   OH241976   6.295   3.762   1.444  0.2373 -0.2430  0.3479
 6854TIP3    H141977   6.374   3.721   1.478  0.5057  0.0401  0.0759
 6854TIP3    H241978   6.322   3.852   1.423  0.7424 -1.0193 -2.8451
 6855TIP3   OH241979   3.735   0.077   5.364 -0.3902  0.0055  0.8494
 6855TIP3    H141980   3.817   0.126   5.367 -1.1972  1.3788  0.9632
 6855TIP3    H241981   3.745   0.010   5.432  0.1647  0.9109  1.6876
 6856TIP3   OH241982   4.931   3.453   3.488  0.5068 -0.0245  0.0114
 6856TIP3    H141983   5.016   3.412   3.504  1.2974  1.7602  0.6970
 6856TIP3    H241984   4.950   3.547   3.482 -1.1962  0.2905 -1.5367
 6857TIP3   OH241985   4.483   0.347  11.725 -0.6804 -0.3248 -0.0944
 6857TIP3    H141986   4.506   0.324  11.635 -0.9666  0.8313 -0.4859
 6857TIP3    H241987   4.439   0.269  11.760 -2.6150 -0.0264 -1.7101
 6858TIP3   OH241988   5.095   4.834   3.215  0.2331  0.5828 -0.1279
 6858TIP3    H141989   5.173   4.870   3.173  2.4479 -0.1554  2.9969
 6858TIP3    H241990   5.115   4.741   3.228 -0.7360  0.5619  1.5363
 6859TIP3   OH241991   0.525   5.613   3.106  0.0245 -0.0167 -0.2311
 6859TIP3    H141992   0.604   5.569   3.076 -0.2452 -0.1150 -0.7968
 6859TIP3    H241993   0.528   5.605   3.202  0.7870  0.1377 -0.2341
 6860TIP3   OH241994   1.221   3.370   0.059 -0.6262 -0.1726  0.2310
 6860TIP3    H141995   1.138   3.406   0.027  0.3631  1.0561 -1.0903
 6860TIP3    H241996   1.246   3.428   0.131 -0.9370 -0.5919  0.6832
 6861TIP3   OH241997   1.214   5.165   5.522 -0.1524  0.5912  0.3534
 6861TIP3    H141998   1.119   5.164   5.537 -0.2460  0.0023 -0.2401
 6861TIP3    H241999   1.223   5.173   5.427  0.4105  2.1685  0.5195
 6862TIP3   OH242000   5.005   5.564  11.155  0.3544  0.1886 -0.1663
 6862TIP3    H142001   5.073   5.566  11.223 -0.0427 -0.5754  0.2651
 6862TIP3    H242002   4.930   5.524  11.198 -0.2194  0.5867 -0.7881
 6863TIP3   OH242003   4.115   4.481   3.825 -0.2270 -0.3546  0.2062
 6863TIP3    H142004   4.055   4.415   3.859 -0.7606  0.2016  0.3644
 6863TIP3    H242005   4.065   4.527   3.758 -0.1627  0.4514  0.6951
 6864TIP3   OH242006   2.704   1.994   0.073 -0.3106 -0.7200 -0.2833
 6864TIP3    H142007   2.780   1.952   0.113 -0.4993 -0.2656  0.5969
 6864TIP3    H242008   2.675   1.934   0.005  1.6888 -0.2429 -1.6217
 6865TIP3   OH242009   5.703   2.729  13.770  0.5796  0.0274  0.0315
 6865TIP3    H142010   5.615   2.743  13.736  0.6645  0.2846 -0.0895
 6865TIP3    H242011   5.742   2.664  13.712  0.8875  0.8130 -0.6602
 6866TIP3   OH242012   5.074   1.375   1.692  0.1764  0.1580 -0.2038
 6866TIP3    H142013   5.021   1.348   1.767  1.1637  1.2345  0.9250
 6866TIP3    H242014   5.154   1.323   1.699  1.3596  2.0495  1.0021
 6867TIP3   OH242015   2.354   0.513  16.289 -0.4916  0.5368 -0.2300
 6867TIP3    H142016   2.337   0.551  16.375 -0.1325 -0.4143  0.2746
 6867TIP3    H242017   2.269   0.516  16.244 -1.3250 -1.2857  1.1045
 6868TIP3   OH242018   4.451   4.329  10.929 -0.0140 -0.1317 -0.0928
 6868TIP3    H142019   4.497   4.412  10.936  3.8234 -2.1625  1.9929
 6868TIP3    H242020   4.439   4.315  10.835  0.1943  2.2063 -0.5297
 6869TIP3   OH242021   4.486   3.591   4.891  0.4968  0.1141 -0.3910
 6869TIP3    H142022   4.457   3.609   4.981  1.6289 -0.1764  0.0515
 6869TIP3    H242023   4.415   3.625   4.836 -0.1410  0.4529  0.6028
 6870TIP3   OH242024   0.760   1.861  14.331  0.4759 -0.2998  0.1175
 6870TIP3    H142025   0.792   1.799  14.265 -1.2471 -0.8779 -0.2385
 6870TIP3    H242026   0.736   1.939  14.282 -1.3540 -0.9383 -0.0869
 6871TIP3   OH242027   3.449   3.132  13.059  0.1481  0.4250 -0.7982
 6871TIP3    H142028   3.453   3.212  13.111  0.5211 -0.1898  0.1275
 6871TIP3    H242029   3.504   3.150  12.982  0.3078  1.0144 -0.5475
 6872TIP3   OH242030   5.632   4.895   2.072 -0.2616  0.0268  0.3019
 6872TIP3    H142031   5.624   4.873   1.980  0.6528  0.9492 -0.0109
 6872TIP3    H242032   5.560   4.956   2.089 -1.0314 -0.8979  0.4624
 6873TIP3   OH242033   4.353   3.201  15.679 -0.7923 -0.1578 -0.5915
 6873TIP3    H142034   4.415   3.128  15.691 -1.6236 -0.7560  0.1803
 6873TIP3    H242035   4.271   3.168  15.715 -1.4144  0.8432 -1.0783
 6874TIP3   OH242036   0.092   3.868  12.894  0.2178  0.1799  0.1373
 6874TIP3    H142037   0.136   3.798  12.846 -2.1522 -0.2045 -1.6181
 6874TIP3    H242038   0.101   3.945  12.839 -1.3220  0.0648 -0.3329
 6875TIP3   OH242039   6.795   4.327   1.866  0.2649  0.0970  0.2418
 6875TIP3    H142040   6.885   4.358   1.874  0.2256 -0.0344  1.2649
 6875TIP3    H242041   6.743   4.406   1.851  0.7616  0.0024 -2.5843
 6876TIP3   OH242042   3.398   6.815   1.334 -0.3488  0.1159 -0.2127
 6876TIP3    H142043   3.380   6.831   1.427 -1.4713 -3.2789  0.3074
 6876TIP3    H242044   3.343   6.878   1.288  0.7960  2.4037  1.3348
 6877TIP3   OH242045   3.557   5.681   6.300 -0.5598  0.1038 -0.4364
 6877TIP3    H142046   3.494   5.752   6.312  0.1842  0.6717  0.1460
 6877TIP3    H242047   3.635   5.709   6.347 -0.7555 -1.7675  1.1296
 6878TIP3   OH242048   3.794   6.213  12.582 -0.3343 -0.3699  0.4548
 6878TIP3    H142049   3.825   6.151  12.648 -0.5593  0.0417  0.9519
 6878TIP3    H242050   3.710   6.177  12.553  0.4005 -1.2978 -0.6371
 6879TIP3   OH242051   4.661   1.394   1.077 -0.1542  0.1014  0.9376
 6879TIP3    H142052   4.607   1.455   1.128 -0.4935  1.1625 -0.6315
 6879TIP3    H242053   4.615   1.310   1.084 -0.4611  0.3365  1.9320
 6880TIP3   OH242054   3.599   6.188   5.468 -0.8604 -0.2439  0.0209
 6880TIP3    H142055   3.638   6.243   5.400 -1.7390  0.1973 -0.1452
 6880TIP3    H242056   3.653   6.109   5.470 -0.1629  0.2152 -0.4110
 6881TIP3   OH242057   3.037   3.397   3.527 -0.0535 -0.6426  0.2098
 6881TIP3    H142058   2.954   3.366   3.492 -0.3398  0.7366 -0.4229
 6881TIP3    H242059   3.026   3.492   3.532  2.1903 -0.1662 -1.8823
 6882TIP3   OH242060   6.600   4.591   0.762 -0.0691  0.2546  0.2941
 6882TIP3    H142061   6.607   4.521   0.697  0.9351  2.1664 -1.7607
 6882TIP3    H242062   6.506   4.609   0.768 -0.2666 -0.7083  0.2682
 6883TIP3   OH242063   4.989   0.460   4.497 -0.3135 -0.0676 -0.5286
 6883TIP3    H142064   4.896   0.477   4.483 -0.1522 -0.1374 -1.7685
 6883TIP3    H242065   5.004   0.374   4.456  0.6941  0.8281 -2.1358
 6884TIP3   OH242066   4.429   0.531  11.235  0.1005  0.1781  0.4207
 6884TIP3    H142067   4.358   0.583  11.271 -1.0827 -0.4734 -0.8856
 6884TIP3    H242068   4.445   0.463  11.300 -1.4343 -0.4951  0.1374
 6885TIP3   OH242069   1.596   4.052  16.555 -0.4035  0.0196  0.1024
 6885TIP3    H142070   1.647   4.020  16.630  0.5271  1.3007  0.0413
 6885TIP3    H242071   1.524   3.989  16.547  0.4188 -1.0813  1.0235
 6886TIP3   OH242072   0.612   0.735   0.417 -0.2172 -0.2941  0.0589
 6886TIP3    H142073   0.554   0.807   0.442 -0.9768 -0.8468 -0.0502
 6886TIP3    H242074   0.622   0.745   0.322  2.0938  1.3880  0.4012
 6887TIP3   OH242075   6.063   5.290   4.418 -0.8212  0.4386 -0.6201
 6887TIP3    H142076   6.090   5.372   4.460  0.4467  0.2689 -1.0633
 6887TIP3    H242077   5.973   5.277   4.447 -0.6183  1.3227  0.4858
 6888TIP3   OH242078   1.001   0.162   4.906  0.1797  0.2973 -0.3063
 6888TIP3    H142079   1.064   0.201   4.845  1.3898 -1.6277 -0.3715
 6888TIP3    H242080   1.038   0.076   4.926 -1.7055 -0.2873  0.8444
 6889TIP3   OH242081   5.999   4.571  16.398  0.0294 -0.0375 -0.0543
 6889TIP3    H142082   5.945   4.648  16.416  0.5291 -0.1455  2.2189
 6889TIP3    H242083   6.077   4.606  16.355  1.0953  1.0595  2.6005
 6890TIP3   OH242084   0.483   4.357  11.934  0.0938 -0.4690  0.0424
 6890TIP3    H142085   0.575   4.365  11.960  0.0718 -0.3307  0.0826
 6890TIP3    H242086   0.457   4.447  11.911 -0.5245 -0.1654  1.7296
 6891TIP3   OH242087   6.628   4.332   4.596 -0.2889 -0.1649  0.6016
 6891TIP3    H142088   6.640   4.405   4.535  0.2952 -0.7901 -0.0610
 6891TIP3    H242089   6.675   4.259   4.555 -2.0621 -1.3280  0.5058
 6892TIP3   OH242090   4.546   1.231  12.889 -0.3425  0.1734 -0.0485
 6892TIP3    H142091   4.494   1.297  12.936 -1.1507 -1.1733  1.0526
 6892TIP3    H242092   4.588   1.181  12.959 -2.0064 -2.2558 -0.6385
 6893TIP3   OH242093   4.322   4.694  17.040  0.0933 -0.1090  0.1876
 6893TIP3    H142094   4.271   4.640  17.101  2.6116 -0.8004  1.8506
 6893TIP3    H242095   4.258   4.723  16.975 -2.4843 -0.5204  2.3414
 6894TIP3   OH242096   2.656   5.796   5.378  0.2633  0.3128  0.2591
 6894TIP3    H142097   2.742   5.837   5.364  0.5484 -0.5162 -0.5721
 6894TIP3    H242098   2.677   5.713   5.420  0.0366 -0.6047 -1.3413
 6895TIP3   OH242099   4.046   5.446   5.292  0.5833 -0.5706 -0.0271
 6895TIP3    H142100   4.085   5.362   5.269 -0.0672 -0.5371 -1.3754
 6895TIP3    H242101   3.961   5.424   5.331  0.3807 -0.5457 -0.4481
 6896TIP3   OH242102   6.643   2.623   2.133  0.2924 -0.2340  0.1731
 6896TIP3    H142103   6.575   2.580   2.081  1.0583 -0.9682 -0.2411
 6896TIP3    H242104   6.597   2.694   2.178 -0.1564  1.2031 -2.4033
 6897TIP3   OH242105   4.011   5.192   0.778 -0.5351  0.0838 -0.0527
 6897TIP3    H142106   4.048   5.115   0.735  0.2711  0.9382 -0.9446
 6897TIP3    H242107   4.087   5.247   0.797 -1.0956  0.6459  0.6180
 6898TIP3   OH242108   3.561   5.692   3.191  0.1135  0.1311  0.1055
 6898TIP3    H142109   3.567   5.636   3.269 -0.7950  0.2474  0.2618
 6898TIP3    H242110   3.608   5.644   3.123 -2.4367 -1.8713 -0.3620
 6899TIP3   OH242111   2.754   5.298   1.269 -0.1158  0.1282 -0.8288
 6899TIP3    H142112   2.709   5.343   1.197  0.4926 -0.1582 -1.3994
 6899TIP3    H242113   2.697   5.310   1.345  0.4740  2.7588 -0.6809
 6900TIP3   OH242114   3.405   1.535  12.614 -0.1394 -0.1031 -0.4348
 6900TIP3    H142115   3.406   1.483  12.694  0.8073 -0.7152 -0.8305
 6900TIP3    H242116   3.384   1.624  12.643 -0.9727 -0.5363  0.3365
 6901TIP3   OH242117   1.519   6.733   6.080  0.4361  0.6081  0.5799
 6901TIP3    H142118   1.551   6.786   6.152  1.9412 -0.1712  0.5242
 6901TIP3    H242119   1.441   6.690   6.115  2.1264 -1.1749  2.4415
 6902TIP3   OH242120   5.919   6.243  16.958  0.3641  0.5350  0.9010
 6902TIP3    H142121   5.930   6.216  17.049 -0.7777  0.7255  1.1012
 6902TIP3    H242122   5.932   6.163  16.907  0.5333  0.3363  1.2589
 6903TIP3   OH242123   6.744   1.263   1.155 -0.4428  0.0676  0.0704
 6903TIP3    H142124   6.747   1.345   1.204 -4.0658  0.6168 -0.3602
 6903TIP3    H242125   6.754   1.195   1.221 -2.0836  0.8485  1.1984
 6904TIP3   OH242126   0.058   4.647  13.363  0.1059 -0.3281  0.0572
 6904TIP3    H142127   0.144   4.619  13.334  1.0304 -0.3165  2.5278
 6904TIP3    H242128   0.013   4.566  13.386  0.5890 -0.2127  1.5426
 6905TIP3   OH242129   5.466   0.489   4.377  0.7148 -0.2367  0.1788
 6905TIP3    H142130   5.425   0.426   4.319 -3.8967 -0.2162  2.9355
 6905TIP3    H242131   5.439   0.574   4.342  1.0628 -0.0614  0.3303
 6906TIP3   OH242132   2.665   3.586   4.594 -0.3109  0.5368  0.1645
 6906TIP3    H142133   2.652   3.530   4.518  0.0349 -0.4214  0.8052
 6906TIP3    H242134   2.665   3.527   4.669 -1.2017  1.5230  0.9816
 6907TIP3   OH242135   3.610   1.917  11.373  0.6574 -0.2943 -0.4373
 6907TIP3    H142136   3.682   1.854  11.372  0.7730 -0.1775 -2.0622
 6907TIP3    H242137   3.610   1.955  11.285  0.8197  2.2464  0.5707
 6908TIP3   OH242138   5.815   3.210   0.900 -0.2125 -0.1291  0.8193
 6908TIP3    H142139   5.785   3.287   0.949  1.3362 -0.4247  2.3464
 6908TIP3    H242140   5.885   3.243   0.844 -0.4147 -0.1939  0.5316
 6909TIP3   OH242141   4.503   0.246   3.750  0.6266  0.5274  0.2372
 6909TIP3    H142142   4.434   0.293   3.798 -1.7786 -0.3353 -2.1530
 6909TIP3    H242143   4.524   0.171   3.806 -0.8359  0.4784  0.7657
 6910TIP3   OH242144   3.938   4.842   3.262  0.1120  0.3417  0.2366
 6910TIP3    H142145   3.970   4.755   3.238 -1.0806  0.4416 -2.0186
 6910TIP3    H242146   3.847   4.828   3.287  0.3406  0.7642  1.3483
 6911TIP3   OH242147   3.810   2.883   4.215 -0.0680 -0.5578  0.1549
 6911TIP3    H142148   3.811   2.967   4.260  0.2161  0.2415 -1.2698
 6911TIP3    H242149   3.728   2.883   4.164  0.1720 -0.9224 -0.2452
 6912TIP3   OH242150   2.578   6.273  15.921  0.2359  0.0947  0.4800
 6912TIP3    H142151   2.563   6.182  15.946 -1.4759  0.2858  0.2487
 6912TIP3    H242152   2.502   6.321  15.954 -0.0768  1.0371 -1.4737
 6913TIP3   OH242153   1.316   6.676   4.025 -0.0226 -0.4925 -0.0489
 6913TIP3    H142154   1.388   6.684   4.088 -0.4118  1.0210  0.2447
 6913TIP3    H242155   1.262   6.605   4.060 -0.3065  0.4112  1.4361
 6914TIP3   OH242156   6.188   4.619  11.636  0.2675 -0.1393 -0.0295
 6914TIP3    H142157   6.173   4.656  11.549  1.0577  1.1790  0.3613
 6914TIP3    H242158   6.281   4.635  11.653 -0.3983  2.0312  2.0962
 6915TIP3   OH242159   4.896   2.829   6.062  0.0877 -0.2636  0.2784
 6915TIP3    H142160   4.985   2.821   6.028  0.4226 -0.2035  1.1176
 6915TIP3    H242161   4.858   2.902   6.014  0.6292 -0.0302  0.2029
 6916TIP3   OH242162   3.811   5.918  14.626  0.3854  1.1136  0.4530
 6916TIP3    H142163   3.812   5.926  14.722  0.8738  0.9566  0.4619
 6916TIP3    H242164   3.888   5.865  14.606 -1.5824 -1.9598  0.2588
 6917TIP3   OH242165   0.480   5.294   0.389  0.2655  0.5673  0.6191
 6917TIP3    H142166   0.511   5.376   0.349  0.5286  0.0464 -0.2625
 6917TIP3    H242167   0.385   5.297   0.379  0.4310 -0.6335 -2.2823
 6918TIP3   OH242168   3.519   1.322   1.921 -0.3411  0.2880 -0.0242
 6918TIP3    H142169   3.431   1.295   1.895 -1.4066  3.4937 -0.2336
 6918TIP3    H242170   3.563   1.343   1.838 -0.2050  0.8980  0.1992
 6919TIP3   OH242171   1.683   6.808   2.406 -0.0106 -0.3738 -0.0090
 6919TIP3    H142172   1.714   6.872   2.341 -1.4296 -1.7142 -2.1356
 6919TIP3    H242173   1.763   6.772   2.444  0.8405  1.2526 -0.1734
 6920TIP3   OH242174   6.604   0.886  11.122  0.2807 -0.3030 -0.4513
 6920TIP3    H142175   6.698   0.897  11.110  0.7365 -1.2176  1.7362
 6920TIP3    H242176   6.565   0.918  11.041  2.4831 -0.2242 -1.5393
 6921TIP3   OH242177   0.222   1.558  11.929  0.4128 -0.1190  0.2336
 6921TIP3    H142178   0.314   1.570  11.956  0.0969  0.1748  1.2272
 6921TIP3    H242179   0.215   1.464  11.912  1.7434  0.2635 -3.2040
 6922TIP3   OH242180   2.041   2.141   0.881  0.1432 -0.6270  0.2369
 6922TIP3    H142181   2.018   2.077   0.948 -1.5393 -1.6712 -1.2422
 6922TIP3    H242182   1.978   2.212   0.891  1.4615  0.4538  1.3117
 6923TIP3   OH242183   2.178   3.268  14.625 -0.1516 -0.2426 -0.1560
 6923TIP3    H142184   2.128   3.265  14.706  1.6844  0.6131  1.0564
 6923TIP3    H242185   2.159   3.184  14.582 -2.3512 -0.0648  0.3661
 6924TIP3   OH242186   3.300   4.730  11.855  0.1433  0.2089  0.1338
 6924TIP3    H142187   3.240   4.782  11.801  0.5383 -0.2494 -0.7687
 6924TIP3    H242188   3.287   4.763  11.944 -2.2152 -0.6023  0.1474
 6925TIP3   OH242189   1.955   5.138  11.248 -0.0202  0.0753  0.6446
 6925TIP3    H142190   2.020   5.070  11.260  0.5925  0.7547  1.3001
 6925TIP3    H242191   1.903   5.136  11.329  0.0607  0.4415  0.7078
 6926TIP3   OH242192   1.704   1.347   5.004  0.4502 -0.5788 -0.1268
 6926TIP3    H142193   1.760   1.382   5.074  0.2253 -4.0198  1.9652
 6926TIP3    H242194   1.615   1.361   5.035  0.3568 -3.2131  1.0043
 6927TIP3   OH242195   1.061   5.603  10.697  0.1921 -1.1214 -0.4153
 6927TIP3    H142196   1.100   5.600  10.609 -0.8642 -0.9749 -0.9098
 6927TIP3    H242197   0.985   5.660  10.687  0.4562 -0.5317  0.7745
 6928TIP3   OH242198   5.015   3.751  16.574 -0.3163 -0.2964  0.3933
 6928TIP3    H142199   5.004   3.683  16.640  0.9174  0.1177  1.0690
 6928TIP3    H242200   5.041   3.828  16.624  3.4545 -0.6567 -0.7232
 6929TIP3   OH242201   5.927   2.410   3.390  0.1987  0.1302  0.2088
 6929TIP3    H142202   5.897   2.487   3.341  0.6815 -0.4504 -1.0588
 6929TIP3    H242203   5.869   2.406   3.466 -1.8735 -0.0019 -1.2713
 6930TIP3   OH242204   3.803   6.044   3.785 -0.2526 -0.1999 -0.3342
 6930TIP3    H142205   3.836   6.044   3.696 -1.1163  0.4281 -0.6714
 6930TIP3    H242206   3.849   6.116   3.828 -2.0910  1.5912 -1.1926
 6931TIP3   OH242207   6.739   2.697  15.450 -0.0103 -0.5418  0.2755
 6931TIP3    H142208   6.808   2.749  15.409 -0.0391 -0.5247  0.2489
 6931TIP3    H242209   6.784   2.618  15.481  0.1013 -0.3280  0.6549
 6932TIP3   OH242210   1.488   3.922   0.360  0.0355  0.0789  0.1674
 6932TIP3    H142211   1.539   3.850   0.397  0.5105 -0.2514 -1.0750
 6932TIP3    H242212   1.462   3.891   0.274 -0.1790  1.2055 -0.1916
 6933TIP3   OH242213   3.963   1.836   2.342  0.3525  0.1185  0.0147
 6933TIP3    H142214   4.043   1.856   2.390  0.7043 -1.2601  0.0424
 6933TIP3    H242215   3.906   1.796   2.406  0.4565 -0.8414 -0.4758
 6934TIP3   OH242216   0.123   5.187   2.298 -0.3389  0.0142 -0.6696
 6934TIP3    H142217   0.129   5.101   2.257 -0.4926  0.5173 -1.7567
 6934TIP3    H242218   0.196   5.189   2.360 -0.0800 -0.7313 -0.9444
 6935TIP3   OH242219   2.094   0.447  15.396 -0.2506  0.3685 -0.5174
 6935TIP3    H142220   2.060   0.461  15.484  0.8805 -1.6248  0.2878
 6935TIP3    H242221   2.183   0.481  15.399  1.4065 -3.4742  0.5516
 6936TIP3   OH242222   1.776   5.255   1.535  0.1078 -0.4786  0.3739
 6936TIP3    H142223   1.715   5.314   1.490 -0.3860 -1.0188  0.3228
 6936TIP3    H242224   1.855   5.308   1.548 -0.6191  0.4663  1.1029
 6937TIP3   OH242225   2.145   2.583   3.190  0.1047  0.1967  0.5053
 6937TIP3    H142226   2.216   2.521   3.179  0.9639  0.9136  1.7198
 6937TIP3    H242227   2.188   2.667   3.207 -0.9940  0.5058  2.0187
 6938TIP3   OH242228   0.644   0.348  10.991  0.2566 -0.2127 -0.2503
 6938TIP3    H142229   0.637   0.417  11.057  1.8085 -0.0965 -0.1651
 6938TIP3    H242230   0.560   0.302  10.995  0.2091 -0.0618  1.6493
 6939TIP3   OH242231   4.444   0.017  11.963  0.0312  0.0847  0.1966
 6939TIP3    H142232   4.429  -0.075  11.986 -0.4852  0.3271  0.8354
 6939TIP3    H242233   4.430   0.020  11.868 -0.2425 -0.4350  0.2181
 6940TIP3   OH242234   1.031   5.766   2.014 -0.7585 -0.1599  0.0360
 6940TIP3    H142235   1.056   5.735   2.101  1.2268 -0.6049 -0.6319
 6940TIP3    H242236   1.021   5.686   1.962 -1.7389  0.1093 -0.2012
 6941TIP3   OH242237   0.265   1.796  16.811 -0.0287  0.4568 -0.0775
 6941TIP3    H142238   0.314   1.746  16.878  0.3292  0.2807 -0.4652
 6941TIP3    H242239   0.314   1.782  16.730 -0.6295  0.4269 -0.4419
 6942TIP3   OH242240   5.694   1.624  16.061  0.5925  0.0343  0.4278
 6942TIP3    H142241   5.610   1.578  16.064  0.3568  0.3700 -0.5814
 6942TIP3    H242242   5.673   1.709  16.022  0.9050  1.2701  2.7992
 6943TIP3   OH242243   0.886   4.451  11.762  0.2278 -0.5765  0.3063
 6943TIP3    H142244   0.858   4.543  11.757 -1.3982 -1.0669 -0.5120
 6943TIP3    H242245   0.875   4.428  11.854 -1.5083 -0.5206  0.1579
 6944TIP3   OH242246   2.877   3.921  12.827  0.0779 -0.0687  0.3698
 6944TIP3    H142247   2.801   3.921  12.768  0.1373 -0.5650  0.2936
 6944TIP3    H242248   2.942   3.974  12.781 -0.1049  0.0829  0.2840
 6945TIP3   OH242249   6.565   4.629   1.435 -0.8594 -0.6133  0.2391
 6945TIP3    H142250   6.488   4.685   1.424  0.7727  1.5753 -0.7848
 6945TIP3    H242251   6.575   4.619   1.529 -0.1707  2.4396  0.5677
 6946TIP3   OH242252   1.593   0.067  14.243  0.3728 -0.2740 -0.5674
 6946TIP3    H142253   1.591   0.056  14.148 -1.2296 -0.0858 -0.5835
 6946TIP3    H242254   1.515   0.120  14.263  1.3482  0.7650  0.7292
 6947TIP3   OH242255   4.107   5.744  15.186  0.2355 -0.0165  0.9059
 6947TIP3    H142256   4.150   5.706  15.109  3.2555  4.1619  0.1889
 6947TIP3    H242257   4.141   5.693  15.260  2.4049 -0.1224 -0.1025
 6948TIP3   OH242258   0.092   4.449   0.372  0.1838  0.2950  0.0944
 6948TIP3    H142259   0.094   4.501   0.453 -0.1481 -0.1669  0.4063
 6948TIP3    H242260   0.161   4.384   0.385  1.8144  1.6974 -1.0294
 6949TIP3   OH242261   5.279   6.111  14.960 -0.1955 -0.1176  0.2342
 6949TIP3    H142262   5.308   6.201  14.975 -1.4105  0.2818  0.3343
 6949TIP3    H242263   5.338   6.076  14.894  0.0760  0.8721 -0.0481
 6950TIP3   OH242264   4.861   1.477   2.864 -0.0817  0.8177  0.0545
 6950TIP3    H142265   4.827   1.552   2.815 -2.2165 -1.0813 -1.5881
 6950TIP3    H242266   4.887   1.414   2.796 -0.1857 -0.6903  1.3698
 6951TIP3   OH242267   5.046   3.894   6.102  0.2756 -0.4170  0.4585
 6951TIP3    H142268   4.976   3.954   6.127 -1.2304 -1.5266 -0.8549
 6951TIP3    H242269   5.036   3.820   6.162  0.6536 -0.3734  0.5796
 6952TIP3   OH242270   6.187   6.740   6.638  0.4752 -0.7004 -0.0750
 6952TIP3    H142271   6.233   6.662   6.671  0.1985 -1.1765 -0.7966
 6952TIP3    H242272   6.095   6.723   6.658  0.0757 -1.7288 -2.4065
 6953TIP3   OH242273   5.732   3.505  14.924 -0.0228 -0.4012 -0.0804
 6953TIP3    H142274   5.763   3.490  14.834  1.1019 -0.3070  0.2804
 6953TIP3    H242275   5.699   3.420  14.952  2.0460 -1.1245  0.3240
 6954TIP3   OH242276   4.807   4.833  14.134  0.7526 -0.3492  0.2969
 6954TIP3    H142277   4.754   4.910  14.154 -2.3261 -2.0540 -0.7341
 6954TIP3    H242278   4.769   4.763  14.187  2.1916 -1.6066 -0.2662
 6955TIP3   OH242279   0.845   1.027  10.705  0.1804  0.1741  0.1136
 6955TIP3    H142280   0.880   1.065  10.625 -2.2580 -0.8727 -1.5586
 6955TIP3    H242281   0.863   0.933  10.697 -0.7061 -0.0309  0.4391
 6956TIP3   OH242282   3.493   4.812  12.442 -0.6359  0.3336 -0.4342
 6956TIP3    H142283   3.438   4.871  12.493 -0.7663 -0.1354 -0.0212
 6956TIP3    H242284   3.583   4.838  12.464 -0.6896  0.0497  0.1432
 6957TIP3   OH242285   1.834   6.138   5.448  0.0019  0.2121  0.0718
 6957TIP3    H142286   1.853   6.057   5.401  0.4547  0.5793 -0.3936
 6957TIP3    H242287   1.884   6.205   5.401 -3.0767  1.3949 -1.8073
 6958TIP3   OH242288   1.973   6.668   0.169  0.1258  0.4269  0.2797
 6958TIP3    H142289   2.045   6.687   0.230 -0.3354  0.6725  0.7501
 6958TIP3    H242290   2.006   6.596   0.116  1.2907  1.4673 -0.4737
 6959TIP3   OH242291   5.743   3.941  11.841  0.1006 -0.2747 -0.1074
 6959TIP3    H142292   5.763   3.850  11.817  1.5030 -0.0258  0.0512
 6959TIP3    H242293   5.786   3.994  11.773  1.7687  0.3386  1.3576
 6960TIP3   OH242294   3.434   3.593  11.620 -0.2932  0.6341 -0.0405
 6960TIP3    H142295   3.350   3.594  11.665 -0.3568  1.6471 -0.1719
 6960TIP3    H242296   3.416   3.548  11.537 -0.5498  0.2585  0.2157
 6961TIP3   OH242297   5.831   1.544   1.378  0.0560  0.4891  0.2121
 6961TIP3    H142298   5.794   1.622   1.338  1.0544  0.2646 -1.2123
 6961TIP3    H242299   5.777   1.472   1.347  1.6647  0.1431 -1.9909
 6962TIP3   OH242300   0.739   0.382   0.373  0.2092 -0.1018  0.6316
 6962TIP3    H142301   0.717   0.468   0.338  0.3533  0.0740  0.9743
 6962TIP3    H242302   0.816   0.354   0.323 -0.8057 -0.7561 -0.6365
 6963TIP3   OH242303   1.503   3.134  13.819 -0.4449 -0.3786 -0.2377
 6963TIP3    H142304   1.537   3.153  13.731 -1.6265  1.5606 -0.3297
 6963TIP3    H242305   1.577   3.150  13.877 -0.1435  0.0893 -0.7352
 6964TIP3   OH242306   6.816   2.863   0.362 -0.0248  0.0331  0.1825
 6964TIP3    H142307   6.866   2.926   0.413  0.8220  0.1587 -0.7774
 6964TIP3    H242308   6.746   2.915   0.322  0.6303  0.3695 -0.5521
 6965TIP3   OH242309   2.392   0.889  13.392  0.0617  0.1255 -0.2369
 6965TIP3    H142310   2.435   0.848  13.318 -0.0625 -1.2305  0.4241
 6965TIP3    H242311   2.463   0.926  13.444  0.4498 -1.6616  0.5846
 6966TIP3   OH242312   3.671   0.519  12.166  0.3077  0.4972 -0.1444
 6966TIP3    H142313   3.749   0.471  12.137  0.2016 -0.3952  0.9677
 6966TIP3    H242314   3.598   0.462  12.142  0.2795 -1.0571  3.0837
 6967TIP3   OH242315   5.445   2.111  17.114  0.5751 -0.7454  0.1478
 6967TIP3    H142316   5.427   2.030  17.066  1.4251 -1.6032  1.2347
 6967TIP3    H242317   5.378   2.113  17.182  1.2189 -1.1355  0.8122
 6968TIP3   OH242318   4.136   2.124   4.144  0.1229 -0.5911 -0.7296
 6968TIP3    H142319   4.068   2.171   4.192  0.5364 -0.1197 -0.5939
 6968TIP3    H242320   4.217   2.170   4.167  0.6112 -1.6769 -0.1946
 6969TIP3   OH242321   3.204   3.528  12.158  0.1477 -0.2778  0.2266
 6969TIP3    H142322   3.161   3.446  12.183  1.9092 -1.7418 -1.2288
 6969TIP3    H242323   3.268   3.543  12.228  1.7351 -1.7356 -0.8262
 6970TIP3   OH242324   2.791   6.438   4.731 -0.7809  0.3826 -0.5039
 6970TIP3    H142325   2.818   6.398   4.649 -1.9906  0.0597 -0.7642
 6970TIP3    H242326   2.765   6.364   4.786 -0.4606  0.6334 -0.0091
 6971TIP3   OH242327   4.524   0.631   5.923 -0.3657 -0.4912 -0.0801
 6971TIP3    H142328   4.478   0.715   5.917  1.6150  0.7036  0.2788
 6971TIP3    H242329   4.564   0.620   5.836  0.3629 -0.4197  0.2340
 6972TIP3   OH242330   1.051   5.041   1.999 -0.3332 -0.5017  0.2621
 6972TIP3    H142331   1.118   5.097   1.961 -1.5563 -0.6841 -2.3979
 6972TIP3    H242332   0.968   5.084   1.976 -1.2550 -0.1607  3.6091
 6973TIP3   OH242333   1.636   4.201   1.397 -0.0780 -0.0406  0.1678
 6973TIP3    H142334   1.720   4.182   1.440 -0.2196  2.2649  1.6403
 6973TIP3    H242335   1.618   4.123   1.344  1.1752 -2.1598  2.6527
 6974TIP3   OH242336   5.598   6.690  14.724 -0.0055  0.0950  0.3362
 6974TIP3    H142337   5.610   6.646  14.640 -0.2555  2.0373 -0.7713
 6974TIP3    H242338   5.505   6.715  14.724 -1.5569 -4.3335  3.5319
 6975TIP3   OH242339   2.994   5.930   3.819  0.3220 -0.2109  1.1271
 6975TIP3    H142340   3.068   5.991   3.825  0.1566  0.6729 -2.9175
 6975TIP3    H242341   2.917   5.987   3.811  0.1460 -0.7019 -2.5783
 6976TIP3   OH242342   6.704   4.813   0.949  0.2072 -0.1418  0.1443
 6976TIP3    H142343   6.700   4.790   1.041  0.9780 -0.4325  0.1201
 6976TIP3    H242344   6.682   4.732   0.903  0.4384 -0.1690  0.0763
 6977TIP3   OH242345   0.872   1.645   3.688  0.3480  0.2270  0.0078
 6977TIP3    H142346   0.802   1.653   3.752 -1.1598  1.3121 -1.6805
 6977TIP3    H242347   0.944   1.698   3.723 -0.0076 -0.1214  1.2992
 6978TIP3   OH242348   6.380   4.285   5.177  0.1214 -0.0347 -0.6996
 6978TIP3    H142349   6.290   4.297   5.207 -0.2903 -0.8305 -1.5676
 6978TIP3    H242350   6.373   4.223   5.105  1.3561  0.0065 -0.8735
 6979TIP3   OH242351   0.540   1.760   3.258  0.5585  0.7463 -0.3894
 6979TIP3    H142352   0.484   1.837   3.243  0.4206  0.5126 -1.1122
 6979TIP3    H242353   0.479   1.686   3.256  0.9833  0.4122 -1.9801
 6980TIP3   OH242354   6.064   6.270   1.649 -0.2056  1.0523 -0.1589
 6980TIP3    H142355   6.013   6.351   1.655  2.4774  2.8653  0.0295
 6980TIP3    H242356   6.067   6.237   1.739 -3.9150 -1.1654 -0.6518
 6981TIP3   OH242357   1.537   2.491  12.270 -0.0792  0.2581  0.6210
 6981TIP3    H142358   1.595   2.472  12.197  1.0040 -0.1921  1.5633
 6981TIP3    H242359   1.457   2.525  12.230 -0.4223 -2.1447 -0.8912
 6982TIP3   OH242360   0.639   1.255  11.538 -0.2021 -0.3453  0.3066
 6982TIP3    H142361   0.596   1.340  11.535  0.4383  0.0444  1.4094
 6982TIP3    H242362   0.578   1.199  11.588 -0.1584 -0.2380  0.4819
 6983TIP3   OH242363   6.576   3.254  11.553  0.3528  0.1148 -0.6784
 6983TIP3    H142364   6.506   3.189  11.564 -0.5864  1.1430 -0.3800
 6983TIP3    H242365   6.590   3.260  11.459 -1.7450  1.6856 -0.9544
 6984TIP3   OH242366   4.047   1.247   5.394  0.2642 -0.1549 -0.0633
 6984TIP3    H142367   3.978   1.180   5.397  0.4220 -0.3086  0.3165
 6984TIP3    H242368   4.126   1.198   5.371  0.0800  0.1714 -1.4375
 6985TIP3   OH242369   2.199   6.307  11.404 -0.3597  0.3684  0.0714
 6985TIP3    H142370   2.271   6.288  11.344 -0.9107  0.5763 -0.6664
 6985TIP3    H242371   2.137   6.235  11.390  0.2383 -0.4927  1.5950
 6986TIP3   OH242372   6.657   4.046   3.614  0.8834 -0.6055  0.1093
 6986TIP3    H142373   6.636   4.039   3.521 -0.8881 -1.4114  0.5330
 6986TIP3    H242374   6.679   4.139   3.626  0.7135 -0.4028 -1.0169
 6987TIP3   OH242375   1.751   5.904   3.474 -0.3492  0.1180 -0.7242
 6987TIP3    H142376   1.760   5.987   3.522 -0.5324  0.5075 -1.3421
 6987TIP3    H242377   1.816   5.846   3.514  0.5603  0.9080 -0.9988
 6988TIP3   OH242378   0.586   3.552  13.437 -0.2039 -0.5187  0.1139
 6988TIP3    H142379   0.678   3.537  13.414 -0.3154  0.0249 -0.7462
 6988TIP3    H242380   0.581   3.646  13.452 -1.1558 -0.0460 -2.5878
 6989TIP3   OH242381   5.151   4.219   0.087 -0.1259 -0.0200 -1.1699
 6989TIP3    H142382   5.216   4.283   0.058 -1.2968  1.8707  0.1472
 6989TIP3    H242383   5.114   4.257   0.167 -2.4481 -1.2808 -1.5631
 6990TIP3   OH242384   5.805   5.142  13.780 -0.1053 -0.2363 -0.0709
 6990TIP3    H142385   5.758   5.183  13.852  1.4891  2.4328 -0.4158
 6990TIP3    H242386   5.814   5.050  13.806 -0.2504  0.4662  2.7788
 6991TIP3   OH242387   0.677   1.904  15.535 -0.3014  0.3854 -0.0132
 6991TIP3    H142388   0.697   1.826  15.483  2.0357  1.9344 -1.6258
 6991TIP3    H242389   0.726   1.893  15.616  0.3491  0.3443 -0.4097
 6992TIP3   OH242390   4.969   1.539   5.418 -0.0637  0.4751 -0.3745
 6992TIP3    H142391   4.993   1.631   5.419  0.2586  0.3886  0.0875
 6992TIP3    H242392   4.933   1.525   5.330  1.3401  0.6690 -1.0113
 6993TIP3   OH242393   0.761   1.968  11.183 -0.1468  0.8389  0.8370
 6993TIP3    H142394   0.831   1.958  11.247 -0.4825  0.5610  1.1626
 6993TIP3    H242395   0.700   2.029  11.224 -0.8091 -0.0311  1.1677
 6994TIP3   OH242396   5.417   4.487   1.612 -0.6196 -0.2448  0.3142
 6994TIP3    H142397   5.416   4.582   1.619  0.9529 -0.1040 -0.8422
 6994TIP3    H242398   5.473   4.459   1.685  0.4864 -0.1239 -0.4682
 6995TIP3   OH242399   5.402   6.124  15.945  0.7674  0.3751 -0.1853
 6995TIP3    H142400   5.310   6.126  15.920  1.1040 -1.2261 -1.7677
 6995TIP3    H242401   5.428   6.216  15.948 -1.2688  0.9742  2.0765
 6996TIP3   OH242402   5.884   5.386  15.748 -0.5762  0.4897  0.3484
 6996TIP3    H142403   5.897   5.338  15.667 -0.0303  1.0849  0.0748
 6996TIP3    H242404   5.905   5.477  15.726  0.5876  0.5040  1.3887
 6997TIP3   OH242405   4.812   1.590   4.858 -0.2887  0.1136  0.1095
 6997TIP3    H142406   4.733   1.637   4.884  0.2190  0.4056  1.1652
 6997TIP3    H242407   4.779   1.511   4.815 -1.1559  0.4185  0.1896
 6998TIP3   OH242408   1.175   4.349  16.420 -0.2041  0.0389 -0.1379
 6998TIP3    H142409   1.167   4.381  16.330 -0.2632  0.1260 -0.1021
 6998TIP3    H242410   1.162   4.255  16.414  0.9107 -0.1094 -0.3738
 6999TIP3   OH242411   6.276   5.549   5.294 -0.1588 -0.0629 -0.0356
 6999TIP3    H142412   6.207   5.483   5.292 -0.8258  0.6408 -0.8979
 6999TIP3    H242413   6.289   5.567   5.387  0.2529 -1.6063  0.2285
 7000TIP3   OH242414   6.471   1.799   3.711 -0.3335  0.4936 -0.2670
 7000TIP3    H142415   6.433   1.874   3.665  2.0551  2.0954  0.1973
 7000TIP3    H242416   6.557   1.788   3.670 -0.4057 -1.6811  0.0655
 7001TIP3   OH242417   4.233   4.175  16.032  0.1332  0.4059 -0.1793
 7001TIP3    H142418   4.308   4.224  15.997  0.3950  0.4176  0.3885
 7001TIP3    H242419   4.272   4.111  16.091 -0.3604  0.9899  0.8040
 7002TIP3   OH242420   0.464   5.130   4.826 -0.4322 -0.2093  0.6374
 7002TIP3    H142421   0.430   5.100   4.910  0.7657  1.4549  1.8001
 7002TIP3    H242422   0.398   5.191   4.794 -0.0757  0.5688  1.3239
 7003TIP3   OH242423   5.767   5.472   4.464  0.1575  0.5295 -0.4984
 7003TIP3    H142424   5.791   5.380   4.476  1.1895  0.7468 -0.8181
 7003TIP3    H242425   5.691   5.469   4.406 -1.9002 -0.2631  2.0668
 7004TIP3   OH242426   0.202   0.230   1.692 -0.3145 -0.1134 -0.7435
 7004TIP3    H142427   0.296   0.250   1.697 -0.3343  0.1100 -1.2109
 7004TIP3    H242428   0.196   0.160   1.627 -0.3242 -1.1811  0.3518
 7005TIP3   OH242429   5.427   1.617  11.571  0.6088 -0.4994 -0.3517
 7005TIP3    H142430   5.515   1.652  11.563  1.4749 -2.1631  1.1467
 7005TIP3    H242431   5.412   1.569  11.489  1.2465 -0.5478 -0.4411
 7006TIP3   OH242432   6.745   3.418   1.988 -0.7185  0.1354  0.2742
 7006TIP3    H142433   6.753   3.405   1.894  1.0535 -0.0869  0.4163
 7006TIP3    H242434   6.685   3.349   2.017  0.7852 -1.5284 -0.3673
 7007TIP3   OH242435   6.446   3.485  16.452  0.3404  0.2301 -0.1237
 7007TIP3    H142436   6.424   3.558  16.510  1.5443  0.4895  0.0394
 7007TIP3    H242437   6.541   3.474  16.462  0.5889  0.2378 -1.9791
 7008TIP3   OH242438   0.520   1.570   2.666 -0.7032  0.4856  0.4818
 7008TIP3    H142439   0.470   1.578   2.747  0.9242 -1.7360  1.8356
 7008TIP3    H242440   0.602   1.616   2.684 -0.7211  0.8430 -0.3045
 7009TIP3   OH242441   1.384   6.641  10.493  0.2850 -0.4748 -0.0356
 7009TIP3    H142442   1.442   6.609  10.425 -0.6042 -0.6864 -0.7176
 7009TIP3    H242443   1.435   6.708  10.539  1.9903 -2.4458  1.1018
 7010TIP3   OH242444   3.077   5.833  15.196 -0.0854  0.1575 -0.2821
 7010TIP3    H142445   3.008   5.825  15.130  0.7927  0.6994 -1.2960
 7010TIP3    H242446   3.070   5.924  15.226 -1.0758 -0.3388  1.0717
 7011TIP3   OH242447   3.542   6.066  14.362  0.2372  0.4004  0.3290
 7011TIP3    H142448   3.524   6.019  14.444 -1.5564  1.7656  0.7761
 7011TIP3    H242449   3.500   6.012  14.294  1.0193 -0.3028  0.3800
 7012TIP3   OH242450   2.096   3.587  14.020 -0.3581  0.3527  0.2857
 7012TIP3    H142451   2.111   3.658  14.083  1.9021  0.0986  0.1097
 7012TIP3    H242452   2.111   3.507  14.070 -0.7730  0.0763 -0.0307
 7013TIP3   OH242453   0.578   2.099   5.053  0.3125  0.7051  0.4565
 7013TIP3    H142454   0.497   2.058   5.085  1.6942 -2.4114  0.3451
 7013TIP3    H242455   0.575   2.088   4.958  1.4581 -0.7540  0.5611
 7014TIP3   OH242456   4.916   3.895  16.007 -0.2734 -0.6309  0.1612
 7014TIP3    H142457   4.963   3.849  16.076  0.4787  1.3372  1.0102
 7014TIP3    H242458   4.866   3.826  15.962  0.6768 -2.2223  1.4592
 7015TIP3   OH242459   3.407   3.666  16.400  0.3214 -0.0511 -0.9686
 7015TIP3    H142460   3.362   3.721  16.335 -3.3091  0.0441  1.3358
 7015TIP3    H242461   3.373   3.578  16.384 -0.1452 -0.1264  0.3604
 7016TIP3   OH242462   3.267   3.209  14.792  0.4541  0.2219  0.6903
 7016TIP3    H142463   3.256   3.169  14.705 -0.6076  1.4566  0.2265
 7016TIP3    H242464   3.360   3.235  14.795  0.3680  0.6819 -0.3142
 7017TIP3   OH242465   0.789   4.850  14.951 -0.3546 -0.1922 -0.3792
 7017TIP3    H142466   0.781   4.942  14.929  2.6517  0.3397  0.2251
 7017TIP3    H242467   0.738   4.804  14.884 -1.6674  1.8542 -0.8580
 7018TIP3   OH242468   1.446   1.535  11.729  0.2722  1.0880 -0.2156
 7018TIP3    H142469   1.448   1.549  11.635  0.2902  0.4009 -0.3231
 7018TIP3    H242470   1.431   1.622  11.766  0.3056  1.3674 -0.8465
 7019TIP3   OH242471   4.991   0.367  11.882 -0.5739 -0.2249 -0.4002
 7019TIP3    H142472   5.017   0.325  11.964 -2.4546  1.1741  1.0283
 7019TIP3    H242473   4.939   0.300  11.837  1.5507 -1.4594 -1.1495
 7020TIP3   OH242474   4.240   6.183   1.826 -0.2550 -0.1688 -0.3150
 7020TIP3    H142475   4.171   6.200   1.890  1.2055  0.5722  1.1256
 7020TIP3    H242476   4.313   6.239   1.853  1.1460 -1.3481 -1.4375
 7021TIP3   OH242477   5.114   4.801   5.527  0.1241 -0.0907 -0.5586
 7021TIP3    H142478   5.148   4.718   5.561 -0.9881 -0.9416 -1.4232
 7021TIP3    H242479   5.142   4.867   5.590 -0.7005 -1.4170  1.2893
 7022TIP3   OH242480   0.963   0.661   3.566 -0.2766 -0.0752 -1.1394
 7022TIP3    H142481   0.954   0.646   3.472 -0.1545  1.2239 -1.3879
 7022TIP3    H242482   1.037   0.722   3.572 -0.3079 -0.1241 -0.2070
 7023TIP3   OH242483   5.093   2.756   4.468 -0.6414 -0.2995  0.5961
 7023TIP3    H142484   5.068   2.835   4.420 -0.0440  0.8526  2.1337
 7023TIP3    H242485   5.188   2.748   4.453 -0.1737  0.8406  2.5836
 7024TIP3   OH242486   3.469   6.534  16.322  0.1735 -0.0084 -0.3806
 7024TIP3    H142487   3.419   6.592  16.380  2.6980  1.3510  0.5942
 7024TIP3    H242488   3.447   6.446  16.350 -1.8754  0.4953 -0.2355
 7025TIP3   OH242489   0.517   3.892   4.817  0.2388  0.3712 -0.0168
 7025TIP3    H142490   0.612   3.901   4.811  0.2174  0.2852 -0.4975
 7025TIP3    H242491   0.485   3.981   4.829  0.3900  0.3849  0.2910
 7026TIP3   OH242492   1.353   1.636  15.078  0.2409  0.3584  0.3120
 7026TIP3    H142493   1.278   1.649  15.136 -2.6471 -1.2201 -2.7528
 7026TIP3    H242494   1.360   1.719  15.031 -0.8464 -0.1023 -0.6929
 7027TIP3   OH242495   0.225   4.239   0.504 -0.6822 -0.1888  0.6312
 7027TIP3    H142496   0.240   4.264   0.595  0.3185 -0.9570  0.7008
 7027TIP3    H242497   0.311   4.209   0.473 -0.9274  0.3694 -0.6651
 7028TIP3   OH242498   3.442   2.854  14.960 -0.2079  0.3767 -0.7387
 7028TIP3    H142499   3.369   2.852  14.898 -1.4041 -1.4526  0.6228
 7028TIP3    H242500   3.418   2.921  15.024 -0.9983 -0.5812 -0.0020
 7029TIP3   OH242501   3.711   6.252  12.069  0.5512 -0.0295  0.4369
 7029TIP3    H142502   3.665   6.278  11.989 -2.2173  0.0092  1.9133
 7029TIP3    H242503   3.794   6.299  12.066  0.1849  0.5840 -2.0082
 7030TIP3   OH242504   2.417   1.874   2.067 -0.2048 -0.3621 -0.1120
 7030TIP3    H142505   2.471   1.805   2.029  1.8510  0.7480  0.6307
 7030TIP3    H242506   2.328   1.841   2.061  0.5937 -2.5374 -0.8902
 7031TIP3   OH242507   0.973   6.800  10.562 -0.0168  0.0286  0.2253
 7031TIP3    H142508   0.897   6.760  10.604 -0.0220  1.1203  1.3051
 7031TIP3    H242509   0.942   6.826  10.475 -0.2164 -1.5805 -0.2203
 7032TIP3   OH242510   2.760   2.939   0.670  0.5098 -0.3451 -0.3717
 7032TIP3    H142511   2.777   2.903   0.757  1.4497 -0.1363 -0.4585
 7032TIP3    H242512   2.765   3.034   0.682 -0.3284 -0.2752 -0.4712
 7033TIP3   OH242513   5.717   0.436   1.142  0.1468 -0.1167  0.5221
 7033TIP3    H142514   5.712   0.460   1.050 -2.6068  3.7325  1.3925
 7033TIP3    H242515   5.637   0.385   1.157  1.2337 -1.8625  0.6102
 7034TIP3   OH242516   5.984   4.111   2.595 -0.6616 -0.3220  0.2295
 7034TIP3    H142517   5.893   4.139   2.594 -0.5221  0.1408 -0.9141
 7034TIP3    H242518   5.983   4.022   2.560 -0.5443  0.1988 -1.1780
 7035TIP3   OH242519   2.835   1.945  14.959 -0.1828  0.2119 -0.1382
 7035TIP3    H142520   2.853   1.851  14.958  0.1411  0.2624  0.5607
 7035TIP3    H242521   2.921   1.985  14.948 -0.2930  0.4339 -0.1903
 7036TIP3   OH242522   6.484   3.855  16.435 -0.5050  0.5052  0.0516
 7036TIP3    H142523   6.430   3.803  16.495 -0.3874 -1.3145 -1.3343
 7036TIP3    H242524   6.463   3.821  16.348  0.5498  1.9418 -0.8149
 7037TIP3   OH242525   5.698   1.195  14.833 -0.0828 -0.3684 -0.1320
 7037TIP3    H142526   5.777   1.160  14.792  1.8269  0.2190  2.7260
 7037TIP3    H242527   5.703   1.290  14.817  1.0071 -0.0464  1.7224
 7038TIP3   OH242528   3.889   6.550  14.751 -0.0498 -0.4969 -0.1615
 7038TIP3    H142529   3.898   6.573  14.844 -1.3223  0.1956 -0.1898
 7038TIP3    H242530   3.944   6.472  14.741  0.7813 -0.0957  0.9724
 7039TIP3   OH242531   3.191   0.719  15.787  0.6758 -0.1724 -0.1773
 7039TIP3    H142532   3.097   0.722  15.771  0.6783 -0.9527 -0.3826
 7039TIP3    H242533   3.212   0.806  15.822 -0.5877 -0.8903  2.5932
 7040TIP3   OH242534   2.866   5.101   2.740  0.7234 -0.0164 -0.4999
 7040TIP3    H142535   2.845   5.017   2.781 -0.7978  0.5061 -0.1613
 7040TIP3    H242536   2.801   5.111   2.671  0.4701  1.1867 -0.1057
 7041TIP3   OH242537   2.417   3.659   0.482 -0.5269 -0.1137  0.0539
 7041TIP3    H142538   2.493   3.653   0.540 -1.9387  0.3881  2.0866
 7041TIP3    H242539   2.404   3.570   0.450  1.0081 -0.1642 -0.4821
 7042TIP3   OH242540   4.747   2.509  13.646  0.3459  0.2753 -0.4428
 7042TIP3    H142541   4.747   2.444  13.716 -1.0092 -1.3617 -1.8678
 7042TIP3    H242542   4.837   2.541  13.643  0.7932 -0.7312  1.0129
 7043TIP3   OH242543   2.680   0.918  13.507 -0.2798 -0.1451  0.4937
 7043TIP3    H142544   2.751   0.872  13.463 -0.6631 -0.8674  0.6164
 7043TIP3    H242545   2.671   1.000  13.458 -0.3821 -0.7204 -0.4809
 7044TIP3   OH242546   0.005   5.423  12.868  0.0777 -0.1497 -0.0669
 7044TIP3    H142547  -0.067   5.432  12.806  0.7138  0.1666 -0.7815
 7044TIP3    H242548  -0.014   5.343  12.917  0.1202 -1.0400 -1.4370
 7045TIP3   OH242549   5.980   4.987   5.661 -0.3205  0.3785 -0.1435
 7045TIP3    H142550   6.009   5.078   5.669  1.5883 -0.2120  0.2152
 7045TIP3    H242551   5.949   4.964   5.748  0.1574  0.4022  0.0388
 7046TIP3   OH242552   6.703   4.241   6.330 -0.3873 -0.7761  0.5157
 7046TIP3    H142553   6.635   4.187   6.289  0.2529 -0.8003 -0.5406
 7046TIP3    H242554   6.783   4.221   6.282 -0.3743  2.1172 -0.8569
 7047TIP3   OH242555   4.904   3.304  11.881 -0.2318  0.1841  0.2956
 7047TIP3    H142556   4.835   3.273  11.822 -0.2203 -1.4635  1.0845
 7047TIP3    H242557   4.870   3.388  11.915 -0.0693  1.3684 -2.2410
 7048TIP3   OH242558   0.094   0.015  15.072 -0.0917  0.3753  0.2026
 7048TIP3    H142559   0.169   0.063  15.106  0.5671 -2.2584  2.9608
 7048TIP3    H242560   0.133  -0.054  15.018 -0.5912 -0.2396  0.6155
 7049TIP3   OH242561   4.709   4.178   3.818  0.4615 -0.4584 -0.4186
 7049TIP3    H142562   4.796   4.196   3.855 -0.1998 -0.8049  1.3750
 7049TIP3    H242563   4.718   4.203   3.725  1.8607  1.5623  0.1770
 7050TIP3   OH242564   1.970   3.906  16.029  0.1256 -0.1008 -0.4301
 7050TIP3    H142565   2.025   3.920  15.952 -1.3243 -0.4519 -1.5666
 7050TIP3    H242566   1.904   3.843  16.001  0.1865 -1.0567  1.4317
 7051TIP3   OH242567   2.761   4.293   0.792  0.0345 -0.2121 -0.2164
 7051TIP3    H142568   2.682   4.274   0.740  0.7258 -3.2478 -0.3767
 7051TIP3    H242569   2.800   4.207   0.807  2.2608  1.0133  1.5908
 7052TIP3   OH242570   2.749   2.539   1.083 -0.1564  0.0121  0.8072
 7052TIP3    H142571   2.685   2.578   1.142  0.1910  1.8590  0.0268
 7052TIP3    H242572   2.719   2.449   1.071 -3.1325  0.9915 -0.1844
 7053TIP3   OH242573   5.542   0.018  11.040 -0.3894  0.2283  0.4233
 7053TIP3    H142574   5.487   0.090  11.069  0.4355  1.1855 -0.3163
 7053TIP3    H242575   5.630   0.041  11.070 -0.2576 -0.9200  0.9587
 7054TIP3   OH242576   1.360   3.047  15.075  0.1034  0.3550 -0.3690
 7054TIP3    H142577   1.285   2.987  15.075 -0.2721  0.8085  0.2511
 7054TIP3    H242578   1.333   3.118  15.133 -0.2925  2.1747 -2.6323
 7055TIP3   OH242579   6.622   4.380  15.325  1.0528 -0.1450 -0.4252
 7055TIP3    H142580   6.708   4.394  15.365  0.6828 -0.3933  0.4995
 7055TIP3    H242581   6.590   4.299  15.366  0.7415 -0.5287 -1.3979
 7056TIP3   OH242582   3.194   1.994  12.255  0.0306 -1.0673 -0.4188
 7056TIP3    H142583   3.266   1.950  12.301  1.0195 -1.5077 -2.2991
 7056TIP3    H242584   3.155   1.925  12.201  0.2876 -0.1137 -1.8618
 7057TIP3   OH242585   4.226   4.262   1.861  0.1987 -0.2659  0.6614
 7057TIP3    H142586   4.235   4.306   1.776 -0.5505 -1.0549  0.1593
 7057TIP3    H242587   4.308   4.281   1.906  0.5037  0.3834 -0.1298
 7058TIP3   OH242588   6.631   5.797   1.719 -0.1098 -0.0512  0.2682
 7058TIP3    H142589   6.647   5.827   1.809  0.3758  0.7038 -0.0580
 7058TIP3    H242590   6.636   5.877   1.666 -0.9585 -0.4017 -0.3643
 7059TIP3   OH242591   2.341   5.209  10.876  0.2130 -0.2805 -0.5956
 7059TIP3    H142592   2.327   5.267  10.951  1.9991 -0.5299 -0.0207
 7059TIP3    H242593   2.429   5.173  10.890  0.2396 -0.9936 -2.3750
 7060TIP3   OH242594   2.204   4.411  15.993  0.2887  0.3696 -0.3628
 7060TIP3    H142595   2.216   4.414  16.088  0.2737  0.5940 -0.3678
 7060TIP3    H242596   2.110   4.408  15.981  0.3066 -1.4434 -0.3245
 7061TIP3   OH242597   3.860   1.865   5.415  0.1969 -0.1770  0.0423
 7061TIP3    H142598   3.775   1.875   5.459 -0.2681 -2.2863 -0.2590
 7061TIP3    H242599   3.873   1.948   5.369 -2.3184 -0.2209 -0.9261
 7062TIP3   OH242600   4.217   3.731   5.807 -0.2003  0.2453 -0.2782
 7062TIP3    H142601   4.296   3.685   5.780 -0.1195 -0.4262  1.0317
 7062TIP3    H242602   4.219   3.729   5.903 -1.3707  0.9548 -0.2164
 7063TIP3   OH242603   4.475   1.553  16.793  0.1415  0.3179 -0.0607
 7063TIP3    H142604   4.551   1.602  16.825 -0.4762  2.0187 -1.0690
 7063TIP3    H242605   4.511   1.495  16.725  0.4037  2.0752 -1.4932
 7064TIP3   OH242606   2.404   3.383   5.181 -0.3647 -0.6094 -0.0530
 7064TIP3    H142607   2.484   3.330   5.193 -0.3222 -0.6965 -0.6896
 7064TIP3    H242608   2.345   3.325   5.132  0.8125  0.9134 -3.6430
 7065TIP3   OH242609   0.745   5.294   5.749 -0.4549 -0.2558  0.0287
 7065TIP3    H142610   0.665   5.312   5.700  0.0407  1.1598 -0.3098
 7065TIP3    H242611   0.778   5.380   5.774  1.9338 -0.6715 -1.3972
 7066TIP3   OH242612   0.584   1.018   4.193 -0.1542 -0.4226  0.1949
 7066TIP3    H142613   0.635   1.094   4.221  1.8815 -1.7502  0.2730
 7066TIP3    H242614   0.554   0.978   4.274  1.8143 -1.6578  0.3717
 7067TIP3   OH242615   3.808   5.709  13.704  0.4170  0.3232  0.2902
 7067TIP3    H142616   3.777   5.797  13.684 -0.0528  0.2301  0.5888
 7067TIP3    H242617   3.854   5.681  13.625 -0.2462  0.4746 -0.1565
 7068TIP3   OH242618   1.768   1.681  11.193 -0.0458 -0.0477 -0.2361
 7068TIP3    H142619   1.847   1.627  11.186  0.2613  0.2603  0.7067
 7068TIP3    H242620   1.770   1.736  11.114  1.3796  0.8534  0.3878
 7069TIP3   OH242621   5.962   4.862   6.150  0.0967  0.4566  0.3166
 7069TIP3    H142622   5.931   4.902   6.231  0.0604  0.8121  0.1326
 7069TIP3    H242623   6.033   4.804   6.177 -0.0447  0.4219  0.6226
 7070TIP3   OH242624   2.627   1.643  11.771  0.7103  0.1705  0.1679
 7070TIP3    H142625   2.702   1.668  11.825  0.3624  0.5200  0.4909
 7070TIP3    H242626   2.636   1.696  11.692  1.3106 -0.4611 -0.1914
 7071TIP3   OH242627   6.072   4.341   5.927  0.0745  0.2411 -0.0778
 7071TIP3    H142628   6.119   4.273   5.879  1.9940  1.6610 -0.3150
 7071TIP3    H242629   6.120   4.349   6.009 -2.2424 -1.0710  1.5488
 7072TIP3   OH242630   4.632   3.681   3.255 -0.3538 -0.1418  0.2423
 7072TIP3    H142631   4.583   3.701   3.336  3.0480 -1.3173  2.8385
 7072TIP3    H242632   4.640   3.765   3.211  1.1819  1.5223  3.3599
 7073TIP3   OH242633   4.202   0.721  14.765  0.5224  0.3460  0.0040
 7073TIP3    H142634   4.186   0.795  14.707 -1.6634  0.7882  1.0737
 7073TIP3    H242635   4.296   0.725  14.784  0.7786  1.7212 -1.4111
 7074TIP3   OH242636   3.855   3.868   0.532 -0.1749  0.3882  0.3935
 7074TIP3    H142637   3.920   3.902   0.595  2.1093  0.3692 -1.7859
 7074TIP3    H242638   3.795   3.941   0.518  2.8001  2.7090 -1.7987
 7075TIP3   OH242639   5.918   1.099   5.672  0.3774  0.4946  0.3200
 7075TIP3    H142640   5.992   1.085   5.614  0.6416  2.3350  0.1474
 7075TIP3    H242641   5.942   1.055   5.754 -0.2931 -2.7417 -1.0644
 7076TIP3   OH242642   4.901   0.189  13.248  0.1059  0.7763  1.0714
 7076TIP3    H142643   4.944   0.231  13.173  0.6221 -0.2139  0.8046
 7076TIP3    H242644   4.963   0.201  13.320 -0.4184  1.7846  1.3744
 7077TIP3   OH242645   6.731   2.211   0.264  0.4106  0.2435 -0.0600
 7077TIP3    H142646   6.647   2.166   0.258  0.1456  0.8653 -1.9415
 7077TIP3    H242647   6.797   2.142   0.256  0.0232 -0.0006 -1.3611
 7078TIP3   OH242648   3.258   0.047   1.076  0.0800 -0.3376  0.3467
 7078TIP3    H142649   3.262   0.109   1.149  0.6207  0.8396 -0.6485
 7078TIP3    H242650   3.272   0.101   0.998  2.3327 -1.9376 -0.4528
 7079TIP3   OH242651   3.584   0.744  12.834  0.2136 -0.2298  0.3442
 7079TIP3    H142652   3.525   0.669  12.844 -0.5707  0.4249  0.7921
 7079TIP3    H242653   3.672   0.707  12.839 -0.1606 -1.0133  1.4594
 7080TIP3   OH242654   5.776   6.468   5.772 -0.4938  0.0214  0.1729
 7080TIP3    H142655   5.847   6.527   5.797 -0.0703 -0.6159  0.4846
 7080TIP3    H242656   5.722   6.520   5.711  0.0916  0.5923  0.1351
 7081TIP3   OH242657   0.594   0.905   4.856 -0.1221  0.5218 -0.2619
 7081TIP3    H142658   0.678   0.943   4.881  0.8765 -2.5153  1.4468
 7081TIP3    H242659   0.612   0.862   4.772  1.3098 -3.2128  1.6875
 7082TIP3   OH242660   1.665   1.898  12.934  0.1434  0.1499 -0.4761
 7082TIP3    H142661   1.667   1.915  13.028 -0.4374 -1.2286 -0.1897
 7082TIP3    H242662   1.676   1.803  12.926 -2.2452 -0.1187 -1.6299
 7083TIP3   OH242663   1.786   2.896  16.194  0.1582  0.2042 -0.3799
 7083TIP3    H142664   1.872   2.917  16.231  0.5155  1.5441 -1.8830
 7083TIP3    H242665   1.792   2.924  16.102 -2.0239  0.6879 -0.4147
 7084TIP3   OH242666   0.909   0.648  12.813 -0.1924  0.2243  0.6800
 7084TIP3    H142667   0.994   0.676  12.779  0.3533 -3.5714 -1.8220
 7084TIP3    H242668   0.930   0.582  12.879 -1.2688  0.7918  1.6234
 7085TIP3   OH242669   4.389   1.072  11.703  0.0815 -0.0599 -0.6380
 7085TIP3    H142670   4.475   1.112  11.689 -0.6279  2.6623  1.7858
 7085TIP3    H242671   4.348   1.074  11.617  0.6454  3.4110 -0.9852
 7086TIP3   OH242672   4.928   1.514   4.494 -0.4281 -0.9079  0.3996
 7086TIP3    H142673   4.928   1.598   4.540  0.2287 -0.5996 -0.1459
 7086TIP3    H242674   4.984   1.458   4.547 -0.0178 -0.6819  0.2097
 7087TIP3   OH242675   3.637   0.997   1.419 -0.9655  0.0519  0.4797
 7087TIP3    H142676   3.543   1.010   1.407 -0.9741  2.9193  2.4966
 7087TIP3    H242677   3.644   0.948   1.501 -0.7474  0.5549  0.7737
 7088TIP3   OH242678   3.183   4.049   1.433 -0.6897 -0.1346 -0.6124
 7088TIP3    H142679   3.170   3.957   1.411  1.3581 -0.2169 -1.8212
 7088TIP3    H242680   3.187   4.093   1.348  0.0224  0.7832 -0.1241
 7089TIP3   OH242681   2.710   3.885  14.185  0.3006  0.6575  0.1702
 7089TIP3    H142682   2.657   3.962  14.163 -0.4273 -0.0466 -0.5997
 7089TIP3    H242683   2.744   3.904  14.272 -0.4784  1.5283  0.3033
 7090TIP3   OH242684   1.054   6.038  12.933 -0.1849  0.0135  0.3168
 7090TIP3    H142685   1.017   6.036  12.845 -0.0256 -1.9128  0.2337
 7090TIP3    H242686   1.106   5.958  12.938  0.4272  0.4755  1.9128
 7091TIP3   OH242687   2.259   6.604   1.027 -0.3512  0.1990 -0.4982
 7091TIP3    H142688   2.331   6.665   1.010 -0.0092 -0.0688 -0.0041
 7091TIP3    H242689   2.238   6.567   0.941  1.0452 -0.7728 -0.4499
 7092TIP3   OH242690   2.237   4.893  14.651 -0.7528  0.2262  0.4723
 7092TIP3    H142691   2.311   4.833  14.664 -0.6002 -0.1112 -1.5775
 7092TIP3    H242692   2.182   4.881  14.728  1.5308  0.8340  2.3014
 7093TIP3   OH242693   2.101   3.297   1.047 -0.3487 -0.0938 -0.4427
 7093TIP3    H142694   2.107   3.290   0.952  1.6785 -0.5661 -0.3169
 7093TIP3    H242695   2.179   3.346   1.072 -1.1747  0.5457  0.9333
 7094TIP3   OH242696   1.580   2.196   2.335  0.1366  0.5836  0.4376
 7094TIP3    H142697   1.508   2.165   2.280 -0.9468  2.2962  0.7910
 7094TIP3    H242698   1.608   2.278   2.294  1.7179  0.0883  0.4727
 7095TIP3   OH242699   6.224   3.215   1.748 -0.4614 -0.6650 -0.0305
 7095TIP3    H142700   6.269   3.264   1.817  2.8958 -0.7976 -1.8882
 7095TIP3    H242701   6.196   3.133   1.791 -1.0972  0.4353  1.7740
 7096TIP3   OH242702   5.932   5.911  12.884  1.0527 -0.2051 -0.0121
 7096TIP3    H142703   6.017   5.869  12.872  1.6330  0.9068  0.0818
 7096TIP3    H242704   5.871   5.838  12.900  2.2799 -0.9267  1.6712
 7097TIP3   OH242705   6.491   5.652   5.565  0.0639 -0.2312  0.1505
 7097TIP3    H142706   6.418   5.595   5.586  0.4287 -1.6781 -2.2015
 7097TIP3    H242707   6.545   5.652   5.644 -2.1542  0.4706  1.7520
 7098TIP3   OH242708   5.137   3.692   0.520  0.3847  0.2375  0.0526
 7098TIP3    H142709   5.154   3.629   0.590  0.9563  0.3465  0.0112
 7098TIP3    H242710   5.221   3.736   0.505  1.1889 -2.0118 -2.9500
 7099TIP3   OH242711   1.722   0.292  14.020 -0.2364 -0.3245  0.3426
 7099TIP3    H142712   1.693   0.201  14.012 -0.1100 -0.3897  0.6058
 7099TIP3    H242713   1.774   0.293  14.100  0.8399 -0.3043 -0.3463
 7100TIP3   OH242714   4.476   5.490  11.764  0.6949  0.2681  0.0022
 7100TIP3    H142715   4.567   5.473  11.785  0.9884  2.4309  0.7338
 7100TIP3    H242716   4.466   5.458  11.674  2.2131  0.1746 -0.1586
 7101TIP3   OH242717   1.202   1.371   0.355  0.3935 -0.4429  0.1150
 7101TIP3    H142718   1.173   1.457   0.384 -0.2451 -0.9267  0.9743
 7101TIP3    H242719   1.291   1.362   0.389  0.2071 -0.3949  0.6258
 7102TIP3   OH242720   5.817   5.615   0.620 -0.4804 -0.6807 -0.3705
 7102TIP3    H142721   5.791   5.648   0.706 -1.0035 -1.2696 -0.2956
 7102TIP3    H242722   5.900   5.571   0.635  1.0776  1.9093 -0.7568
 7103TIP3   OH242723   5.733   3.027  14.871  0.1661 -0.0409 -0.0192
 7103TIP3    H142724   5.768   3.067  14.791  1.1717  1.2415  1.0199
 7103TIP3    H242725   5.797   2.958  14.893 -0.8768 -1.4003 -1.0843
 7104TIP3   OH242726   1.264   2.375  13.167 -0.1862  0.2356 -0.5859
 7104TIP3    H142727   1.353   2.340  13.177 -0.9921 -1.5948  0.9069
 7104TIP3    H242728   1.226   2.322  13.097 -0.2458  0.6820 -0.8884
 7105TIP3   OH242729   3.496   1.972  14.565  0.3139 -0.0999 -0.3284
 7105TIP3    H142730   3.542   2.050  14.534 -0.1650  0.4578  0.3229
 7105TIP3    H242731   3.512   1.906  14.498  1.2226  0.3784 -0.6033
 7106TIP3   OH242732   3.003   1.052   4.208 -0.6370  0.4242 -0.2915
 7106TIP3    H142733   2.997   1.114   4.136  0.3452 -1.0074 -1.6720
 7106TIP3    H242734   3.097   1.037   4.220 -0.8454 -1.0210 -0.2410
 7107TIP3   OH242735   3.726   3.143   4.020 -0.3634 -0.0137  0.0655
 7107TIP3    H142736   3.760   3.054   4.017 -0.5382 -0.1055  0.7040
 7107TIP3    H242737   3.631   3.133   4.028 -0.3638  0.2179  0.4160
 7108TIP3   OH242738   6.188   2.205   0.124  0.8328  0.2972 -0.2733
 7108TIP3    H142739   6.217   2.205   0.033  1.0120  0.8649 -0.2181
 7108TIP3    H242740   6.247   2.266   0.168  0.0938  0.8162  0.0103
 7109TIP3   OH242741   1.540   4.823  11.782 -0.2075  0.0227 -0.1355
 7109TIP3    H142742   1.538   4.785  11.870  3.3853 -1.6483 -0.5971
 7109TIP3    H242743   1.526   4.917  11.796 -0.8451 -0.3443  2.0516
 7110TIP3   OH242744   0.711   0.402  10.264  0.4296  0.4167  0.0699
 7110TIP3    H142745   0.742   0.489  10.239  0.6299  0.6146  0.9473
 7110TIP3    H242746   0.618   0.402  10.245  0.1453  1.3292  1.3645
 7111TIP3   OH242747   2.351   3.532  11.889  0.3399  0.2822  0.1553
 7111TIP3    H142748   2.278   3.587  11.860  1.0756  1.1234 -0.1392
 7111TIP3    H242749   2.361   3.554  11.982  1.2590  1.4142 -0.1835
 7112TIP3   OH242750   5.342   1.288  11.674 -0.0289  0.3954 -0.4044
 7112TIP3    H142751   5.395   1.225  11.624 -0.1070 -2.4860  2.7785
 7112TIP3    H242752   5.404   1.332  11.732 -0.6148 -0.5234  0.9553
 7113TIP3   OH242753   6.586   5.909  14.991  0.5806 -0.0221  0.4353
 7113TIP3    H142754   6.564   5.821  15.022 -0.8603  0.4774  0.8779
 7113TIP3    H242755   6.590   5.899  14.895 -0.2478 -0.4304  0.4332
 7114TIP3   OH242756   2.323   2.678   2.535 -0.0071  0.3638  0.3086
 7114TIP3    H142757   2.276   2.692   2.617 -0.7556 -1.8872  0.3292
 7114TIP3    H242758   2.405   2.727   2.546 -0.3532  0.6156  2.1458
 7115TIP3   OH242759   0.317   3.591  16.781  0.2932  0.1113  0.2075
 7115TIP3    H142760   0.274   3.563  16.700  2.5464  0.8950 -1.3516
 7115TIP3    H242761   0.246   3.593  16.846 -2.1012  1.6806 -2.2334
 7116TIP3   OH242762   3.029   0.303  14.216 -0.3534  0.4112  0.2556
 7116TIP3    H142763   3.002   0.306  14.124  0.6990  0.2753 -0.0745
 7116TIP3    H242764   3.020   0.394  14.246 -1.4618  0.3110  0.2607
 7117TIP3   OH242765   0.122   5.592   2.506 -0.3972 -0.0526 -0.2598
 7117TIP3    H142766   0.174   5.552   2.435  1.0288  2.8159 -0.9758
 7117TIP3    H242767   0.146   5.541   2.584 -0.2381 -1.8312 -1.4022
 7118TIP3   OH242768   1.020   6.308  11.563 -0.0395 -0.2158 -0.9697
 7118TIP3    H142769   1.024   6.325  11.469  0.5301 -0.2211 -0.9508
 7118TIP3    H242770   1.108   6.278  11.585 -0.0289  0.2702 -0.3429
 7119TIP3   OH242771   3.087   2.891   1.448  0.5578 -0.1747 -0.3641
 7119TIP3    H142772   3.144   2.897   1.525  1.6733  0.2974 -1.2029
 7119TIP3    H242773   3.147   2.900   1.374 -0.4249 -1.1521 -1.3053
 7120TIP3   OH242774   0.924   4.116  16.791 -0.4763  0.7409  0.4209
 7120TIP3    H142775   0.989   4.176  16.754 -2.4875  2.4726 -0.5586
 7120TIP3    H242776   0.935   4.124  16.886 -0.1428  2.0786  0.2896
 7121TIP3   OH242777   1.048   0.856   0.853 -0.6654  0.0328  0.2942
 7121TIP3    H142778   0.994   0.924   0.812 -0.2561  0.3379  0.2540
 7121TIP3    H242779   1.103   0.903   0.916 -0.1170 -0.2026  0.0021
 7122TIP3   OH242780   6.686   0.430  15.540 -0.3761 -0.3022  0.2036
 7122TIP3    H142781   6.764   0.415  15.594  0.4334  0.0108 -0.8273
 7122TIP3    H242782   6.681   0.351  15.485  0.2924  0.4281 -0.9687
 7123TIP3   OH242783   0.636   2.968  14.005 -0.2204 -0.2238 -0.2002
 7123TIP3    H142784   0.727   2.997  14.007 -0.9010  2.0798  2.3205
 7123TIP3    H242785   0.627   2.911  14.081 -0.3812 -2.5635 -1.8384
 7124TIP3   OH242786   1.521   4.152   6.146 -0.1596 -0.1716 -1.0554
 7124TIP3    H142787   1.489   4.095   6.215 -0.4546  0.6405 -0.5094
 7124TIP3    H242788   1.582   4.098   6.096 -0.2430 -0.8780 -0.4004
 7125TIP3   OH242789   2.735   3.125   5.929  0.8204 -0.1629  0.3576
 7125TIP3    H142790   2.754   3.044   5.976  2.1484 -0.4288 -0.5949
 7125TIP3    H242791   2.639   3.125   5.920  0.8381 -2.2185 -0.6088
 7126TIP3   OH242792   3.967   2.448  11.417 -0.1606  0.0634 -0.0581
 7126TIP3    H142793   4.058   2.441  11.388  0.4698 -0.7184  1.9800
 7126TIP3    H242794   3.925   2.368  11.384 -0.3706  0.8122 -1.7168
 7127TIP3   OH242795   3.344   5.792   5.810  0.4676  0.3810  0.3075
 7127TIP3    H142796   3.270   5.829   5.762  1.4398  2.5290  0.3403
 7127TIP3    H242797   3.307   5.720   5.860 -1.1442 -0.0657 -1.4183
 7128TIP3   OH242798   0.768   2.424  12.159  0.4328 -0.6257 -0.1116
 7128TIP3    H142799   0.729   2.505  12.191  3.3189  1.3423 -1.1460
 7128TIP3    H242800   0.828   2.397  12.228 -0.2899 -1.7221  0.0962
 7129TIP3   OH242801   4.677   5.185  16.224  0.2073  0.2200 -0.3737
 7129TIP3    H142802   4.651   5.094  16.235 -1.3075  0.3308 -2.5019
 7129TIP3    H242803   4.658   5.226  16.308 -1.4656 -0.9019 -0.1677
 7130TIP3   OH242804   0.846   2.701  14.092 -0.2954  0.4720 -0.2278
 7130TIP3    H142805   0.925   2.685  14.144 -1.9556 -1.6369  1.8360
 7130TIP3    H242806   0.784   2.740  14.153 -1.5167  0.2499 -1.2705
 7131TIP3   OH242807   5.120   5.755   3.785  0.0008  0.0967 -0.2239
 7131TIP3    H142808   5.038   5.724   3.822 -0.3771  0.8970 -0.3581
 7131TIP3    H242809   5.147   5.686   3.725 -1.2551  0.3695 -1.1612
 7132TIP3   OH242810   0.948   4.472  16.021  0.5873 -0.2665 -0.1142
 7132TIP3    H142811   0.997   4.475  15.939  0.6765 -1.6610 -0.1382
 7132TIP3    H242812   0.989   4.401  16.071 -0.2221 -0.2229  0.6387
 7133TIP3   OH242813   4.116   5.025   4.522  0.1162  0.3678 -0.1591
 7133TIP3    H142814   4.042   5.069   4.480  0.6093  1.3219 -0.0728
 7133TIP3    H242815   4.171   4.996   4.450 -0.7509 -1.1209 -0.2504
 7134TIP3   OH242816   0.509   1.097   1.170 -0.3821  0.0049 -0.0789
 7134TIP3    H142817   0.537   1.022   1.118 -0.9469 -0.2963  0.0397
 7134TIP3    H242818   0.463   1.058   1.245  2.9763  0.2522  2.3380
 7135TIP3   OH242819   2.874   1.482  15.190 -0.7879  0.1346  0.0563
 7135TIP3    H142820   2.846   1.528  15.270  0.4040 -0.0293  0.5947
 7135TIP3    H242821   2.903   1.396  15.221 -1.1628 -0.2605 -0.6810
 7136TIP3   OH242822   3.667   5.250  16.057  0.0972  0.1837  0.1084
 7136TIP3    H142823   3.721   5.174  16.077 -1.3227 -0.0848  3.4610
 7136TIP3    H242824   3.580   5.228  16.092 -1.2221  2.1241 -1.6685
 7137TIP3   OH242825   4.067   4.655   2.927  0.4264 -0.3110 -0.2178
 7137TIP3    H142826   4.090   4.683   3.015 -1.0878 -1.8423  0.7295
 7137TIP3    H242827   4.066   4.736   2.875 -0.7974  0.9569  1.6646
 7138TIP3   OH242828   3.949   3.467  14.494 -0.8151  0.4504 -0.6474
 7138TIP3    H142829   3.903   3.521  14.558 -0.7429 -0.0640 -0.1529
 7138TIP3    H242830   3.881   3.439  14.433 -1.1060 -0.0092 -0.1264
 7139TIP3   OH242831   3.268   1.842   5.635  0.0387  0.2002  0.5265
 7139TIP3    H142832   3.347   1.876   5.593 -0.0376  0.0314  0.2420
 7139TIP3    H242833   3.294   1.757   5.671 -0.0575  0.0543  0.2628
 7140TIP3   OH242834   5.797   4.283   0.422 -0.0499  0.7451 -0.3029
 7140TIP3    H142835   5.826   4.334   0.346 -0.5090  0.3309 -0.7624
 7140TIP3    H242836   5.727   4.227   0.388  0.4960 -0.2513  0.1818
 7141TIP3   OH242837   5.779   5.251   0.647  0.0340  0.2440  0.1461
 7141TIP3    H142838   5.697   5.214   0.614 -0.2979  0.6031  0.5636
 7141TIP3    H242839   5.774   5.240   0.742  0.0967  1.0127  0.2456
 7142TIP3   OH242840   4.667   0.280   1.047 -0.8060 -0.0957 -0.3803
 7142TIP3    H142841   4.687   0.368   1.015  0.4582  0.3925  1.5405
 7142TIP3    H242842   4.748   0.251   1.090 -0.5403 -3.0258 -2.5344
 7143TIP3   OH242843   3.487   0.037  13.071  0.5556 -0.2111  0.7186
 7143TIP3    H142844   3.528  -0.047  13.054 -1.3200 -1.1341  0.5402
 7143TIP3    H242845   3.487   0.082  12.987 -2.9575 -2.1679 -0.5371
 7144TIP3   OH242846   4.049   4.926  11.658 -0.1329 -0.5742 -0.2267
 7144TIP3    H142847   3.976   4.909  11.598 -0.6915 -0.0107  0.2756
 7144TIP3    H242848   4.023   4.886  11.740  0.2649 -0.6358 -0.1277
 7145TIP3   OH242849   4.901   3.753  10.827 -0.0664 -0.3931 -0.0477
 7145TIP3    H142850   4.986   3.746  10.869 -1.0627 -1.5308  1.8925
 7145TIP3    H242851   4.885   3.666  10.790  0.2129  0.2233 -1.7302
 7146TIP3   OH242852   0.557   6.003  11.784 -0.2983  0.6135 -0.4284
 7146TIP3    H142853   0.530   6.081  11.833 -0.3978 -0.3265  1.0531
 7146TIP3    H242854   0.585   5.941  11.850  1.6940  0.0691 -1.6970
 7147TIP3   OH242855   1.240   5.911  15.721 -0.1735  0.4573 -0.2410
 7147TIP3    H142856   1.221   5.952  15.806  1.7874  0.5218  0.2125
 7147TIP3    H242857   1.327   5.944  15.698 -0.6083  0.3088 -2.2166
 7148TIP3   OH242858   0.333   2.548   0.417 -0.7040 -0.0970  0.2220
 7148TIP3    H142859   0.333   2.587   0.330 -0.2925 -0.4339  0.0685
 7148TIP3    H242860   0.264   2.595   0.464  1.0282  2.1635  0.6737
 7149TIP3   OH242861   0.927   0.961   2.633 -0.3831 -0.2018 -0.2159
 7149TIP3    H142862   0.900   0.915   2.553  0.1254  0.1409 -0.5923
 7149TIP3    H242863   0.948   0.891   2.695  0.3799 -0.4836 -0.7820
 7150TIP3   OH242864   3.395   5.378   2.282  0.2501  0.3353  0.3977
 7150TIP3    H142865   3.327   5.426   2.234  0.8816  1.9273  1.0049
 7150TIP3    H242866   3.431   5.443   2.343  0.5046 -1.2116  1.9616
 7151TIP3   OH242867   4.037   6.614  13.560  0.2082 -0.2407 -0.0249
 7151TIP3    H142868   4.101   6.627  13.489  1.8950  0.8405  1.5973
 7151TIP3    H242869   4.087   6.571  13.629 -0.1729  2.5106  2.1191
 7152TIP3   OH242870   5.661   2.318   5.067 -0.1288  0.9895 -0.3646
 7152TIP3    H142871   5.740   2.272   5.095 -0.6375  0.4789  0.2379
 7152TIP3    H242872   5.605   2.321   5.145 -2.2618 -1.8503 -1.6136
 7153TIP3   OH242873   2.255   2.946  11.366  0.4149  0.4456  0.1088
 7153TIP3    H142874   2.184   2.982  11.313 -1.2978 -0.4057  1.6909
 7153TIP3    H242875   2.282   3.017  11.424 -2.2140 -0.3089  2.4782
 7154TIP3   OH242876   0.737   4.824   1.792 -0.1302  0.1109 -0.1032
 7154TIP3    H142877   0.821   4.786   1.816 -1.0162 -0.3465  2.5530
 7154TIP3    H242878   0.716   4.784   1.707  1.7750 -0.6029 -0.2848
 7155TIP3   OH242879   6.681   4.948   2.442 -0.3972  0.5217  0.1850
 7155TIP3    H142880   6.632   5.030   2.445 -1.9502 -0.3880  1.1242
 7155TIP3    H242881   6.614   4.879   2.439  0.7779 -0.7411 -4.1112
 7156TIP3   OH242882   0.601   6.174   2.783 -0.2791  0.0273 -0.1883
 7156TIP3    H142883   0.622   6.261   2.748  0.8938 -0.5979 -1.1263
 7156TIP3    H242884   0.666   6.116   2.743 -0.8118 -1.2295  0.7063
 7157TIP3   OH242885   3.275   1.709  11.412 -0.0274  0.3106 -0.2601
 7157TIP3    H142886   3.353   1.714  11.467  0.4164  3.3073 -0.9491
 7157TIP3    H242887   3.308   1.686  11.325  0.1001  1.2870 -0.4858
 7158TIP3   OH242888   3.571   1.823  15.228  0.6086 -0.5790 -0.1922
 7158TIP3    H142889   3.528   1.778  15.155  0.1716 -0.5793  0.0609
 7158TIP3    H242890   3.510   1.813  15.301  0.3837  0.6322 -0.1860
 7159TIP3   OH242891   4.651   0.324  12.670  0.0489  0.2011 -0.3409
 7159TIP3    H142892   4.705   0.392  12.629  0.8731 -0.6451 -0.7042
 7159TIP3    H242893   4.684   0.317  12.759  1.3624 -1.0926 -0.8790
 7160TIP3   OH242894   1.357   6.379  11.864 -0.4572 -0.7179 -0.0743
 7160TIP3    H142895   1.384   6.293  11.896 -1.9475 -1.4265 -0.6319
 7160TIP3    H242896   1.436   6.433  11.870  0.5160 -2.1290  0.2590
 7161TIP3   OH242897   1.259   0.642  16.111 -0.7775 -0.8785 -0.0002
 7161TIP3    H142898   1.246   0.625  16.017  2.7012  2.1225 -1.2433
 7161TIP3    H242899   1.312   0.569  16.141 -0.8565 -1.2255 -0.6818
 7162TIP3   OH242900   5.500   6.424  16.938  0.2941  0.3642 -0.4435
 7162TIP3    H142901   5.594   6.439  16.947  0.0689  1.4564  0.2535
 7162TIP3    H242902   5.478   6.364  17.010  0.3255  0.7144 -0.1424
 7163TIP3   OH242903   2.245   1.541   4.434 -0.3345 -0.0601 -0.0431
 7163TIP3    H142904   2.298   1.494   4.369 -0.3150  0.7969 -0.6645
 7163TIP3    H242905   2.168   1.570   4.386  0.0995  1.3550  0.0650
 7164TIP3   OH242906   0.340   5.051  15.080  0.2363  0.3293  0.1222
 7164TIP3    H142907   0.383   4.988  15.022 -0.7421 -0.6006  0.3614
 7164TIP3    H242908   0.281   4.998  15.134 -2.7689  1.6344 -1.5665
 7165TIP3   OH242909   0.310   3.279  13.311 -0.1815  0.4402  0.4372
 7165TIP3    H142910   0.342   3.369  13.311 -1.0734  0.7778  1.1174
 7165TIP3    H242911   0.216   3.287  13.327 -0.4242 -0.5696 -0.3873
 7166TIP3   OH242912   2.776   0.975   4.581 -0.1997  0.0711 -0.1131
 7166TIP3    H142913   2.862   0.956   4.543  0.5459 -0.0116  1.5555
 7166TIP3    H242914   2.747   0.893   4.620 -0.6939  0.2919  0.0012
 7167TIP3   OH242915   5.251   6.617  12.437 -0.4488  0.7374 -0.7039
 7167TIP3    H142916   5.210   6.663  12.510 -0.2191  1.5786 -1.0836
 7167TIP3    H242917   5.181   6.610  12.371 -0.2964  1.1982 -0.9238
 7168TIP3   OH242918   5.533   3.112  13.793 -0.4797 -0.2317  0.2567
 7168TIP3    H142919   5.464   3.052  13.822 -0.5289  0.6782  2.2296
 7168TIP3    H242920   5.612   3.081  13.838  0.8068 -1.9916 -2.8836
 7169TIP3   OH242921   5.230   0.040   5.355  0.8056  0.1704 -0.0617
 7169TIP3    H142922   5.242  -0.054   5.346  0.7413  0.1886 -0.3462
 7169TIP3    H242923   5.170   0.064   5.285 -0.5676  0.1514  1.0682
 7170TIP3   OH242924   5.744   5.154   1.344  0.1464  0.0709 -0.3865
 7170TIP3    H142925   5.742   5.136   1.438  0.9527  2.7101  0.2151
 7170TIP3    H242926   5.836   5.142   1.320  0.1471  0.4698 -0.5884
 7171TIP3   OH242927   3.541   4.534   4.802  0.1669  0.1839 -0.0036
 7171TIP3    H142928   3.466   4.564   4.751  1.7501  2.7844 -1.0800
 7171TIP3    H242929   3.581   4.466   4.749 -0.8196 -0.4804  0.0875
 7172TIP3   OH242930   2.533   5.958   6.240  0.4880 -0.2602 -0.2210
 7172TIP3    H142931   2.468   6.024   6.263 -2.5920 -2.8274 -0.8123
 7172TIP3    H242932   2.559   5.918   6.323  0.5043  0.0955 -0.0564
 7173TIP3   OH242933   5.583   5.747   2.970 -0.3169 -0.4170 -0.1262
 7173TIP3    H142934   5.654   5.788   3.019 -0.5815 -0.1314  0.0253
 7173TIP3    H242935   5.596   5.775   2.880 -0.7056  0.3081  0.0363
 7174TIP3   OH242936   5.510   0.781  12.162  0.3169 -0.0079  0.1414
 7174TIP3    H142937   5.522   0.688  12.180  0.6105  0.1339  0.7041
 7174TIP3    H242938   5.544   0.792  12.073 -0.2536 -0.5384 -0.1509
 7175TIP3   OH242939   4.835   1.817  12.444 -0.3202  0.2080 -0.1762
 7175TIP3    H142940   4.862   1.736  12.400  0.2385 -0.1398  0.7565
 7175TIP3    H242941   4.905   1.834  12.507 -0.9353  0.8501  0.3558
 7176TIP3   OH242942   5.741   5.699  12.896  0.3321  0.4067  0.1844
 7176TIP3    H142943   5.726   5.618  12.946 -0.8232  0.7242  0.3867
 7176TIP3    H242944   5.738   5.671  12.804 -2.5851  0.5399  0.1452
 7177TIP3   OH242945   1.935   2.979   3.538 -0.2325 -0.3870  0.0941
 7177TIP3    H142946   1.925   3.070   3.565 -0.0545 -0.1515 -0.6113
 7177TIP3    H242947   1.853   2.937   3.566 -0.1435 -0.1098  0.7894
 7178TIP3   OH242948   4.347   1.466   4.140  0.1958  0.2216  0.6124
 7178TIP3    H142949   4.324   1.556   4.163 -1.7882 -0.3509  1.1053
 7178TIP3    H242950   4.405   1.474   4.065  0.7340  1.9218  1.1654
 7179TIP3   OH242951   1.400   5.083   3.694 -0.7607 -0.2379 -0.2181
 7179TIP3    H142952   1.457   5.023   3.647 -0.4493 -1.9307  2.1459
 7179TIP3    H242953   1.321   5.087   3.642  0.1488 -0.7285 -1.6949
 7180TIP3   OH242954   2.309   6.483  12.342 -0.0772 -0.0586 -0.2708
 7180TIP3    H142955   2.342   6.493  12.431 -0.5455  1.4820 -0.2355
 7180TIP3    H242956   2.233   6.425  12.351 -0.4563  0.5257  0.4323
 7181TIP3   OH242957   5.046   4.748   4.054 -0.1502  0.1592  0.0876
 7181TIP3    H142958   5.119   4.736   4.115 -0.7550 -0.1157  0.7777
 7181TIP3    H242959   4.992   4.816   4.095 -0.9161 -0.5064  0.2198
 7182TIP3   OH242960   6.275   3.913  12.114 -0.2056 -0.0273 -0.2202
 7182TIP3    H142961   6.218   3.979  12.073  1.1502  1.2664 -0.0888
 7182TIP3    H242962   6.364   3.941  12.092  0.4096 -2.3537 -0.9513
 7183TIP3   OH242963   4.950   3.432   2.462  0.0806  0.3152 -0.5631
 7183TIP3    H142964   4.949   3.451   2.369  4.7534  2.1171 -0.5246
 7183TIP3    H242965   4.950   3.337   2.468  1.6916  0.1112 -2.6155
 7184TIP3   OH242966   5.553   6.192  15.217  0.5764 -0.3857 -0.6265
 7184TIP3    H142967   5.551   6.282  15.183 -1.8238 -0.3651 -0.6429
 7184TIP3    H242968   5.569   6.138  15.139  1.9418 -0.0008 -0.6301
 7185TIP3   OH242969   0.369   4.217   1.504  0.7959 -0.6577  0.2313
 7185TIP3    H142970   0.285   4.171   1.501  1.4199 -1.8917  0.9031
 7185TIP3    H242971   0.388   4.239   1.412  0.5908 -1.9605 -0.1365
 7186TIP3   OH242972   4.616   0.155   2.832 -0.1444  0.7773  0.0246
 7186TIP3    H142973   4.568   0.144   2.915 -2.7737  0.4312 -1.4192
 7186TIP3    H242974   4.620   0.250   2.820  0.0023  0.8229  0.4088
 7187TIP3   OH242975   4.748   4.390   3.568  0.0980  0.9546 -0.2068
 7187TIP3    H142976   4.815   4.420   3.506  0.1725  1.8935  0.2999
 7187TIP3    H242977   4.681   4.458   3.565 -1.9086 -0.9641 -2.2394
 7188TIP3   OH242978   1.731   0.748   0.223 -0.0907  0.3463 -0.6422
 7188TIP3    H142979   1.774   0.676   0.176 -0.3036  0.4611 -1.0194
 7188TIP3    H242980   1.723   0.817   0.157  1.6746  1.3714  0.1393
 7189TIP3   OH242981   4.206   2.531   5.735 -0.5484  0.0122 -0.2751
 7189TIP3    H142982   4.177   2.446   5.702 -0.0271 -0.2257 -0.1458
 7189TIP3    H242983   4.219   2.516   5.829  1.9678 -0.4930 -0.6282
 7190TIP3   OH242984   0.699   0.006  13.897 -0.2529  0.0626  0.0115
 7190TIP3    H142985   0.703   0.040  13.986  0.2931 -1.4334  0.5882
 7190TIP3    H242986   0.777  -0.049  13.888 -0.7384 -0.5019 -1.0895
 7191TIP3   OH242987   4.557   3.104   3.310  0.0249  0.4687 -0.2818
 7191TIP3    H142988   4.640   3.152   3.311  0.5482 -0.3801  1.3100
 7191TIP3    H242989   4.496   3.162   3.265  1.1127  1.7467 -0.1823
 7192TIP3   OH242990   2.327   3.220  15.687  0.8693  0.2055 -0.0201
 7192TIP3    H142991   2.242   3.180  15.706  1.0327 -0.5186 -0.7266
 7192TIP3    H242992   2.314   3.264  15.603  1.7886 -1.9022 -1.3498
 7193TIP3   OH242993   0.263   2.103   1.841  0.2809 -1.0795  0.3558
 7193TIP3    H142994   0.246   2.063   1.755  0.2844 -1.1587  0.3917
 7193TIP3    H242995   0.345   2.063   1.870  0.5517 -0.6684  0.1651
 7194TIP3   OH242996   1.925   3.543   3.143  0.0607 -0.7073  0.8130
 7194TIP3    H142997   1.932   3.619   3.087 -0.7745 -2.8530 -2.4682
 7194TIP3    H242998   2.011   3.502   3.140 -0.1361 -1.1158  0.6431
 7195TIP3   OH242999   3.328   0.524  11.752  0.2777 -0.0680 -0.3443
 7195TIP3    H143000   3.264   0.594  11.737  0.5247  0.5132  1.1634
 7195TIP3    H243001   3.407   0.570  11.782 -0.4914 -1.0800  3.7562
 7196TIP3   OH243002   1.410   5.917   2.053 -0.1123 -0.1331  0.3822
 7196TIP3    H143003   1.416   5.848   1.986  1.4395 -1.4192  1.7563
 7196TIP3    H243004   1.440   5.996   2.008 -1.1633 -0.4841 -1.0142
 7197TIP3   OH243005   4.503   6.012  14.339  0.0601  0.2654  0.3196
 7197TIP3    H143006   4.519   6.022  14.433 -1.1317 -1.2066  0.7307
 7197TIP3    H243007   4.497   5.917  14.326 -1.1685  0.4868 -0.9758
 7198TIP3   OH243008   1.785   6.490  16.009  0.1805 -0.0157  0.3218
 7198TIP3    H143009   1.785   6.506  16.103  0.7141  1.0583  0.1586
 7198TIP3    H243010   1.839   6.560  15.973  2.2560 -1.8988 -0.5269
 7199TIP3   OH243011   2.289   2.999   2.339  0.1903 -0.2268 -0.3882
 7199TIP3    H143012   2.256   3.044   2.260 -0.5332 -0.1393 -0.0491
 7199TIP3    H243013   2.288   2.906   2.316 -1.4432 -0.3419 -0.0106
 7200TIP3   OH243014   3.805   0.581   6.487  0.2362  0.4193  0.3160
 7200TIP3    H143015   3.761   0.502   6.454  0.6834 -0.1840  1.1163
 7200TIP3    H243016   3.888   0.548   6.523  0.2301  1.1978  1.0593
 7201TIP3   OH243017   6.429   0.170  16.600 -0.5461  0.6785  0.4754
 7201TIP3    H143018   6.521   0.195  16.595 -0.5260  0.4103 -2.9493
 7201TIP3    H243019   6.381   0.253  16.592 -0.6065  0.7201  1.2257
 7202TIP3   OH243020   4.054   3.279  15.370 -0.0226  0.5945 -0.1499
 7202TIP3    H143021   4.051   3.248  15.279  0.9802  0.2978 -0.0965
 7202TIP3    H243022   4.095   3.366  15.365 -0.6533  0.9052 -0.0509
 7203TIP3   OH243023   4.137   0.410   2.938  0.6456  0.6159  0.4134
 7203TIP3    H143024   4.185   0.368   2.867  0.8804 -1.5951  1.7747
 7203TIP3    H243025   4.167   0.365   3.017 -1.2675  1.3918  1.6595
 7204TIP3   OH243026   5.963   3.998  13.931 -0.3946  0.3267  0.0707
 7204TIP3    H143027   6.003   3.994  13.845  0.1329  0.3006  0.3154
 7204TIP3    H243028   5.935   3.908  13.949 -0.8482  0.4014 -0.2263
 7205TIP3   OH243029   1.705   1.735   0.611  0.2677  0.2830 -0.0181
 7205TIP3    H143030   1.624   1.776   0.582  0.8206  0.2570 -1.7460
 7205TIP3    H243031   1.771   1.804   0.603  0.7857 -0.2750 -0.7481
 7206TIP3   OH243032   4.440   0.889  15.704  0.3087  0.6120  0.2695
 7206TIP3    H143033   4.352   0.851  15.710  0.7836 -0.4186  1.0544
 7206TIP3    H243034   4.450   0.911  15.612 -0.8129  0.8553  0.1831
 7207TIP3   OH243035   6.306   1.714   1.050 -0.5185 -0.0292 -0.5208
 7207TIP3    H143036   6.268   1.801   1.038  0.4296  0.9195  2.4972
 7207TIP3    H243037   6.393   1.721   1.009  0.3548  1.1876  1.3844
 7208TIP3   OH243038   2.966   5.426  11.355 -0.4735 -0.0942  0.4762
 7208TIP3    H143039   3.043   5.433  11.298 -1.3856  1.6847 -0.6431
 7208TIP3    H243040   2.950   5.516  11.385 -1.3993 -0.6300  1.6598
 7209TIP3   OH243041   3.431   1.717   4.349  0.0887 -0.6021 -0.7127
 7209TIP3    H143042   3.385   1.638   4.377 -0.2749 -0.6749 -1.4889
 7209TIP3    H243043   3.370   1.761   4.290  0.1433  0.4543  0.0062
 7210TIP3   OH243044   1.565   0.752   0.588  0.5787  0.0197 -0.1291
 7210TIP3    H143045   1.473   0.774   0.597  0.8669  0.8267  1.0498
 7210TIP3    H243046   1.598   0.814   0.523  0.5121  0.4309  0.2250
 7211TIP3   OH243047   4.592   0.234  13.322  0.1943 -0.0534  0.4062
 7211TIP3    H143048   4.578   0.323  13.355  0.7840 -0.1723  1.0141
 7211TIP3    H243049   4.684   0.233  13.294  0.5227 -0.7763  1.4402
 7212TIP3   OH243050   3.828   0.555  16.788  0.1192 -0.2277  0.0055
 7212TIP3    H143051   3.742   0.575  16.751  0.4630 -0.7652 -1.1410
 7212TIP3    H243052   3.890   0.601  16.730  0.6595 -0.7935  0.1273
 7213TIP3   OH243053   0.085   0.061   1.486 -0.0229 -0.0016  0.2250
 7213TIP3    H143054   0.076  -0.034   1.485  1.1103 -0.1300  0.4451
 7213TIP3    H243055   0.003   0.093   1.524 -0.5750 -0.8603 -0.2232
 7214TIP3   OH243056   2.415   4.406  10.580 -0.1086  0.0335 -0.2330
 7214TIP3    H143057   2.342   4.391  10.521 -0.4502  0.6151  0.0372
 7214TIP3    H243058   2.407   4.498  10.606 -0.7725 -0.5308  1.7660
 7215TIP3   OH243059   5.973   0.396  11.383  0.4644 -0.0187  0.2973
 7215TIP3    H143060   5.887   0.366  11.411 -1.2147  2.1722 -2.0115
 7215TIP3    H243061   6.001   0.333  11.317  0.3449 -0.3535  0.5617
 7216TIP3   OH243062   2.107   1.815  16.824 -0.1821 -0.2423  0.2067
 7216TIP3    H143063   2.173   1.784  16.887  0.9673  2.2195  0.3794
 7216TIP3    H243064   2.146   1.797  16.739 -0.2672 -0.6973  0.2614
 7217TIP3   OH243065   2.868   3.775  13.058  0.3469  0.1520  0.1904
 7217TIP3    H143066   2.958   3.741  13.062  0.1419 -0.2676  1.6457
 7217TIP3    H243067   2.862   3.814  12.971  1.5289 -0.9591 -0.4384
 7218TIP3   OH243068   2.252   6.202  15.004 -0.0256  0.2667 -0.2980
 7218TIP3    H143069   2.338   6.205  15.045 -0.0173  0.5944 -0.3322
 7218TIP3    H243070   2.266   6.233  14.914 -0.1746  0.3255 -0.3031
 7219TIP3   OH243071   3.294   5.498   1.329  0.0451 -0.0737 -0.0990
 7219TIP3    H143072   3.285   5.411   1.291 -1.0356 -0.4732  0.9925
 7219TIP3    H243073   3.349   5.485   1.407  0.3664  0.3353 -0.2504
 7220TIP3   OH243074   2.514   6.748   2.721  0.1531 -0.2198 -0.1737
 7220TIP3    H143075   2.463   6.734   2.641  1.4671 -1.1164 -0.8979
 7220TIP3    H243076   2.604   6.731   2.695  0.7828  0.8213  1.1864
 7221TIP3   OH243077   6.069   2.924   2.535  1.0925  0.3919  1.0222
 7221TIP3    H143078   6.064   3.011   2.495 -0.7180  1.5679  3.5333
 7221TIP3    H243079   5.997   2.875   2.495  1.5718  0.3142  0.2378
 7222TIP3   OH243080   4.550   6.671  16.303  0.4657 -0.1229 -0.0969
 7222TIP3    H143081   4.553   6.714  16.389 -0.9056  0.1716 -0.1736
 7222TIP3    H243082   4.629   6.701  16.258  0.7954  0.3442  0.7710
 7223TIP3   OH243083   6.340   5.219   4.316  0.4407 -0.0900  0.3092
 7223TIP3    H143084   6.374   5.287   4.258 -0.1705 -0.3288 -0.3366
 7223TIP3    H243085   6.262   5.258   4.355 -0.5169 -0.7750 -0.8641
 7224TIP3   OH243086   5.227   2.959  16.173  0.7088 -0.3495 -0.0145
 7224TIP3    H143087   5.281   2.882  16.158  0.6990 -0.1774 -1.0244
 7224TIP3    H243088   5.235   2.976  16.267  1.5323 -0.9611  0.0403
 7225TIP3   OH243089   0.626   4.352   2.103 -0.1923 -0.1353  0.3513
 7225TIP3    H143090   0.670   4.277   2.063  0.0784 -1.2292  2.5455
 7225TIP3    H243091   0.560   4.314   2.160 -1.0065  1.3635  0.4578
 7226TIP3   OH243092   4.362   2.493   5.215  0.3381 -0.2558  0.1933
 7226TIP3    H143093   4.309   2.529   5.286  1.2256  0.0292  0.7260
 7226TIP3    H243094   4.452   2.498   5.247  0.7947  0.1767 -1.0646
 7227TIP3   OH243095   5.992   4.339   0.872  0.5529 -0.4488  0.2005
 7227TIP3    H143096   6.056   4.347   0.801 -1.0812  1.5416 -1.1763
 7227TIP3    H243097   6.041   4.365   0.951  1.9090 -0.7995 -0.4960
 7228TIP3   OH243098   5.176   2.741   6.073 -0.1312  0.7678  0.4904
 7228TIP3    H143099   5.176   2.655   6.030  1.1648  0.3747  1.2084
 7228TIP3    H243100   5.255   2.740   6.128  1.3924  3.3783 -1.4044
 7229TIP3   OH243101   2.885   2.408  11.727  0.3421 -0.0486 -0.5505
 7229TIP3    H143102   2.818   2.343  11.748  0.9969 -0.7383 -0.5696
 7229TIP3    H243103   2.960   2.385  11.782  0.9924 -0.0245 -1.3942
 7230TIP3   OH243104   5.653   1.102  14.137 -0.1782  0.3986  0.0921
 7230TIP3    H143105   5.743   1.071  14.150 -0.2033 -0.0988 -0.8629
 7230TIP3    H243106   5.662   1.186  14.093 -0.1796  0.4136  0.1206
 7231TIP3   OH243107   6.687   0.948  16.792  0.0584 -0.3611  0.0450
 7231TIP3    H143108   6.605   0.991  16.768  1.0595  0.4241 -2.1791
 7231TIP3    H243109   6.711   0.988  16.876  0.2081  2.4605 -1.2545
 7232TIP3   OH243110   1.718   4.712  12.697 -0.6136  0.3806  0.8284
 7232TIP3    H143111   1.689   4.736  12.609  0.6801  0.2159  0.3370
 7232TIP3    H243112   1.647   4.740  12.755 -0.6442  2.2882 -0.0576
 7233TIP3   OH243113   5.270   6.602  15.280  0.4350 -0.4372 -0.5885
 7233TIP3    H143114   5.266   6.685  15.233  0.0128  0.7705  1.4814
 7233TIP3    H243115   5.182   6.590  15.315  1.6079  0.7974  3.2038
 7234TIP3   OH243116   0.186   6.661  15.811  0.5843  0.3062  0.3345
 7234TIP3    H143117   0.269   6.671  15.764 -0.9960  2.2184 -2.4063
 7234TIP3    H243118   0.171   6.746  15.851 -0.1381  0.0519  0.6139
 7235TIP3   OH243119   6.729   4.935   5.018  0.3915 -0.5572  0.3315
 7235TIP3    H143120   6.645   4.947   5.063  1.0020 -0.3587  1.4232
 7235TIP3    H243121   6.724   4.845   4.985 -1.4286  0.3252 -2.1618
 7236TIP3   OH243122   0.069   1.634   5.327  0.5473 -0.0730  0.5974
 7236TIP3    H143123  -0.001   1.615   5.265 -0.6790  0.8324  1.6563
 7236TIP3    H243124   0.035   1.706   5.381  1.9645 -0.1653  1.6782
 7237TIP3   OH243125   2.960   3.605  12.760 -0.6678  0.4771 -0.3943
 7237TIP3    H143126   3.011   3.675  12.802 -3.9487  2.0565  1.3323
 7237TIP3    H243127   2.974   3.529  12.816  2.6416 -0.3308 -2.0755
 7238TIP3   OH243128   5.311   1.572  16.447  0.0721 -0.0161 -0.0944
 7238TIP3    H143129   5.391   1.612  16.413  1.4342 -1.9091  0.7385
 7238TIP3    H243130   5.294   1.498  16.389 -1.6268  0.8456 -0.7800
 7239TIP3   OH243131   6.423   3.185   0.208 -0.4404  0.4526 -0.1615
 7239TIP3    H143132   6.382   3.142   0.282  0.2941 -0.2700 -0.1570
 7239TIP3    H243133   6.368   3.163   0.133  0.0577 -0.7459 -0.2052
 7240TIP3   OH243134   4.705   1.619  16.934 -0.2857  0.7509  0.3342
 7240TIP3    H143135   4.794   1.643  16.961  0.5075  2.5503 -3.1800
 7240TIP3    H243136   4.656   1.701  16.941 -1.4897 -0.0323  1.4213
 7241TIP3   OH243137   5.217   3.088   3.300 -0.0860  0.0677  0.1721
 7241TIP3    H143138   5.239   3.177   3.329  2.4609 -0.2049 -0.6963
 7241TIP3    H243139   5.186   3.044   3.379  0.5492  1.1508  1.0581
 7242TIP3   OH243140   3.820   2.557  14.324 -0.5624  0.4411  0.1377
 7242TIP3    H143141   3.877   2.587  14.254  0.8864  2.0258  1.8819
 7242TIP3    H243142   3.758   2.629  14.338 -1.0460  0.0067  0.2810
 7243TIP3   OH243143   1.597   2.315  15.722  0.6341  0.1405  0.2079
 7243TIP3    H143144   1.605   2.243  15.659  0.3197 -0.4160  0.7878
 7243TIP3    H243145   1.506   2.344  15.714  0.8284  0.6506 -0.2050
 7244TIP3   OH243146   3.259   0.585   2.789 -0.0919 -0.0600  0.7144
 7244TIP3    H143147   3.240   0.642   2.864  0.8753  1.4858 -0.1415
 7244TIP3    H243148   3.326   0.525   2.821  0.3699  0.6388  1.1034
 7245TIP3   OH243149   3.864   3.110   5.138 -0.0446 -1.0438 -0.1981
 7245TIP3    H143150   3.854   3.063   5.221 -0.3106  0.7629  0.8487
 7245TIP3    H243151   3.839   3.200   5.159  1.2927 -0.2304 -1.9085
 7246TIP3   OH243152   6.365   2.175  11.610  0.1905  0.4583 -0.2039
 7246TIP3    H143153   6.424   2.245  11.639  1.3590  0.3199 -2.0262
 7246TIP3    H243154   6.330   2.207  11.527 -2.8690  0.7845  1.0882
 7247TIP3   OH243155   4.915   2.434   1.647  0.0458 -0.2483  0.2974
 7247TIP3    H143156   4.975   2.482   1.590  0.1497  0.5392  1.0516
 7247TIP3    H243157   4.937   2.341   1.633  0.8887 -0.0085 -0.0330
 7248TIP3   OH243158   5.501   4.082  15.346  0.0368 -0.5268  0.0353
 7248TIP3    H143159   5.445   4.123  15.280  0.3002  0.5173  0.4383
 7248TIP3    H243160   5.587   4.078  15.306  0.6622  1.9116  0.9572
 7249TIP3   OH243161   0.957   4.041   1.310  0.1480 -0.0154 -0.1245
 7249TIP3    H143162   0.890   3.984   1.346 -0.2555  0.7001  0.2768
 7249TIP3    H243163   1.038   4.011   1.351 -0.0612 -0.2837  0.0985
 7250TIP3   OH243164   1.663   5.319   1.909 -0.7010 -0.1783 -0.1897
 7250TIP3    H143165   1.685   5.232   1.874 -0.9650 -0.1754 -0.3630
 7250TIP3    H243166   1.678   5.311   2.003  0.6837  0.0146 -0.3625
 7251TIP3   OH243167   4.468   5.093   6.288  0.4189 -0.1569 -0.0119
 7251TIP3    H143168   4.535   5.031   6.316  1.0207  1.1342  1.5982
 7251TIP3    H243169   4.510   5.179   6.298 -1.0252  0.6113 -0.2907
 7252TIP3   OH243170   1.860   2.176  14.207  0.0844  0.0390 -0.9254
 7252TIP3    H143171   1.768   2.198  14.217 -0.5025 -1.4280 -2.5704
 7252TIP3    H243172   1.892   2.236  14.140 -0.1180 -0.5048 -1.5207
 7253TIP3   OH243173   3.333   1.745   3.123  0.0648  0.8116 -0.1799
 7253TIP3    H143174   3.406   1.741   3.061 -0.5311 -0.6743 -0.8420
 7253TIP3    H243175   3.341   1.831   3.164  1.0138  1.4691 -1.6575
 7254TIP3   OH243176   2.454   4.471  14.646  0.1044 -0.5646  0.2703
 7254TIP3    H143177   2.418   4.516  14.570 -1.1148  1.0207  1.6775
 7254TIP3    H243178   2.394   4.398  14.661  0.4614 -0.9976 -0.3853
 7255TIP3   OH243179   3.235   3.122  14.534 -0.5164  0.3059  0.4216
 7255TIP3    H143180   3.170   3.075  14.586 -2.1580  0.5349 -1.3539
 7255TIP3    H243181   3.189   3.197  14.498  0.4902  0.0312 -1.5583
 7256TIP3   OH243182   2.348   2.676  13.684 -0.2905  0.1521  0.1480
 7256TIP3    H143183   2.421   2.625  13.720 -0.1420  0.8996  0.9184
 7256TIP3    H243184   2.389   2.735  13.620 -0.6226 -1.5859 -1.7726
 7257TIP3   OH243185   3.840   5.609  15.584 -0.2590 -0.6606 -0.8624
 7257TIP3    H143186   3.785   5.676  15.543  0.3573  0.7528  0.4961
 7257TIP3    H243187   3.914   5.599  15.524 -1.1717 -1.4035 -1.9074
 7258TIP3   OH243188   3.333   1.562  13.578 -0.1898 -0.4999  0.5378
 7258TIP3    H143189   3.257   1.577  13.523  0.2284  0.8646  0.2996
 7258TIP3    H243190   3.308   1.489  13.635 -1.7399  0.0553  0.5988
 7259TIP3   OH243191   0.628   6.390   3.862 -0.1294  0.5086  0.0408
 7259TIP3    H143192   0.564   6.401   3.791  1.6331 -1.3919 -2.0040
 7259TIP3    H243193   0.668   6.476   3.872 -0.4037  0.8239 -1.3436
 7260TIP3   OH243194   5.781   6.064  15.925 -0.3532  0.5498  0.3209
 7260TIP3    H143195   5.725   6.059  16.002 -0.1407 -1.9096  0.4045
 7260TIP3    H243196   5.857   6.116  15.952 -0.2283 -0.3718  1.8102
 7261TIP3   OH243197   6.155   4.075  16.202 -0.0074  0.7597  1.0273
 7261TIP3    H143198   6.215   4.055  16.130 -1.1573  1.7743 -0.2774
 7261TIP3    H243199   6.093   4.001  16.203 -1.5495  1.9235 -0.8153
 7262TIP3   OH243200   4.766   6.405   0.534  1.0188 -0.2775 -0.0022
 7262TIP3    H143201   4.837   6.447   0.487  1.1446  0.9391  1.2070
 7262TIP3    H243202   4.689   6.418   0.477  1.5494 -0.7354 -0.8487
 7263TIP3   OH243203   5.285   4.143   3.890  0.3198 -0.9596 -0.0798
 7263TIP3    H143204   5.284   4.080   3.818 -0.2091  0.0387 -0.9743
 7263TIP3    H243205   5.351   4.208   3.864  0.9267 -1.1692  0.8740
 7264TIP3   OH243206   2.473   5.080   0.779 -0.0033 -0.0703  0.2800
 7264TIP3    H143207   2.563   5.048   0.789  0.3094  0.9023  0.7603
 7264TIP3    H243208   2.419   5.014   0.822  0.6624  0.2579  1.6971
 7265TIP3   OH243209   0.596   6.463  13.382  0.6202 -0.1335 -0.4586
 7265TIP3    H143210   0.589   6.538  13.322  2.5586 -0.0309 -0.6237
 7265TIP3    H243211   0.506   6.434  13.394 -0.0871  1.5772 -1.2159
 7266TIP3   OH243212   0.336   5.577   0.733 -0.7461  0.3587 -0.6804
 7266TIP3    H143213   0.422   5.568   0.773 -0.7390 -0.8799 -0.9385
 7266TIP3    H243214   0.304   5.487   0.723 -2.2073  0.8040 -0.2960
 7267TIP3   OH243215   1.558   4.498   3.179  0.1611 -0.2050  0.2349
 7267TIP3    H143216   1.626   4.548   3.134 -0.1617 -1.4114 -1.6958
 7267TIP3    H243217   1.503   4.565   3.220  1.9293  0.8359  1.0438
 7268TIP3   OH243218   1.366   1.765  11.876 -0.0843  0.4087  0.3356
 7268TIP3    H143219   1.378   1.747  11.969 -3.3813 -1.1949  0.5955
 7268TIP3    H243220   1.333   1.855  11.873 -0.4985  0.2725  0.7841
 7269TIP3   OH243221   1.002   1.874  16.308 -0.0181 -0.5315 -0.1753
 7269TIP3    H143222   0.928   1.822  16.338 -1.8822  0.8651 -2.0780
 7269TIP3    H243223   0.979   1.964  16.333  1.9848 -0.2573  0.8865
 7270TIP3   OH243224   5.051   2.873  15.178 -0.1109  0.0589  0.0511
 7270TIP3    H143225   5.137   2.889  15.215  0.9088 -1.4022 -1.5679
 7270TIP3    H243226   5.020   2.960  15.151  0.9097  0.5723  0.4869
 7271TIP3   OH243227   1.326   3.545  16.614 -0.1663 -0.7106 -0.3368
 7271TIP3    H143228   1.254   3.573  16.558  0.9670  1.0681 -0.9822
 7271TIP3    H243229   1.402   3.541  16.556  1.2141  1.9342  1.1057
 7272TIP3   OH243230   1.031   2.419  12.030 -0.0034 -0.2976 -0.3608
 7272TIP3    H143231   1.126   2.427  12.022  0.1315 -0.1995  1.0797
 7272TIP3    H243232   0.999   2.426  11.940  1.3196  0.0537 -0.8322
 7273TIP3   OH243233   4.697   0.335   4.894  0.1953  0.0144  0.3991
 7273TIP3    H143234   4.739   0.325   4.979  2.3127 -0.0445 -0.5853
 7273TIP3    H243235   4.693   0.246   4.858  0.0939  0.1411  0.0882
 7274TIP3   OH243236   2.514   5.738  13.235 -0.0256 -0.3331 -0.4634
 7274TIP3    H143237   2.606   5.712  13.229  0.2846  0.8078 -0.9187
 7274TIP3    H243238   2.508   5.817  13.182 -0.6321  1.3178  1.9045
 7275TIP3   OH243239   3.652   1.656   3.313  0.4089  0.3177 -0.2737
 7275TIP3    H143240   3.579   1.695   3.362  0.3238  0.4337 -0.4933
 7275TIP3    H243241   3.694   1.597   3.376  1.1288  1.4773  0.3615
 7276TIP3   OH243242   6.057   3.712  13.832  0.3187 -0.0955 -0.0490
 7276TIP3    H143243   5.970   3.680  13.810 -0.0310  1.1973 -0.6103
 7276TIP3    H243244   6.112   3.686  13.758  0.2056 -0.0827 -0.1378
 7277TIP3   OH243245   3.358   0.904  12.851  0.7326 -0.2679  0.1316
 7277TIP3    H143246   3.368   0.998  12.867  0.6608 -0.3349  0.6088
 7277TIP3    H243247   3.442   0.876  12.817  0.7374 -0.0187 -0.0638
 7278TIP3   OH243248   2.906   5.396  16.359 -0.0496  0.4202  0.9918
 7278TIP3    H143249   2.867   5.348  16.287 -1.0906  1.8575  0.5548
 7278TIP3    H243250   2.895   5.339  16.435 -1.6310  0.1284  0.5729
 7279TIP3   OH243251   2.560   0.695  16.663  0.4356 -0.0725 -0.2717
 7279TIP3    H143252   2.482   0.657  16.624  0.0654 -0.1914  0.5714
 7279TIP3    H243253   2.558   0.787  16.636  0.7666 -0.3863 -1.4237
 7280TIP3   OH243254   6.311   2.009   2.346  0.0474  0.5622 -0.3460
 7280TIP3    H143255   6.334   1.961   2.426 -2.8135 -1.5375 -0.6423
 7280TIP3    H243256   6.285   2.096   2.377  3.7637  1.6129  0.3658
 7281TIP3   OH243257   6.663   1.066   1.364 -0.4336 -0.1073 -0.3870
 7281TIP3    H143258   6.730   1.018   1.316  0.6045  0.8054  0.1220
 7281TIP3    H243259   6.633   1.003   1.431  0.7731 -0.1483  0.1474
 7282TIP3   OH243260   5.709   6.740  11.605  0.2477  0.0139  0.7738
 7282TIP3    H143261   5.671   6.736  11.518  1.4963 -0.0928  0.2027
 7282TIP3    H243262   5.689   6.828  11.636  0.3829  0.2943  0.0854
 7283TIP3   OH243263   2.403   0.830   1.243  0.3474 -0.1664 -0.4041
 7283TIP3    H143264   2.393   0.738   1.216  0.1496  0.0029 -0.9074
 7283TIP3    H243265   2.478   0.862   1.193  1.3761 -0.4756  0.8947
 7284TIP3   OH243266   3.906   4.503  13.530 -0.0555 -0.1628  0.1029
 7284TIP3    H143267   3.861   4.550  13.600 -0.7760 -0.7487  0.0414
 7284TIP3    H243268   3.985   4.555  13.513 -1.2832  1.5800 -0.6316
 7285TIP3   OH243269   2.661   4.266   6.473 -0.3625 -1.1419 -0.3866
 7285TIP3    H143270   2.649   4.320   6.395 -2.7862 -0.2476  0.5095
 7285TIP3    H243271   2.583   4.212   6.478  0.0202 -1.6231  1.0981
 7286TIP3   OH243272   4.260   1.966  12.847  0.1916  0.9589  0.3428
 7286TIP3    H143273   4.289   1.974  12.756  1.7442  0.5663  0.7669
 7286TIP3    H243274   4.281   2.051  12.886  0.3460  0.8286  0.5449
 7287TIP3   OH243275   0.961   0.537  13.063 -0.2467 -0.0605 -0.2945
 7287TIP3    H143276   1.055   0.530  13.046 -0.1606 -0.2352  0.2537
 7287TIP3    H243277   0.944   0.473  13.132 -0.9859 -0.8666 -1.1909
 7288TIP3   OH243278   1.477   3.349  14.070  0.0430  0.1328  0.0718
 7288TIP3    H143279   1.445   3.307  14.149  2.3765 -1.6753  0.1310
 7288TIP3    H243280   1.399   3.356  14.014 -1.4887  0.7852  2.1715
 7289TIP3   OH243281   1.661   4.709  11.282  0.0277 -0.3325  0.3812
 7289TIP3    H143282   1.723   4.749  11.221 -0.6929  0.4782  0.1657
 7289TIP3    H243283   1.624   4.782  11.330  0.4133 -0.9462  1.6503
 7290TIP3   OH243284   3.235   6.369  16.845 -0.0084 -0.6092 -0.7433
 7290TIP3    H143285   3.249   6.424  16.768  0.4021 -1.1629 -1.0710
 7290TIP3    H243286   3.290   6.293  16.830  0.8705 -0.2689  0.5740
 7291TIP3   OH243287   5.837   4.547  15.564 -0.2753  0.6052  0.3383
 7291TIP3    H143288   5.913   4.490  15.553 -1.4853 -0.9969  0.0031
 7291TIP3    H243289   5.783   4.531  15.486 -1.4458  0.9344  1.0610
 7292TIP3   OH243290   2.523   0.252   0.733  0.2793  0.1380  0.1923
 7292TIP3    H143291   2.442   0.302   0.719  0.2369 -0.0750 -0.3484
 7292TIP3    H243292   2.590   0.319   0.751  0.3146  0.4319 -0.9495
 7293TIP3   OH243293   4.910   5.262   1.585 -0.1665  0.0873  0.5951
 7293TIP3    H143294   4.888   5.323   1.655 -0.4233 -1.1737  1.6664
 7293TIP3    H243295   4.836   5.267   1.524  0.1419  1.3270  0.3003
 7294TIP3   OH243296   2.152   1.067   2.854 -0.9532  0.0188 -0.4343
 7294TIP3    H143297   2.072   1.030   2.892 -0.1492 -2.5809 -1.0653
 7294TIP3    H243298   2.135   1.066   2.759 -0.4709  0.2584 -0.5244
 7295TIP3   OH243299   1.986   4.487  16.487 -0.1771 -0.9315  0.1034
 7295TIP3    H143300   2.002   4.403  16.444 -0.2910 -1.9513  1.9504
 7295TIP3    H243301   1.930   4.466  16.561 -0.1170  0.7745  0.6725
 7296TIP3   OH243302   4.854   1.237  15.300 -0.2861  0.0509 -0.0541
 7296TIP3    H143303   4.887   1.294  15.370  0.6982 -1.3008  0.6259
 7296TIP3    H243304   4.857   1.149  15.337  1.9561 -0.9739 -2.3138
 7297TIP3   OH243305   4.359   3.232   0.044  0.3359 -0.3939 -0.2452
 7297TIP3    H143306   4.310   3.168   0.097  0.8004 -0.0385  0.6271
 7297TIP3    H243307   4.401   3.289   0.108  1.8966 -0.6782 -0.9803
 7298TIP3   OH243308   5.493   0.987   0.509 -1.1024  0.0841 -0.2537
 7298TIP3    H143309   5.483   1.078   0.539 -1.1069  0.3554 -1.0492
 7298TIP3    H243310   5.585   0.979   0.485 -1.2938  0.1509 -1.0300
 7299TIP3   OH243311   5.695   5.444   0.436  0.8145 -0.0388  0.0416
 7299TIP3    H143312   5.603   5.469   0.443  0.9505  0.7909 -0.9346
 7299TIP3    H243313   5.740   5.501   0.499  0.5312 -1.3820  1.5320
 7300TIP3   OH243314   3.332   3.220   2.648 -0.1437 -0.8609 -0.5432
 7300TIP3    H143315   3.421   3.187   2.636 -0.0989 -0.6772 -0.7165
 7300TIP3    H243316   3.322   3.288   2.581  0.2753  0.4974  0.7135
 7301TIP3   OH243317   5.922   6.441   2.718  0.1654 -0.1726  0.3256
 7301TIP3    H143318   5.835   6.456   2.682 -0.1086  0.8785  1.3754
 7301TIP3    H243319   5.910   6.370   2.781  0.3317 -0.8906 -0.4293
 7302TIP3   OH243320   6.347   3.480   4.194  0.3727 -0.0494 -0.1896
 7302TIP3    H143321   6.335   3.388   4.174 -2.0451  0.0400  0.4983
 7302TIP3    H243322   6.349   3.484   4.290  1.3728  0.5287 -0.2211
 7303TIP3   OH243323   6.678   0.619   0.182 -0.1601 -0.0580 -0.1135
 7303TIP3    H143324   6.746   0.685   0.189 -1.0272  1.0551 -1.5377
 7303TIP3    H243325   6.602   0.657   0.226 -0.0079 -1.1443  1.1611
 7304TIP3   OH243326   5.741   2.920   4.207  0.3781 -0.5974  0.1009
 7304TIP3    H143327   5.819   2.874   4.175  0.1570  0.2137 -1.7079
 7304TIP3    H243328   5.747   3.007   4.169 -0.9843 -0.2497  0.6327
 7305TIP3   OH243329   1.226   0.845   6.216  0.2260 -0.8612 -0.0696
 7305TIP3    H143330   1.131   0.846   6.209  0.0577  0.0839  1.7697
 7305TIP3    H243331   1.249   0.753   6.202 -0.8256 -0.9221 -1.6316
 7306TIP3   OH243332   5.299   2.836   4.816 -0.6131  0.5027 -0.6654
 7306TIP3    H143333   5.260   2.922   4.829 -0.1129  0.6825 -0.3654
 7306TIP3    H243334   5.248   2.798   4.744  0.6658  1.9713 -2.4141
 7307TIP3   OH243335   5.210   0.357  12.194  0.6339 -0.5141  0.4168
 7307TIP3    H143336   5.239   0.413  12.121 -0.2966  0.6728  0.9206
 7307TIP3    H243337   5.288   0.307  12.218  1.1083 -0.5291 -1.0260
 7308TIP3   OH243338   6.387   0.356  11.924 -0.0092  0.5499 -0.1463
 7308TIP3    H143339   6.394   0.385  12.015 -0.7708  2.5773 -0.6769
 7308TIP3    H243340   6.475   0.325  11.902  0.4552  1.0221  0.9649
 7309TIP3   OH243341   4.676   3.257  10.903  0.3389  0.3204 -0.3510
 7309TIP3    H143342   4.745   3.278  10.840  0.6698 -0.6624 -0.3403
 7309TIP3    H243343   4.719   3.268  10.988  0.4655 -0.1862 -0.3427
 7310TIP3   OH243344   6.309   2.040  12.880 -0.3815 -0.1556  0.5211
 7310TIP3    H143345   6.286   2.023  12.789  0.5614 -0.8370  0.4017
 7310TIP3    H243346   6.252   1.980  12.930  2.2426 -3.2249  0.1416
 7311TIP3   OH243347   3.078   1.824  16.850 -0.7167 -0.0804  0.3789
 7311TIP3    H143348   3.044   1.789  16.932  1.6763 -3.6765  0.0472
 7311TIP3    H243349   3.173   1.812  16.855 -0.1882  2.0201 -1.9288
 7312TIP3   OH243350   3.671   0.351   6.412 -0.1006 -0.5127 -0.1588
 7312TIP3    H143351   3.605   0.399   6.362 -0.6112 -1.1854 -0.1419
 7312TIP3    H243352   3.703   0.283   6.351  1.0994  0.2440 -0.4131
 7313TIP3   OH243353   4.958   1.454   0.266 -0.4292  0.2976  0.5531
 7313TIP3    H143354   4.863   1.451   0.254 -0.3717  1.8254 -0.5783
 7313TIP3    H243355   4.971   1.436   0.359 -1.6546 -1.9726  0.3424
 7314TIP3   OH243356   0.474   1.612  12.049 -0.0620  0.2075  0.0652
 7314TIP3    H143357   0.555   1.561  12.046  1.0554  1.9363 -1.3661
 7314TIP3    H243358   0.495   1.687  12.106 -1.1537 -0.0589  0.8631
 7315TIP3   OH243359   5.789   1.750   0.633 -0.4201  0.9251 -0.5841
 7315TIP3    H143360   5.790   1.765   0.538  3.2103 -0.6471 -0.9671
 7315TIP3    H243361   5.729   1.676   0.644 -2.6819  2.5533 -1.2550
 7316TIP3   OH243362   0.443   3.151   5.973 -0.2535 -0.5863 -0.2034
 7316TIP3    H143363   0.426   3.089   5.902  0.7395  0.0715 -1.0394
 7316TIP3    H243364   0.490   3.099   6.039 -2.4727 -1.5858  0.7018
 7317TIP3   OH243365   3.331   0.075  11.324 -0.1560  0.5268 -0.1377
 7317TIP3    H143366   3.417   0.082  11.284  0.3579  1.0113  0.9881
 7317TIP3    H243367   3.311   0.164  11.354 -0.0130  0.0024  1.6189
 7318TIP3   OH243368   5.656   3.036  15.981  0.0094 -0.2975 -0.0584
 7318TIP3    H143369   5.631   3.087  15.903 -3.8418 -0.3326  0.9707
 7318TIP3    H243370   5.720   3.092  16.026 -2.0440  2.5180 -0.3360
 7319TIP3   OH243371   5.038   5.830   2.012 -0.1280  0.2101 -0.4114
 7319TIP3    H143372   5.115   5.879   1.981 -0.4988  0.7860 -0.4249
 7319TIP3    H243373   5.012   5.875   2.092 -0.3891 -0.0548 -0.3484
 7320TIP3   OH243374   6.321   0.103  13.189 -0.1511  0.4891 -0.5025
 7320TIP3    H143375   6.299   0.124  13.280  0.2240  1.1332 -0.5572
 7320TIP3    H243376   6.258   0.152  13.137 -0.6103 -0.1785 -0.5902
 7321TIP3   OH243377   4.559   5.611   5.972 -0.6971 -0.7393 -0.2188
 7321TIP3    H143378   4.478   5.661   5.963 -1.5929 -2.1830 -0.5880
 7321TIP3    H243379   4.575   5.608   6.067 -0.5400  0.3399 -0.1995
 7322TIP3   OH243380   6.119   6.207   5.618 -0.4001  0.0279 -0.2096
 7322TIP3    H143381   6.039   6.200   5.566  0.3375 -0.7715 -1.2701
 7322TIP3    H243382   6.095   6.265   5.691 -1.8041  0.1691 -0.7547
 7323TIP3   OH243383   5.445   5.457  16.315 -0.5324  0.4011 -0.2327
 7323TIP3    H143384   5.366   5.496  16.278 -1.4628 -1.8798 -0.7842
 7323TIP3    H243385   5.413   5.394  16.379  0.8809  0.1289  0.2381
 7324TIP3   OH243386   5.721   5.168  12.981  0.1890  0.2139 -0.4145
 7324TIP3    H143387   5.677   5.091  13.017  0.9158  0.3375  0.8051
 7324TIP3    H243388   5.712   5.159  12.886  0.8615 -1.7465 -0.3307
 7325TIP3   OH243389   3.757   6.120  13.825 -0.0676  0.1559 -0.5108
 7325TIP3    H143390   3.739   6.178  13.898 -0.3895 -0.1904 -0.3117
 7325TIP3    H243391   3.832   6.159  13.781  0.0738  0.4115 -0.0475
 7326TIP3   OH243392   3.902   1.405   2.615  0.1283 -0.7997  0.1634
 7326TIP3    H143393   3.913   1.377   2.706  1.6144  2.3816  1.1052
 7326TIP3    H243394   3.991   1.413   2.582 -0.3499 -0.3669 -1.0552
 7327TIP3   OH243395   5.499   3.321   4.180  0.4049  0.3749 -0.2660
 7327TIP3    H143396   5.488   3.313   4.275  2.3449 -0.3846 -0.0718
 7327TIP3    H243397   5.529   3.411   4.167 -0.4104  0.6622 -0.2445
 7328TIP3   OH243398   1.633   0.269   5.852 -0.2367 -0.1898  0.0488
 7328TIP3    H143399   1.674   0.193   5.894  1.2752  0.8934  0.6572
 7328TIP3    H243400   1.689   0.343   5.877 -1.5760  1.1140 -0.6316
 7329TIP3   OH243401   4.729   2.568  10.567 -0.1335  0.0779  0.2175
 7329TIP3    H143402   4.648   2.539  10.524  1.1881 -1.5056 -1.3294
 7329TIP3    H243403   4.798   2.548  10.504  1.4520  1.8002  1.3179
 7330TIP3   OH243404   5.238   2.452   2.966 -0.1532 -0.3652  0.2999
 7330TIP3    H143405   5.185   2.398   2.907 -1.1955 -0.3335  1.1782
 7330TIP3    H243406   5.174   2.506   3.012  0.6616 -0.2327  1.3013
 7331TIP3   OH243407   1.063   3.408  15.319  0.2671 -0.5394  0.0904
 7331TIP3    H143408   1.092   3.455  15.240  0.0714  0.0220  0.3492
 7331TIP3    H243409   1.131   3.427  15.384 -0.3166  0.2200  0.4951
 7332TIP3   OH243410   2.203   1.150   4.728  0.2281 -0.2381  0.0101
 7332TIP3    H143411   2.149   1.222   4.760  0.1425 -0.7684  1.1035
 7332TIP3    H243412   2.292   1.174   4.754  0.3194 -0.0829 -0.4481
 7333TIP3   OH243413   3.761   3.651   0.215  0.0690  0.4487  0.4837
 7333TIP3    H143414   3.844   3.674   0.257  1.0722 -0.1662 -1.0821
 7333TIP3    H243415   3.696   3.665   0.283  1.4855  0.6019  1.8785
 7334TIP3   OH243416   2.387   6.049   2.938  0.2392  0.0442  0.1295
 7334TIP3    H143417   2.360   5.974   2.990  1.0474  0.0374  0.5669
 7334TIP3    H243418   2.399   6.119   3.002  2.2412 -0.2369  0.1442
 7335TIP3   OH243419   5.400   1.112  15.718  0.3065 -0.4145  0.2242
 7335TIP3    H143420   5.429   1.036  15.667 -0.0640  0.1787 -0.9055
 7335TIP3    H243421   5.481   1.161  15.734  0.9297 -2.0380  2.8104
 7336TIP3   OH243422   2.337   1.491  16.600 -0.3496  0.4512  0.0676
 7336TIP3    H143423   2.372   1.456  16.517 -0.9370  0.4257 -0.1721
 7336TIP3    H243424   2.380   1.439  16.668  2.0581  2.0933 -0.0699
 7337TIP3   OH243425   2.225   4.653   0.068  0.0348  0.0514 -0.1008
 7337TIP3    H143426   2.176   4.580   0.029 -2.0120  1.1463  0.2559
 7337TIP3    H243427   2.263   4.699  -0.006  1.8176 -1.6125 -0.3032
 7338TIP3   OH243428   6.439   5.058   1.206  0.0255 -0.2941  0.3798
 7338TIP3    H143429   6.369   5.018   1.258  0.3985 -0.7181  0.5536
 7338TIP3    H243430   6.483   4.984   1.165  0.0918  0.0035 -0.0918
 7339TIP3   OH243431   0.689   1.947   3.704 -0.0063  0.4738 -0.2405
 7339TIP3    H143432   0.735   2.007   3.645  2.0068 -1.0590 -0.3207
 7339TIP3    H243433   0.701   1.861   3.665 -1.5748 -0.1985  0.6565
 7340TIP3   OH243434   4.149   3.781  15.734  0.5506 -0.2864  0.6696
 7340TIP3    H143435   4.126   3.843  15.803 -0.9055 -1.5181  1.3592
 7340TIP3    H243436   4.215   3.826  15.682 -0.6660  1.9514  0.9485
 7341TIP3   OH243437   0.580   1.449  16.492 -0.0730 -0.7631 -0.2600
 7341TIP3    H143438   0.519   1.437  16.420 -1.1197 -3.1545  0.9150
 7341TIP3    H243439   0.624   1.365  16.501 -1.4720 -1.2989  3.1431
 7342TIP3   OH243440   5.990   6.399   0.716  0.3049  0.7241  0.6096
 7342TIP3    H143441   5.976   6.311   0.751 -2.0686  0.4706 -0.7995
 7342TIP3    H243442   5.941   6.456   0.775 -0.5206  0.7479 -0.0934
 7343TIP3   OH243443   4.447   0.661   4.758  0.7043  0.4956  0.1395
 7343TIP3    H143444   4.433   0.573   4.793 -3.2596  0.1317 -1.7707
 7343TIP3    H243445   4.415   0.719   4.827  1.6360  0.3688  0.6922
 7344TIP3   OH243446   3.215   4.519  11.663  0.7112 -0.1328  0.2541
 7344TIP3    H143447   3.220   4.577  11.739  0.0813 -1.2074  1.1439
 7344TIP3    H243448   3.130   4.477  11.670  0.2641  0.3944 -1.5591
 7345TIP3   OH243449   5.112   3.380   0.971  0.0673  0.4026 -0.0326
 7345TIP3    H143450   5.160   3.362   1.051  0.0188  1.5689  0.2699
 7345TIP3    H243451   5.169   3.347   0.901  1.6144  2.2614  0.2695
 7346TIP3   OH243452   2.325   2.054   3.432 -0.0883 -0.1252 -0.1423
 7346TIP3    H143453   2.382   2.011   3.496  0.4481 -0.0932 -0.5916
 7346TIP3    H243454   2.384   2.083   3.362 -0.7680 -0.9489 -1.0907
 7347TIP3   OH243455   6.593   5.340  13.257 -0.3224 -0.5555 -0.2050
 7347TIP3    H143456   6.587   5.426  13.298 -0.1408 -1.2875  1.4337
 7347TIP3    H243457   6.551   5.351  13.172  1.3722  1.6154 -0.8417
 7348TIP3   OH243458   3.428   1.857  12.637 -0.6472 -0.3502 -0.1507
 7348TIP3    H143459   3.484   1.893  12.706 -1.0691  0.0860 -0.0238
 7348TIP3    H243460   3.340   1.856  12.677 -1.0617  0.7950 -0.9956
 7349TIP3   OH243461   1.701   0.710  14.943  0.0015  0.8627 -0.2058
 7349TIP3    H143462   1.768   0.717  15.011  0.0891  1.7258 -0.3600
 7349TIP3    H243463   1.728   0.636  14.889  0.5463  0.8785  0.0417
 7350TIP3   OH243464   4.048   6.371  10.863  0.4283 -0.0109  0.9334
 7350TIP3    H143465   4.089   6.290  10.834  0.3248  0.0320  0.6688
 7350TIP3    H243466   4.092   6.440  10.813 -1.4007 -0.1249 -0.9159
 7351TIP3   OH243467   2.615   2.683  12.232  0.2298  0.1612 -0.8582
 7351TIP3    H143468   2.557   2.712  12.161 -0.3355 -0.9651 -0.8819
 7351TIP3    H243469   2.649   2.764  12.270 -0.5030  0.8165 -1.5627
 7352TIP3   OH243470   5.921   1.004  13.153 -1.0222 -0.4255  0.3532
 7352TIP3    H143471   5.845   0.984  13.099 -0.2207  1.3553 -1.5776
 7352TIP3    H243472   5.895   1.080  13.206 -0.5742  0.3318 -0.4762
 7353TIP3   OH243473   1.909   4.739  12.340  0.2596 -0.0556 -0.5960
 7353TIP3    H143474   1.840   4.679  12.312 -0.1671 -0.3674  1.0226
 7353TIP3    H243475   1.946   4.773  12.259 -0.8905 -0.9170 -1.5099
 7354TIP3   OH243476   6.671   5.706  11.332  0.1272  0.5694  0.3708
 7354TIP3    H143477   6.644   5.615  11.349 -0.4297  0.5211 -0.6798
 7354TIP3    H243478   6.739   5.699  11.265 -0.9880  0.9871 -0.8493
 7355TIP3   OH243479   6.660   6.404  16.023 -0.3738 -0.0631 -0.1040
 7355TIP3    H143480   6.631   6.440  15.939 -1.2519  0.4608  0.4132
 7355TIP3    H243481   6.673   6.480  16.079 -0.8475 -0.4629  0.5646
 7356TIP3   OH243482   6.422   5.358   0.499  0.1161 -0.9938 -0.1320
 7356TIP3    H143483   6.369   5.292   0.454 -0.4665  0.1731 -1.2404
 7356TIP3    H243484   6.399   5.348   0.591 -1.6731 -0.9045 -0.5171
 7357TIP3   OH243485   0.738   5.287   0.478  0.2558 -0.0328  1.0616
 7357TIP3    H143486   0.670   5.343   0.439  0.9600  0.2759  0.2413
 7357TIP3    H243487   0.741   5.210   0.422 -1.4428 -1.4457  2.7870
 7358TIP3   OH243488   4.694   2.222  14.017  0.4667  0.0934 -0.4948
 7358TIP3    H143489   4.715   2.136  14.053  0.3934 -0.3759 -1.5392
 7358TIP3    H243490   4.777   2.254  13.982  0.0421 -0.6088 -2.2420
 7359TIP3   OH243491   1.812   1.474  14.946 -0.0425  0.2294  0.4391
 7359TIP3    H143492   1.815   1.512  15.034  1.1313  1.5596 -0.1374
 7359TIP3    H243493   1.752   1.531  14.898  0.8419  0.7108 -0.1272
 7360TIP3   OH243494   2.318   2.361   1.324  0.3255  0.4180  0.0993
 7360TIP3    H143495   2.248   2.350   1.260  0.0413 -3.4274  0.8157
 7360TIP3    H243496   2.398   2.337   1.276  0.4805  0.1038  0.5159
 7361TIP3   OH243497   1.988   5.262   3.919  0.0012  0.7135 -0.0353
 7361TIP3    H143498   1.924   5.192   3.909 -1.1748  1.6611  0.5709
 7361TIP3    H243499   2.070   5.217   3.940 -0.3754 -0.5394 -1.1240
 7362TIP3   OH243500   5.091   4.682  15.331  0.0462 -0.2419  0.2798
 7362TIP3    H143501   5.162   4.725  15.283  0.3132 -1.1474 -0.1604
 7362TIP3    H243502   5.091   4.592  15.298 -0.0094 -0.7855  1.7092
 7363TIP3   OH243503   2.672   4.782  11.824  0.4186  0.7770 -0.0379
 7363TIP3    H143504   2.636   4.817  11.742 -0.0343  0.7780  0.1593
 7363TIP3    H243505   2.596   4.748  11.871  1.0010 -1.8780 -0.8788
 7364TIP3   OH243506   0.916   2.322  15.403 -0.3639 -0.0389 -0.2571
 7364TIP3    H143507   0.866   2.341  15.324 -2.4218  1.2959  1.2613
 7364TIP3    H243508   0.853   2.281  15.462  1.5667 -2.7720  0.1181
 7365TIP3   OH243509   1.984   1.935  16.351 -0.8450 -0.8522 -0.0484
 7365TIP3    H143510   2.017   1.848  16.371  1.8224 -0.1922 -1.2070
 7365TIP3    H243511   1.981   1.980  16.436 -1.0888 -1.6734  0.3864
 7366TIP3   OH243512   5.818   5.677   3.845 -0.3891 -0.0300 -0.6052
 7366TIP3    H143513   5.901   5.630   3.849  1.1800  2.5129 -1.1256
 7366TIP3    H243514   5.807   5.712   3.933 -0.0666  0.9191 -0.9271
 7367TIP3   OH243515   1.220   2.568  14.032 -0.1839 -0.0277 -0.0745
 7367TIP3    H143516   1.167   2.489  14.031  3.1936 -2.5256  0.7837
 7367TIP3    H243517   1.273   2.563  13.952  1.0261  0.6457  0.6494
 7368TIP3   OH243518   0.913   5.529   1.129  0.0089  0.4678 -0.5408
 7368TIP3    H143519   0.987   5.571   1.173  1.0571 -0.2499 -1.5590
 7368TIP3    H243520   0.859   5.493   1.200  0.9118  0.5558  0.2004
 7369TIP3   OH243521   1.107   5.528   1.785  0.1749 -0.1369 -0.0401
 7369TIP3    H143522   1.159   5.466   1.734 -0.9401 -1.2551  0.1377
 7369TIP3    H243523   1.021   5.527   1.744 -0.0586  0.7850  0.3982
 7370TIP3   OH243524   2.611   1.906   3.452  0.5130  0.1811  0.3884
 7370TIP3    H143525   2.706   1.893   3.450  0.5684  0.6389 -0.3241
 7370TIP3    H243526   2.592   1.957   3.373 -0.2343  0.6990  0.8877
 7371TIP3   OH243527   0.310   4.760  12.465 -0.7433  0.6178 -0.3127
 7371TIP3    H143528   0.395   4.754  12.507 -1.0580 -0.1159  0.2547
 7371TIP3    H243529   0.270   4.674  12.479 -1.7436  1.0802 -0.1928
 7372TIP3   OH243530   2.280   3.629   0.154  0.1919  0.2168  0.0353
 7372TIP3    H143531   2.196   3.583   0.147 -1.2744  2.4465  1.5611
 7372TIP3    H243532   2.335   3.569   0.204 -0.6925 -1.0388 -0.4359
 7373TIP3   OH243533   5.666   1.623   3.847  0.3859  0.2086  0.4103
 7373TIP3    H143534   5.571   1.608   3.848  0.3535  0.3733  1.3347
 7373TIP3    H243535   5.700   1.560   3.784 -0.4694  1.0326 -0.9346
 7374TIP3   OH243536   1.705   3.432  12.287  0.2615  0.3855  0.0209
 7374TIP3    H143537   1.792   3.461  12.315 -0.0364  0.3839  0.9750
 7374TIP3    H243538   1.687   3.354  12.339 -0.1194  0.1172 -0.5064
 7375TIP3   OH243539   4.718   3.296  11.657  0.3716 -0.1819 -0.2886
 7375TIP3    H143540   4.708   3.389  11.636  0.4240 -0.3054 -0.9022
 7375TIP3    H243541   4.633   3.270  11.692  0.1997 -0.0117 -0.5682
 7376TIP3   OH243542   1.306   4.171  12.481  0.0250 -0.2361 -0.1766
 7376TIP3    H143543   1.331   4.120  12.404 -0.5822 -0.8051 -0.0026
 7376TIP3    H243544   1.268   4.107  12.541 -0.1003  0.3088  0.3346
 7377TIP3   OH243545   1.319   4.622  16.821 -0.2615 -0.3015 -0.0434
 7377TIP3    H143546   1.241   4.590  16.776 -1.1647 -0.5610  1.6123
 7377TIP3    H243547   1.354   4.546  16.867  1.9457 -0.5793 -2.0099
 7378TIP3   OH243548   1.509   1.919   4.726  0.3441  0.1438  0.1813
 7378TIP3    H143549   1.518   1.999   4.777  0.7343  0.9040 -1.0266
 7378TIP3    H243550   1.587   1.867   4.748 -0.2293 -0.2073  1.4483
 7379TIP3   OH243551   1.371   1.524  11.453 -0.4204 -0.7060  0.2122
 7379TIP3    H143552   1.279   1.501  11.464 -1.0048  1.5368  0.4870
 7379TIP3    H243553   1.399   1.476  11.375 -2.7697  1.0353 -1.8505
 7380TIP3   OH243554   2.113   1.576   5.127 -0.1816  0.1895 -0.8076
 7380TIP3    H143555   2.041   1.531   5.171 -1.5143  1.4065 -1.6521
 7380TIP3    H243556   2.188   1.519   5.140 -1.3151 -1.1937  0.0022
 7381TIP3   OH243557   3.238   3.949  13.003  0.6160  0.4497  0.4484
 7381TIP3    H143558   3.206   4.039  13.006  0.3717  0.3475  1.1177
 7381TIP3    H243559   3.285   3.943  12.920  0.3200  1.0853  0.2269
 7382TIP3   OH243560   5.973   1.384   5.722 -0.4802  0.4037 -0.6968
 7382TIP3    H143561   6.068   1.396   5.731 -0.5476  0.6273 -0.2385
 7382TIP3    H243562   5.962   1.291   5.704 -0.0887  0.6159 -2.1720
 7383TIP3   OH243563   3.175   3.254  11.544  0.3624  0.0128  0.4272
 7383TIP3    H143564   3.144   3.287  11.460 -1.4315 -0.5876  0.7938
 7383TIP3    H243565   3.255   3.304  11.562 -1.3856  3.1006  0.2991
 7384TIP3   OH243566   4.478   1.816   3.981 -0.3794  0.0341  0.0584
 7384TIP3    H143567   4.485   1.720   3.974  1.0301  0.0155  1.1765
 7384TIP3    H243568   4.450   1.844   3.895  0.1980 -1.3153 -0.6034
 7385TIP3   OH243569   1.830   3.770  14.733  0.2764 -0.0239 -0.0940
 7385TIP3    H143570   1.897   3.781  14.800 -0.7865 -0.9394  1.1827
 7385TIP3    H243571   1.875   3.786  14.651  2.2234 -1.2416  0.6671
 7386TIP3   OH243572   5.789   2.659  11.006 -0.5792  0.4088 -1.0372
 7386TIP3    H143573   5.756   2.573  11.031 -0.5512  1.2390  2.3432
 7386TIP3    H243574   5.715   2.718  11.021  0.2124  1.3196 -0.5987
 7387TIP3   OH243575   0.526   1.518   5.331 -0.3221  0.4014  0.9238
 7387TIP3    H143576   0.583   1.441   5.337  0.7880  1.2586  1.8934
 7387TIP3    H243577   0.552   1.573   5.405 -1.6912  1.3248  0.7617
 7388TIP3   OH243578   1.344   2.257  11.779  0.1764  0.1305  0.2207
 7388TIP3    H143579   1.351   2.244  11.684  0.3669 -0.8189  0.3514
 7388TIP3    H243580   1.316   2.348  11.789 -2.2087 -0.4080 -0.8462
 7389TIP3   OH243581   1.599   5.722  15.651  0.5432 -0.2877  0.2140
 7389TIP3    H143582   1.688   5.719  15.686  0.2695 -1.8321  0.8490
 7389TIP3    H243583   1.568   5.810  15.674  1.9522  0.3559 -0.1927
 7390TIP3   OH243584   5.983   0.334  10.934  0.2519  0.2071 -0.4485
 7390TIP3    H143585   6.049   0.357  10.868  0.1236 -0.0710 -0.6770
 7390TIP3    H243586   5.907   0.389  10.912  0.5716  0.8946  0.1173
 7391TIP3   OH243587   4.695   4.843  11.142  0.5947  0.2456 -0.0240
 7391TIP3    H143588   4.784   4.861  11.111  1.4532 -1.0892  1.4886
 7391TIP3    H243589   4.647   4.817  11.063  1.4888  1.1107 -0.8868
 7392TIP3   OH243590   3.901   6.543   3.290 -0.0629 -0.3353  0.1248
 7392TIP3    H143591   3.828   6.602   3.309 -0.1142 -0.6113  0.8131
 7392TIP3    H243592   3.905   6.540   3.194  0.0366  0.8934  0.0771
 7393TIP3   OH243593   5.964   4.782   1.590  0.2839 -0.1901 -0.6074
 7393TIP3    H143594   6.035   4.753   1.646 -1.2990  1.5968  2.5988
 7393TIP3    H243595   5.913   4.703   1.573 -0.5048 -0.5391  2.6623
 7394TIP3   OH243596   3.099   5.153  12.224 -0.6820  0.2846  0.1970
 7394TIP3    H143597   3.091   5.145  12.129 -0.9877  1.2110  0.1366
 7394TIP3    H243598   3.025   5.207  12.250 -1.8950 -1.7737  1.2545
 7395TIP3   OH243599   3.635   3.033  11.218  0.4287  0.2230  0.3587
 7395TIP3    H143600   3.656   3.010  11.127 -1.9054 -3.1100  0.4737
 7395TIP3    H243601   3.554   3.083  11.211 -0.8969 -1.7792  0.5778
 7396TIP3   OH243602   5.721   5.136   2.475 -0.3830 -0.0114  0.5501
 7396TIP3    H143603   5.713   5.053   2.428 -0.2623  0.7723 -0.9201
 7396TIP3    H243604   5.631   5.170   2.480 -0.1696  0.9189 -1.1018
 7397TIP3   OH243605   0.939   3.644  14.062  0.5303  0.6972  0.1531
 7397TIP3    H143606   0.958   3.551  14.075 -0.2254  0.3960 -0.7910
 7397TIP3    H243607   0.875   3.665  14.130 -0.0467  0.2675 -0.2493
 7398TIP3   OH243608   4.177   2.358  12.619  0.0247 -0.0381 -0.4349
 7398TIP3    H143609   4.213   2.420  12.555  1.6930  0.3987  0.8435
 7398TIP3    H243610   4.122   2.300  12.567 -0.6563  1.7784 -1.8721
 7399TIP3   OH243611   5.886   5.478   5.361 -0.1658  0.3649 -0.1253
 7399TIP3    H143612   5.848   5.483   5.449 -1.6280 -0.0408 -0.7022
 7399TIP3    H243613   5.877   5.566   5.325  2.6768  1.2244  0.9442
 7400TIP3   OH243614   4.280   5.697   4.560  0.0814 -0.1773 -0.3577
 7400TIP3    H143615   4.307   5.702   4.468 -1.3644 -0.7978 -0.8553
 7400TIP3    H243616   4.185   5.692   4.556 -0.1360  1.5187  1.2769
 7401TIP3   OH243617   4.160   2.803  15.263 -0.5034  0.5308  0.4900
 7401TIP3    H143618   4.194   2.855  15.335 -1.3429  0.8816  0.6417
 7401TIP3    H243619   4.073   2.838  15.246 -1.1133 -0.8573  0.6255
 7402TIP3   OH243620   4.323   6.081  10.255 -0.0396  0.1354  0.2960
 7402TIP3    H143621   4.345   6.040  10.171 -1.1471 -1.7350  0.8716
 7402TIP3    H243622   4.395   6.056  10.313 -1.2559 -2.1082  0.9541
 7403TIP3   OH243623   6.146   1.616  13.002  0.1851 -0.1357 -0.1561
 7403TIP3    H143624   6.132   1.703  12.966  0.4882  0.1061  0.3006
 7403TIP3    H243625   6.186   1.631  13.088  0.2309 -0.7216 -0.0663
 7404TIP3   OH243626   3.756   2.329  14.183  0.5464 -0.1448  0.1270
 7404TIP3    H143627   3.749   2.408  14.237 -0.3336 -0.4981  0.5361
 7404TIP3    H243628   3.722   2.355  14.098  3.1786  0.8108 -0.7486
 7405TIP3   OH243629   5.842   3.765   4.952  0.0611 -0.0965  0.0272
 7405TIP3    H143630   5.858   3.727   5.039  1.7572  1.8524  0.6264
 7405TIP3    H243631   5.895   3.711   4.893  2.8759  1.4898  0.9398
 7406TIP3   OH243632   1.138   5.216  14.427  0.4960  0.1699 -0.2922
 7406TIP3    H143633   1.097   5.156  14.364  1.1226 -1.2754  0.6379
 7406TIP3    H243634   1.139   5.167  14.509  1.4174  1.3097  0.3958
 7407TIP3   OH243635   3.005   1.154  15.984  0.0121  0.2029 -0.0210
 7407TIP3    H143636   3.084   1.100  15.981 -0.9297 -1.2350  0.1340
 7407TIP3    H243637   3.035   1.242  15.958  1.2811 -0.7341 -1.9449
 7408TIP3   OH243638   6.209   3.452  15.797  0.0992 -0.8010  0.0348
 7408TIP3    H143639   6.240   3.501  15.721 -0.2735 -1.1708 -0.3645
 7408TIP3    H243640   6.126   3.493  15.820  0.0669 -0.8793  0.0587
 7409TIP3   OH243641   3.688   1.020   2.243  0.0572 -0.0578 -0.3596
 7409TIP3    H143642   3.634   0.942   2.253 -1.4373  0.9428 -0.2755
 7409TIP3    H243643   3.746   1.019   2.319 -0.5498 -0.6254  0.1061
 7410TIP3   OH243644   5.436   1.723   0.523  0.3398  1.1327  0.5314
 7410TIP3    H143645   5.417   1.805   0.570  0.7835  0.5672  1.7267
 7410TIP3    H243646   5.497   1.676   0.579  1.0348  0.4913 -0.7081
 7411TIP3   OH243647   2.027   2.965  16.403  0.0919  0.0277 -0.0401
 7411TIP3    H143648   2.084   3.042  16.411  0.3018 -0.1724  0.4025
 7411TIP3    H243649   1.955   2.982  16.463 -1.8906  1.6231 -2.6530
 7412TIP3   OH243650   0.836   3.974  12.932 -0.5152  0.1064 -0.1713
 7412TIP3    H143651   0.921   4.014  12.917 -0.1602 -0.6887 -0.3024
 7412TIP3    H243652   0.826   3.911  12.861 -1.6952  0.9409 -0.7969
 7413TIP3   OH243653   5.574   3.282   4.860 -0.2272  0.3080  0.0286
 7413TIP3    H143654   5.487   3.316   4.839 -0.9349 -0.9176  0.8857
 7413TIP3    H243655   5.605   3.339   4.930 -0.0055  1.2051 -0.7720
 7414TIP3   OH243656   5.065   4.318   0.715  0.1232  0.7292 -0.2290
 7414TIP3    H143657   5.007   4.390   0.741 -1.7284 -1.3449  1.8436
 7414TIP3    H243658   5.025   4.284   0.635  0.1927  1.0948 -0.4244
 7415TIP3   OH243659   4.950   0.594   4.169 -0.4994 -0.0986 -0.1668
 7415TIP3    H143660   4.942   0.662   4.235 -0.0438  0.2432 -0.4593
 7415TIP3    H243661   4.861   0.561   4.157 -0.9928  1.4535 -1.0748
 7416TIP3   OH243662   0.298   2.986   5.152 -0.0202  0.3395  0.2422
 7416TIP3    H143663   0.368   3.010   5.212 -0.8762  1.1996  0.9292
 7416TIP3    H243664   0.300   2.891   5.149  0.7274  0.3336  0.7926
 7417TIP3   OH243665   1.137   3.591  15.043  0.2359 -0.2752 -0.1590
 7417TIP3    H143666   1.230   3.603  15.065 -0.0460  2.6134 -0.1518
 7417TIP3    H243667   1.138   3.545  14.959  1.6431 -0.6819  0.0526
 7418TIP3   OH243668   3.568   3.485   3.134 -0.5722  0.4900 -0.2966
 7418TIP3    H143669   3.518   3.450   3.061 -1.1259 -2.3098  1.2853
 7418TIP3    H243670   3.550   3.426   3.207  0.3832  2.8086  2.0012
 7419TIP3   OH243671   5.707   2.407   3.547  0.0574  0.1677  0.4524
 7419TIP3    H143672   5.729   2.350   3.621 -0.1377 -2.1840 -1.1902
 7419TIP3    H243673   5.617   2.385   3.525  0.4337  0.1131 -1.0933
 7420TIP3   OH243674   1.256   0.811   3.041 -0.3999  0.4175 -0.4034
 7420TIP3    H143675   1.308   0.854   3.109  1.0897  1.1327 -1.9467
 7420TIP3    H243676   1.265   0.717   3.059  0.5509  0.5761 -0.0369
 7421TIP3   OH243677   0.791   1.914   6.640 -0.1787  0.0595 -0.1339
 7421TIP3    H143678   0.720   1.861   6.677 -0.9735  1.2753  0.1286
 7421TIP3    H243679   0.852   1.850   6.602 -1.7788 -0.9890 -1.0387
 7422TIP3   OH243680   6.508   0.977   0.752 -0.4262  0.3235 -0.0434
 7422TIP3    H143681   6.531   0.965   0.660 -2.7021 -0.0585 -0.6428
 7422TIP3    H243682   6.429   1.032   0.749 -1.2745 -0.7384  1.5674
 7423TIP3   OH243683   4.028   4.213   2.054  0.4049  0.2626  0.1368
 7423TIP3    H143684   4.088   4.173   1.992 -0.8956 -0.2920 -0.8041
 7423TIP3    H243685   3.991   4.288   2.008 -0.2349  0.1174  0.4032
 7424TIP3   OH243686   2.663   5.794  14.432 -0.3612 -0.1297  0.0336
 7424TIP3    H143687   2.686   5.875  14.386 -0.0174  0.0277  0.4784
 7424TIP3    H243688   2.699   5.805  14.520 -0.0053 -0.9034 -0.0050
 7425TIP3   OH243689   4.794   4.284  12.221  0.3025  0.1400 -0.4130
 7425TIP3    H143690   4.788   4.193  12.192 -0.9528  0.2370 -0.5313
 7425TIP3    H243691   4.703   4.313  12.225  0.7019  1.4756 -0.6407
 7426TIP3   OH243692   4.169   4.887   1.499 -0.0211 -0.1740 -0.4734
 7426TIP3    H143693   4.238   4.901   1.433  1.4291 -2.6920  0.3524
 7426TIP3    H243694   4.193   4.944   1.572  0.6755 -0.3314 -0.5726
 7427TIP3   OH243695   0.715   0.250  12.479  0.3800 -0.0902  0.0091
 7427TIP3    H143696   0.795   0.299  12.461 -0.3151  1.0288 -0.1423
 7427TIP3    H243697   0.671   0.243  12.394 -0.0349 -0.0477  0.2173
 7428TIP3   OH243698   3.832   0.333   5.504  0.0014  0.4326  0.0995
 7428TIP3    H143699   3.926   0.330   5.523  0.2451  1.0795 -0.9344
 7428TIP3    H243700   3.792   0.277   5.571  1.3090 -1.4590 -0.5939
 7429TIP3   OH243701   6.055   0.452  14.119  0.2716 -0.2137  0.2793
 7429TIP3    H143702   6.037   0.544  14.138  0.9087  0.5879 -2.4441
 7429TIP3    H243703   5.968   0.413  14.105 -0.0618 -0.3274  2.3834
 7430TIP3   OH243704   5.446   4.662   0.183 -0.0585 -0.2357  0.4210
 7430TIP3    H143705   5.360   4.696   0.159 -0.2849  0.5650  2.1742
 7430TIP3    H243706   5.485   4.731   0.236  0.8951 -1.3384  1.2087
 7431TIP3   OH243707   0.920   5.042  13.201 -0.0752 -0.2241 -0.1829
 7431TIP3    H143708   1.000   5.077  13.240  0.2323 -1.2268  0.1235
 7431TIP3    H243709   0.947   5.011  13.114  0.0692 -1.2575  0.2084
 7432TIP3   OH243710   5.691   3.067   5.219 -0.3578 -0.3159  0.2234
 7432TIP3    H143711   5.617   3.077   5.159 -0.1357 -1.6936 -0.3235
 7432TIP3    H243712   5.768   3.077   5.164 -0.1437 -0.5612  0.4749
 7433TIP3   OH243713   6.476   0.885  10.263  0.8662  0.2976 -0.1337
 7433TIP3    H143714   6.554   0.851  10.307 -0.3831 -1.0202  1.1221
 7433TIP3    H243715   6.404   0.866  10.323 -0.4477  1.4920 -1.2691
 7434TIP3   OH243716   5.145   4.285  16.109  0.1518  0.1135 -0.1314
 7434TIP3    H143717   5.078   4.220  16.088 -1.7380  2.4790 -1.9634
 7434TIP3    H243718   5.138   4.298  16.204 -1.6064 -0.1224 -0.2046
 7435TIP3   OH243719   2.127   3.335   1.520  0.2767 -0.2614  0.6437
 7435TIP3    H143720   2.113   3.326   1.614 -0.5954 -1.4236  0.4298
 7435TIP3    H243721   2.047   3.374   1.487  1.1359  1.5256  0.5350
 7436TIP3   OH243722   5.666   4.271  12.314 -0.2019 -0.0630  0.0167
 7436TIP3    H143723   5.608   4.269  12.390  0.9573 -0.4749  0.9224
 7436TIP3    H243724   5.620   4.324  12.249 -0.8904  0.9148  1.2737
 7437TIP3   OH243725   0.439   3.881  15.042  0.8275  0.5314  0.5302
 7437TIP3    H143726   0.459   3.975  15.044 -0.0978  0.9312 -2.8498
 7437TIP3    H243727   0.348   3.875  15.072  1.3865  0.4326  2.3406
 7438TIP3   OH243728   4.713   4.507   5.411 -0.2305  0.9883  0.0380
 7438TIP3    H143729   4.759   4.588   5.387 -0.5870  0.8237 -1.2880
 7438TIP3    H243730   4.781   4.449   5.444  0.0119  1.8694  1.1384
 7439TIP3   OH243731   0.840   5.816  13.705  0.0382  0.0645 -0.0586
 7439TIP3    H143732   0.810   5.892  13.753 -1.7672 -0.8827  0.3917
 7439TIP3    H243733   0.793   5.819  13.622 -0.6606 -0.9469  0.2748
 7440TIP3   OH243734   2.967   1.062   2.199  0.2718 -0.3842  0.7141
 7440TIP3    H143735   2.997   1.112   2.124  0.5205 -2.4563 -0.6398
 7440TIP3    H243736   2.971   1.124   2.273  0.4277  1.5748 -0.8613
 7441TIP3   OH243737   3.170   4.775   4.603 -0.3522 -0.0483 -0.6729
 7441TIP3    H143738   3.147   4.852   4.551 -1.1898 -1.7076 -2.8811
 7441TIP3    H243739   3.097   4.765   4.664  0.7678  2.0738  1.1766
 7442TIP3   OH243740   6.354   6.317  13.005 -0.4039  0.1737 -0.1338
 7442TIP3    H143741   6.259   6.320  13.021 -0.2459  1.3011  0.6823
 7442TIP3    H243742   6.393   6.317  13.093  0.3545 -0.3187 -0.4645
 7443TIP3   OH243743   3.195   6.210   4.817 -0.1294  0.3556 -0.6724
 7443TIP3    H143744   3.173   6.118   4.828  2.3205 -0.4547 -1.9376
 7443TIP3    H243745   3.150   6.237   4.737 -0.2429  0.0493 -0.7102
 7444TIP3   OH243746   3.911   4.993   0.422  0.9205 -0.0071  0.2931
 7444TIP3    H143747   3.850   5.047   0.473  1.5639 -0.1244  1.2079
 7444TIP3    H243748   3.889   4.903   0.446  2.9311  0.0062  2.4201
 7445TIP3   OH243749   3.167   3.951   1.949 -0.1281 -0.8691  1.0159
 7445TIP3    H143750   3.143   4.011   1.879 -0.6251 -0.6479  1.3703
 7445TIP3    H243751   3.108   3.876   1.937  1.3076 -1.8674 -0.1788
 7446TIP3   OH243752   6.004   4.018   0.633 -0.7324 -0.1187 -0.8093
 7446TIP3    H143753   6.057   3.944   0.603  2.2023  0.7536  1.6664
 7446TIP3    H243754   6.003   4.078   0.558 -0.5976 -1.3496 -1.8412
 7447TIP3   OH243755   5.700   1.452   4.910  0.1690  0.2905  0.4086
 7447TIP3    H143756   5.657   1.520   4.962 -1.5369 -0.7274  0.3805
 7447TIP3    H243757   5.761   1.410   4.970 -0.6250  0.1723  1.1407
 7448TIP3   OH243758   4.510   3.444   0.400  0.7781  0.2156 -0.2354
 7448TIP3    H143759   4.470   3.410   0.481  0.6206 -0.2066 -0.4913
 7448TIP3    H243760   4.571   3.512   0.431  1.0859 -0.2823  0.2712
 7449TIP3   OH243761   0.558   4.197  12.857 -0.1761  0.4483  0.4796
 7449TIP3    H143762   0.609   4.242  12.925 -1.3884  0.0844  1.6825
 7449TIP3    H243763   0.507   4.132  12.905 -1.2918  0.3749 -0.7549
 7450TIP3   OH243764   4.495   5.894   4.134  0.5167  0.0352 -0.0602
 7450TIP3    H143765   4.491   5.986   4.162 -1.0702 -0.4080  1.3223
 7450TIP3    H243766   4.510   5.845   4.214 -2.6290 -1.1674 -0.0548
 7451TIP3   OH243767   6.530   2.481  16.855 -0.0020 -0.1797  0.0634
 7451TIP3    H143768   6.490   2.568  16.851 -1.2103 -0.5760  2.0714
 7451TIP3    H243769   6.576   2.480  16.939 -0.6171 -1.7041  0.4144
 7452TIP3   OH243770   0.250   2.933  12.614  0.7297 -0.2711  0.7998
 7452TIP3    H143771   0.342   2.929  12.639  0.7368  1.1542  1.0833
 7452TIP3    H243772   0.203   2.885  12.682  1.2583 -1.1183  0.5816
 7453TIP3   OH243773   4.931   3.379  13.579  0.3633  0.2218  0.0094
 7453TIP3    H143774   4.866   3.411  13.516  0.0150  0.8990  0.6950
 7453TIP3    H243775   4.957   3.457  13.628 -1.9168 -0.7225  3.0487
 7454TIP3   OH243776   3.404   5.500   0.215 -0.6325 -0.5913 -0.2105
 7454TIP3    H143777   3.476   5.445   0.246 -0.9512 -0.4722  0.8059
 7454TIP3    H243778   3.347   5.440   0.167  0.7665 -0.4336 -2.1514
 7455TIP3   OH243779   5.256   6.623   0.329  0.7486  0.2953 -0.2327
 7455TIP3    H143780   5.183   6.680   0.352 -0.1921 -0.7565 -0.5131
 7455TIP3    H243781   5.315   6.679   0.279  0.0577  1.1341 -0.1382
 7456TIP3   OH243782   6.497   1.247   1.016 -0.2982 -0.2589 -0.5784
 7456TIP3    H143783   6.504   1.342   1.004 -1.8120  0.4646  3.0104
 7456TIP3    H243784   6.584   1.214   0.995  0.0234  1.7171 -2.8925
 7457TIP3   OH243785   2.112   4.365   2.615 -0.4587  0.4851 -0.3613
 7457TIP3    H143786   2.179   4.354   2.548  0.4652  1.5271  0.3500
 7457TIP3    H243787   2.162   4.381   2.696 -1.5322  2.2375  0.0123
 7458TIP3   OH243788   1.930   1.169   2.359 -0.9653 -0.0372  0.0857
 7458TIP3    H143789   2.013   1.173   2.407  0.0865 -0.1458 -1.6340
 7458TIP3    H243790   1.866   1.138   2.424  0.4779 -0.6324  1.2843
 7459TIP3   OH243791   4.827   6.527   1.605  0.4128 -1.0207 -0.6409
 7459TIP3    H143792   4.757   6.561   1.550  0.9479  0.8216 -0.2592
 7459TIP3    H243793   4.782   6.489   1.681 -0.2667 -2.4984 -1.7390
 7460TIP3   OH243794   2.308   2.667   4.895 -0.7037  0.5453  0.0616
 7460TIP3    H143795   2.286   2.659   4.802  0.1442 -2.0818 -0.0075
 7460TIP3    H243796   2.360   2.589   4.914 -0.8400  1.0021  2.7647
 7461TIP3   OH243797   3.033   1.526   3.945  0.0791 -0.0684 -0.3740
 7461TIP3    H143798   2.949   1.488   3.918  0.2237  0.2110 -1.2428
 7461TIP3    H243799   3.061   1.578   3.870 -0.9209  3.1615  1.3067
 7462TIP3   OH243800   0.821   2.632  15.368 -0.1163  0.2566 -0.0626
 7462TIP3    H143801   0.861   2.628  15.454  0.7552 -0.5282 -0.4847
 7462TIP3    H243802   0.892   2.659  15.310 -1.0774  2.4501 -0.3206
 7463TIP3   OH243803   3.660   6.346   3.755  0.4130  0.1707 -0.3834
 7463TIP3    H143804   3.705   6.317   3.835 -0.5419 -1.8671 -0.5261
 7463TIP3    H243805   3.712   6.308   3.684  0.3445  0.6289 -0.6812
 7464TIP3   OH243806   1.401   5.398  14.373 -0.3876  0.4913  0.0052
 7464TIP3    H143807   1.480   5.357  14.410 -1.2199  1.5057  3.2148
 7464TIP3    H243808   1.337   5.327  14.369  0.0687  0.1035 -0.7137
 7465TIP3   OH243809   4.087   4.969  16.067 -0.0536 -0.2556 -0.3646
 7465TIP3    H143810   4.134   4.902  16.018  1.6496  0.6416 -0.0300
 7465TIP3    H243811   4.079   5.042  16.006  0.9794  0.4097  0.2790
 7466TIP3   OH243812   6.288   2.824   0.216  0.6543 -0.0207  0.0955
 7466TIP3    H143813   6.219   2.889   0.228  1.3609  1.7139 -3.6788
 7466TIP3    H243814   6.244   2.740   0.229 -1.5363  1.0830  0.3895
 7467TIP3   OH243815   4.945   2.621  15.247 -0.2534 -0.1615 -0.5991
 7467TIP3    H143816   4.898   2.579  15.175 -0.9535  0.9216 -0.7937
 7467TIP3    H243817   4.972   2.706  15.212 -0.1000  0.1458  0.2388
 7468TIP3   OH243818   3.622   6.059   0.272  0.3896 -0.1231 -0.0284
 7468TIP3    H143819   3.617   5.964   0.262  0.8291  0.0542 -2.5393
 7468TIP3    H243820   3.711   6.082   0.244 -0.5860  1.2493 -2.3099
 7469TIP3   OH243821   3.062   5.181  14.551  0.0427  0.1133 -0.6817
 7469TIP3    H143822   3.053   5.247  14.482 -0.5337  0.2489 -0.4812
 7469TIP3    H243823   3.010   5.214  14.624 -0.0416 -0.4332 -0.4860
 7470TIP3   OH243824   5.720   4.329   5.046  0.5059  0.5546 -0.0641
 7470TIP3    H143825   5.707   4.339   4.952 -0.0958  1.3897  0.0922
 7470TIP3    H243826   5.635   4.301   5.079  0.9190 -0.5234  0.1478
 7471TIP3   OH243827   5.740   1.933   5.210 -0.2041 -0.3678 -0.7265
 7471TIP3    H143828   5.740   1.904   5.119  1.3458 -1.6847 -0.3468
 7471TIP3    H243829   5.831   1.959   5.227 -0.9538  2.3356 -0.2557
 7472TIP3   OH243830   5.382   6.235   4.876  0.4928  0.7404 -0.3793
 7472TIP3    H143831   5.310   6.279   4.832  1.0251  1.6390 -0.3666
 7472TIP3    H243832   5.358   6.142   4.873 -0.1868  0.9293 -1.2442
 7473TIP3   OH243833   0.869   0.773  16.957 -0.3391 -0.2747 -0.3653
 7473TIP3    H143834   0.874   0.813  17.044  0.1433 -0.5957 -0.2428
 7473TIP3    H243835   0.783   0.731  16.956 -1.0670  1.1621 -0.6813
 7474TIP3   OH243836   1.218   0.474   1.749 -0.4007 -0.6631 -0.8449
 7474TIP3    H143837   1.123   0.464   1.757 -0.6132  1.1516 -0.8098
 7474TIP3    H243838   1.242   0.411   1.681 -1.4813 -1.7478 -0.2867
 7475TIP3   OH243839   6.626   0.429  10.927  0.3358  0.2965  0.0214
 7475TIP3    H143840   6.565   0.500  10.950  1.1546  0.6398  1.2137
 7475TIP3    H243841   6.585   0.350  10.961 -0.2622  0.2757 -0.7213
 7476TIP3   OH243842   3.952   6.490  11.649 -0.6741 -0.2851  0.4695
 7476TIP3    H143843   4.019   6.514  11.585  0.5452  1.1435  2.1829
 7476TIP3    H243844   3.950   6.394  11.647 -1.5930 -0.2988 -2.5521
 7477TIP3   OH243845   1.070   4.156  14.809 -0.3369  0.1010 -0.3944
 7477TIP3    H143846   1.016   4.088  14.849 -0.5674  0.3072 -0.3540
 7477TIP3    H243847   1.037   4.238  14.846  0.6495  0.1657  0.4014
 7478TIP3   OH243848   0.687   1.608  12.272  0.1455 -0.1809 -0.4309
 7478TIP3    H143849   0.680   1.641  12.362 -2.2327 -0.0801 -0.5915
 7478TIP3    H243850   0.699   1.514  12.283 -2.5725 -0.5506  0.0788
 7479TIP3   OH243851   5.930   6.508   6.503  0.2252  0.5966 -0.2520
 7479TIP3    H143852   5.976   6.549   6.430  1.4409 -0.8538 -0.3377
 7479TIP3    H243853   5.964   6.419   6.506 -1.4271 -0.0422  0.7059
 7480TIP3   OH243854   3.981   5.724   5.187 -0.0185  0.1138  0.5219
 7480TIP3    H143855   4.035   5.746   5.111  0.4012  0.3352  0.8792
 7480TIP3    H243856   3.975   5.628   5.185 -0.3108  0.1398  0.0070
 7481TIP3   OH243857   0.001   6.152   3.784  0.5167 -0.1743  0.1274
 7481TIP3    H143858   0.085   6.188   3.755  0.7762  0.4634  1.5719
 7481TIP3    H243859   0.017   6.123   3.873 -0.0039 -2.9089 -0.5885
 7482TIP3   OH243860   6.750   4.595  12.997  0.0478 -0.4939  0.4335
 7482TIP3    H143861   6.782   4.510  13.027 -0.4080 -1.3303 -1.2813
 7482TIP3    H243862   6.666   4.575  12.956 -1.9652  1.3849  3.3366
 7483TIP3   OH243863   1.254   2.106   5.649  0.0399  0.2074  0.0395
 7483TIP3    H143864   1.259   2.019   5.689  0.7829 -0.1470 -0.7785
 7483TIP3    H243865   1.324   2.156   5.690  0.1194  0.1698 -0.0486
 7484TIP3   OH243866   4.492   0.283   0.775  0.1824  0.1223  0.3126
 7484TIP3    H143867   4.412   0.285   0.723  0.4076 -2.1361 -0.2190
 7484TIP3    H243868   4.562   0.269   0.711  1.0407  1.9016  0.7817
 7485TIP3   OH243869   5.767   2.608   2.769  0.2225  0.2514  0.1085
 7485TIP3    H143870   5.847   2.597   2.717  1.0956  0.5675  1.3131
 7485TIP3    H243871   5.748   2.702   2.762  0.8142  0.4472  0.9890
 7486TIP3   OH243872   2.214   5.000   0.608 -0.1070  0.5325 -0.7431
 7486TIP3    H143873   2.175   5.082   0.640 -0.5621 -0.1968  0.6624
 7486TIP3    H243874   2.298   4.994   0.653 -0.5063 -0.2357 -0.0678
 7487TIP3   OH243875   1.621   6.797  12.692 -0.3306 -0.3278  0.1935
 7487TIP3    H143876   1.598   6.889  12.701  0.2071 -0.2486  0.8740
 7487TIP3    H243877   1.579   6.754  12.767  1.0187 -0.3063  0.9918
 7488TIP3   OH243878   0.451   6.626  13.939 -0.0037 -0.1928 -0.5796
 7488TIP3    H143879   0.541   6.659  13.947 -0.1099 -0.2803  1.3147
 7488TIP3    H243880   0.412   6.643  14.024 -1.4497 -1.1839 -1.0197
 7489TIP3   OH243881   6.431   4.708  12.686 -0.3893 -0.0899 -0.0597
 7489TIP3    H143882   6.427   4.612  12.682 -0.2316 -0.1120  0.2032
 7489TIP3    H243883   6.403   4.737  12.600 -2.5615 -0.3006  0.5135
 7490TIP3   OH243884   3.370   1.993  16.159 -0.1136  0.0249 -0.0282
 7490TIP3    H143885   3.463   1.974  16.144 -0.1485  0.6254 -1.1185
 7490TIP3    H243886   3.348   1.945  16.239  0.6049 -1.8847 -0.9099
 7491TIP3   OH243887   2.136   3.197  16.453  0.0298 -0.4686 -0.7839
 7491TIP3    H143888   2.112   3.246  16.374  0.3391  0.4453 -0.3339
 7491TIP3    H243889   2.130   3.262  16.523 -0.2732 -1.2789 -0.0527
 7492TIP3   OH243890   2.454   5.300  10.526  0.4509 -0.3080  0.5380
 7492TIP3    H143891   2.455   5.394  10.546  0.5397 -0.4193  1.0647
 7492TIP3    H243892   2.365   5.284  10.494  0.6941  0.1243 -0.4097
 7493TIP3   OH243893   6.737   1.891   0.277 -0.3070 -0.9365 -0.1273
 7493TIP3    H143894   6.710   1.912   0.188 -0.1673  0.4404  0.1324
 7493TIP3    H243895   6.831   1.911   0.280 -0.1961 -1.4853  0.1768
 7494TIP3   OH243896   1.704   4.324  14.194  0.3417  0.5486 -0.0329
 7494TIP3    H143897   1.637   4.296  14.131  0.4490  0.4551 -0.1048
 7494TIP3    H243898   1.705   4.420  14.186 -0.9888  0.6959  1.1853
 7495TIP3   OH243899   1.343   0.906   3.287  0.1640  0.0674 -0.3447
 7495TIP3    H143900   1.390   0.833   3.328  2.0417  1.9589  1.0879
 7495TIP3    H243901   1.333   0.970   3.357  1.1179  2.3366 -2.1546
 7496TIP3   OH243902   3.748   5.933  15.339 -0.1317  0.6492 -0.3043
 7496TIP3    H143903   3.667   5.935  15.390 -0.6805  2.2153 -1.1464
 7496TIP3    H243904   3.733   5.866  15.273  0.0359 -0.4107  0.7044
 7497TIP3   OH243905   0.070   4.892  13.455 -0.6721  0.2110 -0.6765
 7497TIP3    H143906   0.079   4.797  13.448 -0.3741  0.0903  0.9294
 7497TIP3    H243907  -0.022   4.906  13.475 -0.3314  0.0939  1.0716
 7498TIP3   OH243908   3.799   6.474  14.413  0.7960  0.7304  0.5984
 7498TIP3    H143909   3.817   6.511  14.326  1.5463 -0.7296  0.0859
 7498TIP3    H243910   3.704   6.462  14.414  0.6741  1.5760  0.3368
 7499TIP3   OH243911   6.443   1.282  15.706  0.3596  0.0174 -0.1156
 7499TIP3    H143912   6.481   1.369  15.696  0.9723 -0.1789  0.3983
 7499TIP3    H243913   6.465   1.236  15.625 -0.0057  0.3540 -0.4054
 7500TIP3   OH243914   2.705   5.099   3.041 -0.2253 -0.3610  0.1279
 7500TIP3    H143915   2.610   5.101   3.054 -0.0721 -1.6112  1.7382
 7500TIP3    H243916   2.731   5.191   3.039 -1.3767 -0.0123  0.4200
 7501TIP3   OH243917   4.092   3.497   1.267  0.7210 -0.2829  0.4793
 7501TIP3    H143918   4.137   3.418   1.298 -0.7539 -0.7075  1.6000
 7501TIP3    H243919   4.049   3.533   1.344  0.1147  0.7982 -0.3287
 7502TIP3   OH243920   6.425   4.408  14.298  0.1877 -0.0806  0.0050
 7502TIP3    H143921   6.374   4.482  14.264  1.7654  1.5779  1.0102
 7502TIP3    H243922   6.512   4.421  14.259  0.4181 -1.6074 -0.0215
 7503TIP3   OH243923   2.409   6.435   1.499 -0.7313  0.1815  0.1241
 7503TIP3    H143924   2.361   6.361   1.462  0.4305 -0.9828  0.8850
 7503TIP3    H243925   2.384   6.509   1.444 -1.0270 -0.9885 -1.3775
 7504TIP3   OH243926   0.133   3.399  12.852  0.4927  0.3445 -0.0476
 7504TIP3    H143927   0.110   3.422  12.762  1.0523 -2.5120 -1.0541
 7504TIP3    H243928   0.209   3.340  12.842  0.1581 -0.5583  2.2286
 7505TIP3   OH243929   2.384   3.054   1.045 -0.0179 -0.0332  0.2789
 7505TIP3    H143930   2.359   3.126   1.103 -1.6466 -0.6026  0.3543
 7505TIP3    H243931   2.341   2.977   1.083  0.3041 -0.7282 -0.7225
 7506TIP3   OH243932   0.404   3.324  15.852  1.0123 -0.0985  0.4323
 7506TIP3    H143933   0.318   3.290  15.877 -0.0988  1.6821 -0.6913
 7506TIP3    H243934   0.465   3.252  15.871 -0.7372 -1.5008  1.0541
 7507TIP3   OH243935   1.043   2.129   3.278 -0.1750  0.4662 -0.3575
 7507TIP3    H143936   1.137   2.120   3.261  0.4254 -2.9182  3.0918
 7507TIP3    H243937   1.001   2.097   3.199  1.7811 -1.4048 -0.7503
 7508TIP3   OH243938   5.327   4.001   4.571 -0.2348  0.1001 -0.5767
 7508TIP3    H143939   5.387   3.933   4.542  0.4820  0.0689  0.8866
 7508TIP3    H243940   5.382   4.062   4.621 -1.1119  1.0121 -0.6831
 7509TIP3   OH243941   1.408   5.898   0.102  1.0252 -0.0421  0.2716
 7509TIP3    H143942   1.325   5.853   0.087  0.5402  0.9928 -0.3037
 7509TIP3    H243943   1.383   5.990   0.115  1.9668  0.0558  1.5336
 7510TIP3   OH243944   5.694   1.147   4.556 -0.5899 -0.3258  0.7714
 7510TIP3    H143945   5.690   1.068   4.502  0.7685 -0.2634  0.5461
 7510TIP3    H243946   5.648   1.124   4.636  0.0426 -1.4433  0.8225
 7511TIP3   OH243947   3.205   0.088   3.749  0.1895 -0.0859 -0.0916
 7511TIP3    H143948   3.124   0.039   3.763  0.7127 -0.7663  0.6571
 7511TIP3    H243949   3.274   0.031   3.782  1.1058  0.0174 -1.7410
 7512TIP3   OH243950   1.541   4.627   5.151 -0.3034  0.5024  0.1716
 7512TIP3    H143951   1.458   4.612   5.105  0.1212  2.7105 -1.4711
 7512TIP3    H243952   1.520   4.695   5.216  0.5373  2.5892 -1.6084
 7513TIP3   OH243953   1.183   5.727   0.011 -0.1187 -0.5787  0.0076
 7513TIP3    H143954   1.163   5.663   0.079 -0.5099 -0.7163 -0.2318
 7513TIP3    H243955   1.112   5.791   0.016 -0.6350 -1.0539 -0.8252
 7514TIP3   OH243956   0.093   4.500   4.475 -0.3598  0.3364  0.2422
 7514TIP3    H143957   0.084   4.414   4.433 -3.6380 -0.5543  2.3727
 7514TIP3    H243958   0.060   4.562   4.410  0.9117 -0.1198 -0.8759
 7515TIP3   OH243959   2.970   2.644  15.850  0.4924 -0.4384 -0.2143
 7515TIP3    H143960   3.056   2.646  15.893  0.2653  0.9931  0.2233
 7515TIP3    H243961   2.909   2.674  15.917 -0.4533 -1.9772 -0.3551
 7516TIP3   OH243962   4.734   2.972  12.139  0.3827 -0.3265  0.5131
 7516TIP3    H143963   4.729   2.999  12.047  1.5563 -0.7124  0.3223
 7516TIP3    H243964   4.809   3.020  12.174 -0.3972  0.2578  1.4392
 7517TIP3   OH243965   3.468   3.643   2.398 -0.4406 -0.2167  0.1932
 7517TIP3    H143966   3.454   3.668   2.307  1.2320 -1.2964 -0.4032
 7517TIP3    H243967   3.546   3.690   2.425  1.3041 -2.6981 -0.1844
 7518TIP3   OH243968   3.177   2.469   1.669 -0.1004  0.3339 -0.3450
 7518TIP3    H143969   3.217   2.382   1.668 -0.1378  0.3202 -0.7135
 7518TIP3    H243970   3.083   2.451   1.682 -0.1618  0.2955 -0.8175
 7519TIP3   OH243971   1.707   4.552   4.708  0.7062 -0.0428  0.0716
 7519TIP3    H143972   1.635   4.612   4.690  1.1346  0.1064 -1.2067
 7519TIP3    H243973   1.737   4.576   4.796  0.1859  0.9028 -0.0020
 7520TIP3   OH243974   5.674   5.928   5.225  0.2920  0.0123  0.0640
 7520TIP3    H143975   5.593   5.975   5.208  0.4802  1.0962  1.8850
 7520TIP3    H243976   5.732   5.952   5.153 -0.3457  0.8429 -0.1771
 7521TIP3   OH243977   2.310   0.599  12.215 -0.4291 -0.1610 -0.1452
 7521TIP3    H143978   2.283   0.546  12.140  0.7927 -0.6662 -0.2545
 7521TIP3    H243979   2.385   0.649  12.182  0.7376 -1.1057  0.9890
 7522TIP3   OH243980   5.768   4.163   4.809 -0.0043  0.2183  0.5643
 7522TIP3    H143981   5.798   4.077   4.838 -1.3665  0.0559  1.6039
 7522TIP3    H243982   5.835   4.224   4.839  0.2029 -0.3180  1.1909
 7523TIP3   OH243983   0.879   5.817  10.605  0.1910 -0.6659  0.2421
 7523TIP3    H143984   0.955   5.874  10.594 -0.7047  0.1986 -1.9358
 7523TIP3    H243985   0.812   5.853  10.547 -0.8040 -3.3051 -0.4002
 7524TIP3   OH243986   0.828   6.206   4.376 -0.5976  0.5236 -0.8912
 7524TIP3    H143987   0.832   6.198   4.281 -0.7706 -0.4596 -0.8230
 7524TIP3    H243988   0.908   6.164   4.408 -2.6380 -3.4789 -0.4092
 7525TIP3   OH243989   4.159   0.912  12.351 -0.4470 -0.4930 -0.0601
 7525TIP3    H143990   4.215   0.893  12.426  1.5646  2.0300 -0.7787
 7525TIP3    H243991   4.219   0.949  12.285 -2.7038  0.7581 -1.5390
 7526TIP3   OH243992   1.396   6.503  15.738  0.2530 -0.2200 -0.1225
 7526TIP3    H143993   1.466   6.509  15.673  1.2059 -0.1597  0.8825
 7526TIP3    H243994   1.436   6.535  15.819 -1.2923  0.9611  0.2231
 7527TIP3   OH243995   3.236   1.266   3.119 -0.3293  0.3628 -0.0094
 7527TIP3    H143996   3.236   1.334   3.186  0.5328  0.2711  0.0878
 7527TIP3    H243997   3.315   1.283   3.067  0.9728 -1.6798  1.1662
 7528TIP3   OH243998   4.585   6.441   1.382 -0.5122 -0.1684 -0.0512
 7528TIP3    H143999   4.539   6.517   1.347 -0.3990 -0.5098 -0.9764
 7528TIP3    H244000   4.535   6.366   1.348 -0.3228 -0.5143  0.4239
 7529TIP3   OH244001   5.978   6.552   2.234  0.1435 -0.1420  0.2489
 7529TIP3    H144002   5.959   6.511   2.150  0.7983  0.4061 -0.1721
 7529TIP3    H244003   5.892   6.580   2.266 -0.0922 -0.2091 -0.3129
 7530TIP3   OH244004   0.214   2.308  13.258 -0.1173  0.3174  0.1237
 7530TIP3    H144005   0.223   2.292  13.163 -3.2530 -0.2084 -0.1760
 7530TIP3    H244006   0.144   2.249  13.285  0.3205  0.8965  2.7123
 7531TIP3   OH244007   6.815   1.372   2.651  0.0736  0.7450 -0.0100
 7531TIP3    H144008   6.850   1.381   2.562  1.6532  1.8452  0.6833
 7531TIP3    H244009   6.724   1.402   2.644  0.0329  0.4071 -1.3140
 7532TIP3   OH244010   6.044   3.075   3.098 -0.1081  0.5422  0.3121
 7532TIP3    H144011   6.052   3.066   3.193  0.4815  1.7027  0.3922
 7532TIP3    H244012   6.060   2.987   3.064  0.6739  0.3090  1.2409
 7533TIP3   OH244013   4.250   2.426  13.311  0.5377  0.1055 -0.2256
 7533TIP3    H144014   4.299   2.479  13.373 -0.5938  0.2702  0.5719
 7533TIP3    H244015   4.160   2.459  13.318  0.1629 -0.6904 -1.0682
 7534TIP3   OH244016   2.599   2.032  12.538  0.2446 -0.2446  0.5373
 7534TIP3    H144017   2.546   1.965  12.581  1.5617 -0.3267  2.1154
 7534TIP3    H244018   2.628   2.089  12.609 -0.0761  1.4816 -0.6573
 7535TIP3   OH244019   1.522   1.767  11.574  0.0351  0.4767 -0.6832
 7535TIP3    H144020   1.471   1.844  11.549  1.7533  0.8375 -3.6161
 7535TIP3    H244021   1.492   1.698  11.514 -0.2425 -0.6888  0.7304
 7536TIP3   OH244022   6.637   5.388  10.996  0.1777 -0.7059 -0.4915
 7536TIP3    H144023   6.612   5.295  10.992  1.3490 -1.0423 -0.3590
 7536TIP3    H244024   6.733   5.387  10.998  0.2008  0.5074 -0.3118
 7537TIP3   OH244025   2.877   4.684  15.795 -0.4123  0.2552  0.9046
 7537TIP3    H144026   2.832   4.605  15.825  1.4349 -0.9874  0.5885
 7537TIP3    H244027   2.850   4.695  15.704  0.3976 -0.8728  0.5076
 7538TIP3   OH244028   1.982   1.403  13.819 -0.4303 -0.6376 -0.3532
 7538TIP3    H144029   1.907   1.361  13.778 -0.5489 -0.6432 -0.1300
 7538TIP3    H244030   1.944   1.466  13.880 -0.2784  0.6743 -1.5516
 7539TIP3   OH244031   0.881   4.641   2.860  0.3954  0.4817 -0.1003
 7539TIP3    H144032   0.817   4.621   2.791  0.7193  0.9163 -0.5363
 7539TIP3    H244033   0.943   4.569   2.857  0.5440  0.6209 -0.4318
 7540TIP3   OH244034   1.755   1.592  15.497  0.1925  0.4770 -0.3924
 7540TIP3    H144035   1.761   1.687  15.491  0.2635  0.5015  0.0302
 7540TIP3    H244036   1.827   1.567  15.555  0.9164  0.0534 -1.4425
 7541TIP3   OH244037   1.906   5.490  14.710  0.3491  0.8339 -0.3206
 7541TIP3    H144038   1.986   5.541  14.704  0.5575  0.6728  0.8796
 7541TIP3    H244039   1.926   5.408  14.664  1.0158  0.6280  0.3206
 7542TIP3   OH244040   4.866   6.011   3.617 -0.3173  0.1796 -0.3914
 7542TIP3    H144041   4.862   6.021   3.522 -0.0866 -0.0916 -0.4307
 7542TIP3    H244042   4.837   5.922   3.633 -1.0572  0.4550 -0.1495
 7543TIP3   OH244043   6.079   3.659  16.377 -0.4039 -0.3313  0.1975
 7543TIP3    H144044   6.045   3.578  16.338 -0.6104  0.2247 -0.7937
 7543TIP3    H244045   6.017   3.679  16.447 -0.6722 -0.7245  0.0734
 7544TIP3   OH244046   6.444   6.147  14.777  0.2977 -0.0165 -0.7865
 7544TIP3    H144047   6.488   6.133  14.693 -0.1022 -1.8488 -0.7170
 7544TIP3    H244048   6.362   6.191  14.754  0.4094 -0.0652 -1.2913
 7545TIP3   OH244049   0.186   5.431  16.525  0.3465  0.1870 -0.2443
 7545TIP3    H144050   0.236   5.460  16.601 -0.0147 -0.6395  0.3171
 7545TIP3    H244051   0.104   5.398  16.561 -0.1468  0.4828 -1.0604
 7546TIP3   OH244052   1.732   0.165   0.495  0.0434  0.2209 -0.3001
 7546TIP3    H144053   1.768   0.179   0.583 -1.0111 -0.1900  0.2308
 7546TIP3    H244054   1.806   0.137   0.442  0.7497  0.7291  0.3992
 7547TIP3   OH244055   0.952   1.359  11.745 -0.1468  0.5983  0.0763
 7547TIP3    H144056   0.941   1.441  11.697 -0.3632 -0.3765 -1.6196
 7547TIP3    H244057   0.862   1.332  11.767 -0.3535 -0.5586 -1.8882
 7548TIP3   OH244058   4.921   0.455  15.319 -0.2431  0.2528  0.0200
 7548TIP3    H144059   4.970   0.477  15.398  0.5393  0.9728 -0.6458
 7548TIP3    H244060   4.854   0.523  15.312 -0.9251 -0.3404  0.5523
 7549TIP3   OH244061   3.437   3.775   1.895 -0.2334  0.2246 -0.8547
 7549TIP3    H144062   3.509   3.719   1.868 -0.3436  0.3907 -1.5062
 7549TIP3    H244063   3.431   3.842   1.826 -0.6342  0.5485 -0.5119
 7550TIP3   OH244064   5.991   4.807  16.602 -0.2140 -0.5256  0.1790
 7550TIP3    H144065   5.897   4.827  16.594  0.3382  2.1199 -0.4668
 7550TIP3    H244066   6.022   4.866  16.671  1.6582  1.5132 -2.2440
 7551TIP3   OH244067   6.598   6.243   0.123 -0.3202 -0.0125  0.1414
 7551TIP3    H144068   6.628   6.324   0.164 -0.2858  1.6822 -2.9336
 7551TIP3    H244069   6.530   6.210   0.182 -1.7514  3.3456  0.5948
 7552TIP3   OH244070   0.164   4.895  15.199  0.5294  0.6789 -0.0477
 7552TIP3    H144071   0.103   4.925  15.132 -1.5959  0.1071  1.4989
 7552TIP3    H244072   0.109   4.882  15.277  2.9455  2.0985  2.0814
 7553TIP3   OH244073   0.736   2.463   4.182  0.1892 -0.0387  0.5891
 7553TIP3    H144074   0.817   2.506   4.210  0.1841  1.3837 -1.3721
 7553TIP3    H244075   0.755   2.370   4.191  1.0509  0.2802  2.7325
 7554TIP3   OH244076   1.174   4.527  11.642 -0.1837 -0.1948 -0.0210
 7554TIP3    H144077   1.114   4.454  11.632  0.9458 -0.9987 -1.3391
 7554TIP3    H244078   1.223   4.529  11.560  1.5657  0.4365  0.9869
 7555TIP3   OH244079   6.168   2.236  13.583 -0.0498  0.3153 -0.2719
 7555TIP3    H144080   6.207   2.233  13.670 -0.1549 -1.2215 -0.2549
 7555TIP3    H244081   6.074   2.247  13.600  0.0433  1.1475 -0.2408
 7556TIP3   OH244082   5.524   4.860  15.873  0.2668 -0.5829 -0.7550
 7556TIP3    H144083   5.573   4.811  15.807  1.2897  0.6311 -0.9562
 7556TIP3    H244084   5.586   4.871  15.945 -0.6870 -1.4955  0.2287
 7557TIP3   OH244085   4.420   0.211  12.938  0.7064 -0.4726 -0.1591
 7557TIP3    H144086   4.499   0.182  12.894  2.1244  1.9819  0.5857
 7557TIP3    H244087   4.446   0.226  13.029 -0.9627 -0.8687  0.4362
 7558TIP3   OH244088   0.601   2.161  13.001 -0.3188  0.6574  0.8496
 7558TIP3    H144089   0.606   2.145  13.096 -0.7891 -2.4228  0.4737
 7558TIP3    H244090   0.526   2.109  12.972  1.3696 -0.6353 -1.5509
 7559TIP3   OH244091   6.577   5.948  12.261 -0.3794  0.8759 -0.0397
 7559TIP3    H144092   6.590   5.877  12.323  0.6998  1.9831  1.0523
 7559TIP3    H244093   6.604   5.912  12.176 -1.6487 -0.5698  0.1330
 7560TIP3   OH244094   2.717   4.114   4.015 -0.2397  0.5448 -0.2022
 7560TIP3    H144095   2.786   4.179   4.000  0.3940 -0.5185 -2.3873
 7560TIP3    H244096   2.649   4.161   4.064  1.2627  2.1116  0.4849
 7561TIP3   OH244097   4.226   1.653  13.829 -1.0711 -0.3859  0.4850
 7561TIP3    H144098   4.142   1.662  13.873 -0.8792  1.7431  0.5175
 7561TIP3    H244099   4.254   1.742  13.812  1.4507 -1.0040  0.9516
 7562TIP3   OH244100   4.053   1.501  13.540  0.2320 -0.1135  0.0181
 7562TIP3    H144101   4.005   1.491  13.623 -0.6793  0.2352 -0.4637
 7562TIP3    H244102   4.071   1.594  13.533  2.6809 -0.4078  1.1078
 7563TIP3   OH244103   5.473   3.049   5.019  0.5251 -0.1168 -0.0198
 7563TIP3    H144104   5.489   3.053   4.925 -1.1639 -0.7537 -0.3656
 7563TIP3    H244105   5.444   3.137   5.042  2.0567  0.3773  0.1715
 7564TIP3   OH244106   2.714   2.852  12.582  0.2323  0.1826  0.1827
 7564TIP3    H144107   2.724   2.860  12.488 -2.6500  0.0677 -0.2251
 7564TIP3    H244108   2.747   2.765  12.603 -0.5307 -0.4153 -0.9954
 7565TIP3   OH244109   1.246   1.137   3.461 -0.0958 -0.1505 -0.0404
 7565TIP3    H144110   1.328   1.177   3.492  0.3224 -0.1309 -1.1139
 7565TIP3    H244111   1.202   1.207   3.412 -1.7075  0.4309  2.1044
 7566TIP3   OH244112   2.408   0.771  11.544  0.1136  0.0507  0.3438
 7566TIP3    H144113   2.433   0.791  11.634 -0.9600 -0.9216  0.8980
 7566TIP3    H244114   2.312   0.762  11.548 -0.0078  0.5313 -1.0147
 7567TIP3   OH244115   3.416   3.865   4.327 -0.1903  0.0275  0.2079
 7567TIP3    H144116   3.484   3.900   4.270  0.4067 -0.8302  0.3838
 7567TIP3    H244117   3.448   3.880   4.416 -1.3762  1.8885  0.3918
 7568TIP3   OH244118   4.611   1.544   1.520 -0.5757 -0.1229  0.7441
 7568TIP3    H144119   4.701   1.508   1.520 -0.8379 -0.8181  0.0524
 7568TIP3    H244120   4.595   1.568   1.429 -1.2585 -0.4408  0.7750
 7569TIP3   OH244121   1.714   4.510  16.642  0.0118  0.1139  0.4506
 7569TIP3    H144122   1.725   4.602  16.617  1.2868 -0.1353  0.0617
 7569TIP3    H244123   1.699   4.513  16.737 -0.1950  0.7399  0.4036
 7570TIP3   OH244124   1.946   5.719  12.079  0.3085  0.2042 -1.2402
 7570TIP3    H144125   1.926   5.658  12.008 -0.0993  1.6818 -2.4751
 7570TIP3    H244126   1.960   5.803  12.034  0.1437  1.1647  0.4228
 7571TIP3   OH244127   4.798   4.494   2.893 -0.1529  0.3443 -0.4184
 7571TIP3    H144128   4.788   4.401   2.912  0.4511  0.0225 -1.5914
 7571TIP3    H244129   4.891   4.505   2.874 -0.1266  1.2917  0.1634
 7572TIP3   OH244130   4.342   2.829   0.274 -0.0732  0.8278 -0.1427
 7572TIP3    H144131   4.396   2.876   0.210  0.8190 -0.0038 -0.0222
 7572TIP3    H244132   4.353   2.737   0.252  1.0210  0.4421  1.7825
 7573TIP3   OH244133   3.133   4.552  15.780  0.4116  0.1058  0.4131
 7573TIP3    H144134   3.072   4.592  15.718  0.3933  1.4470  1.2762
 7573TIP3    H244135   3.077   4.515  15.849  0.5488  1.5381  1.3242
 7574TIP3   OH244136   2.586   4.109   2.546 -0.0360  0.1428  0.1613
 7574TIP3    H144137   2.618   4.019   2.539  0.1719  0.3027 -1.2332
 7574TIP3    H244138   2.634   4.156   2.479 -0.8870  1.0844  0.2023
 7575TIP3   OH244139   5.133   3.453   5.100  0.2576  0.1855  0.4608
 7575TIP3    H144140   5.059   3.399   5.074  0.5008 -1.0863  2.2696
 7575TIP3    H244141   5.134   3.524   5.036 -3.7967  1.4772  1.5026
 7576TIP3   OH244142   2.052   0.591   4.808 -0.0033 -0.3722 -0.2053
 7576TIP3    H144143   2.015   0.615   4.723  1.5898 -0.8835 -1.0953
 7576TIP3    H244144   2.059   0.674   4.856 -2.5822 -0.3139  0.1737
 7577TIP3   OH244145   6.310   6.681  13.096  0.4550  0.1452  0.2703
 7577TIP3    H144146   6.324   6.765  13.140 -0.2802 -0.1346  1.0552
 7577TIP3    H244147   6.274   6.624  13.164  0.5505 -0.6882 -0.3645
 7578TIP3   OH244148   2.800   2.908  16.986  0.4085  0.1113 -0.3165
 7578TIP3    H144149   2.773   2.816  16.981 -0.7202  0.4311 -0.6269
 7578TIP3    H244150   2.731   2.955  16.938  1.1208  1.0882 -0.4154
 7579TIP3   OH244151   1.458   4.304  11.672 -0.1570  0.0523  0.3630
 7579TIP3    H144152   1.518   4.278  11.602 -1.6940  3.0108 -2.2973
 7579TIP3    H244153   1.383   4.245  11.662  1.4215 -2.5830  2.6704
 7580TIP3   OH244154   5.139   1.972   2.212  0.1981  0.3623 -0.6429
 7580TIP3    H144155   5.138   1.882   2.243  1.2619  0.1104 -1.2933
 7580TIP3    H244156   5.199   1.972   2.138  0.1831  1.5960 -0.6868
 7581TIP3   OH244157   0.916   0.598  15.929  0.3616  0.7771 -0.3009
 7581TIP3    H144158   0.856   0.599  15.855 -0.5789 -0.0992  0.4152
 7581TIP3    H244159   1.003   0.608  15.891 -0.2045  1.7576 -1.3917
 7582TIP3   OH244160   1.935   3.533   1.422 -0.0854  0.2874  0.3129
 7582TIP3    H144161   1.850   3.560   1.386 -0.4910 -1.0661  0.1899
 7582TIP3    H244162   1.924   3.538   1.517 -0.6912 -0.8898  0.3332
 7583TIP3   OH244163   0.473   3.334   4.996  0.2803  0.2800  0.2241
 7583TIP3    H144164   0.379   3.336   5.015  0.5971 -0.5958  2.0247
 7583TIP3    H244165   0.504   3.423   5.015 -0.1930  0.6236 -0.5560
 7584TIP3   OH244166   1.577   5.362  13.429  0.1055  0.1967 -0.6755
 7584TIP3    H144167   1.605   5.453  13.420 -0.7548  0.6879  1.1394
 7584TIP3    H244168   1.482   5.364  13.418 -0.2398 -0.0513  1.7977
 7585TIP3   OH244169   3.091   0.600   3.989  0.4660  0.1181  0.5435
 7585TIP3    H144170   3.119   0.538   4.056 -2.2739  0.2210  1.9020
 7585TIP3    H244171   3.031   0.550   3.934 -1.1594  1.2729  1.1857
 7586TIP3   OH244172   3.737   3.573  14.720  0.0647 -0.0905 -0.0851
 7586TIP3    H144173   3.772   3.637  14.782 -0.8696 -0.7276  1.1437
 7586TIP3    H244174   3.659   3.614  14.684  0.8897  0.4985 -1.3026
 7587TIP3   OH244175   3.039   0.377   4.357  0.3779 -0.0262 -0.1204
 7587TIP3    H144176   3.095   0.343   4.288  0.2811  1.1237 -0.7950
 7587TIP3    H244177   2.978   0.305   4.377  1.3732 -0.8958 -0.1453
 7588TIP3   OH244178   0.798   6.748   3.155 -0.5512 -0.2635 -0.2691
 7588TIP3    H144179   0.756   6.672   3.115 -0.1877 -0.5128 -0.1837
 7588TIP3    H244180   0.876   6.712   3.197  0.7720  0.4634 -2.0006
 7589TIP3   OH244181   3.029   5.891  12.502  0.2423  0.4310 -0.0211
 7589TIP3    H144182   2.951   5.935  12.470  0.5515  0.5706 -0.5984
 7589TIP3    H244183   3.099   5.957  12.494  0.6468 -0.0587 -0.5991
 7590TIP3   OH244184   2.224   5.008  13.764  0.5388  0.6880 -0.0236
 7590TIP3    H144185   2.292   5.010  13.697 -1.8225  1.7408 -2.5935
 7590TIP3    H244186   2.259   4.951  13.833  3.8334  1.0038 -1.2962
 7591TIP3   OH244187   3.066   0.146   2.946  0.1494 -0.3965  0.5545
 7591TIP3    H144188   2.971   0.143   2.939  0.1967 -0.1319 -0.3028
 7591TIP3    H244189   3.083   0.167   3.038 -0.6443  0.6035  0.4914
 7592TIP3   OH244190   0.917   6.104   5.274 -0.0170  0.1235 -0.0630
 7592TIP3    H144191   1.012   6.089   5.281  0.0509  0.4418 -0.2473
 7592TIP3    H244192   0.893   6.064   5.191 -0.1682 -0.5296  0.2861
 7593TIP3   OH244193   4.542   6.436  12.248  0.1226 -0.0134  0.1677
 7593TIP3    H144194   4.452   6.426  12.219  0.0177 -0.5551  0.6673
 7593TIP3    H244195   4.536   6.444  12.343  0.5934 -0.0413  0.2019
 7594TIP3   OH244196   0.432   0.986   6.301  0.3236 -0.1103 -0.3401
 7594TIP3    H144197   0.393   0.904   6.332 -1.6073 -0.0563 -2.4293
 7594TIP3    H244198   0.487   0.961   6.227 -1.2810  0.5820 -1.8025
 7595TIP3   OH244199   2.162   6.592   0.772  0.5383  0.2947  0.2046
 7595TIP3    H144200   2.074   6.617   0.745  0.0424 -1.6626 -0.0989
 7595TIP3    H244201   2.213   6.593   0.691  0.5485  0.4469  0.2131
 7596TIP3   OH244202   1.484   2.102   3.912 -0.1660 -0.3146 -0.0883
 7596TIP3    H144203   1.535   2.143   3.982  1.6278 -0.8431 -1.0356
 7596TIP3    H244204   1.413   2.057   3.958  1.6108 -1.6143  1.5343
 7597TIP3   OH244205   4.753   5.120  13.263 -0.7935  0.0015  0.0457
 7597TIP3    H144206   4.723   5.029  13.262  0.4251 -0.4358  0.5492
 7597TIP3    H244207   4.821   5.123  13.196 -0.9829  0.6040 -0.1199
 7598TIP3   OH244208   2.837   3.236  11.405  1.2148  1.0812  0.8227
 7598TIP3    H144209   2.912   3.284  11.370  1.1667 -0.3422 -1.4369
 7598TIP3    H244210   2.812   3.175  11.335 -1.3732  0.7354  1.9158
 7599TIP3   OH244211   1.136   5.241  13.409  0.5435  0.0008  0.3284
 7599TIP3    H144212   1.072   5.290  13.461  0.3048  3.3045 -2.6909
 7599TIP3    H244213   1.217   5.290  13.420  0.7576  0.0823 -1.3876
 7600TIP3   OH244214   1.584   5.959   1.247  0.6861 -0.0006 -0.0083
 7600TIP3    H144215   1.517   6.027   1.246 -3.2907 -3.3276  2.4840
 7600TIP3    H244216   1.613   5.956   1.338  2.3407 -0.3479 -0.5155
 7601TIP3   OH244217   5.525   2.496   5.285 -0.1691  0.2555 -0.1107
 7601TIP3    H144218   5.484   2.529   5.365  1.3352 -0.1088  0.8348
 7601TIP3    H244219   5.458   2.438   5.246 -1.2581  1.1594  0.3658
 7602TIP3   OH244220   0.454   3.884  11.167 -0.3100  1.3238  0.4458
 7602TIP3    H144221   0.470   3.885  11.073  1.0524 -0.1370  0.6202
 7602TIP3    H244222   0.512   3.952  11.201 -0.6162  1.6789  0.2672
 7603TIP3   OH244223   6.385   4.000  16.092 -0.4384  0.1520 -0.5086
 7603TIP3    H144224   6.382   3.912  16.130 -1.7067 -0.2072 -1.3741
 7603TIP3    H244225   6.453   3.995  16.025  0.7871  0.3763  0.6863
 7604TIP3   OH244226   3.091   2.442  10.970 -0.2350 -0.3881  0.2038
 7604TIP3    H144227   3.041   2.445  11.051  0.7695 -0.5576  0.8440
 7604TIP3    H244228   3.103   2.348  10.952 -0.6933 -0.3571 -0.3003
 7605TIP3   OH244229   4.774   4.619  10.301  0.1928 -0.3377  0.1367
 7605TIP3    H144230   4.824   4.662  10.370  1.3938 -1.3806 -0.0425
 7605TIP3    H244231   4.841   4.585  10.241 -0.8009  0.3479 -1.4417
 7606TIP3   OH244232   6.692   2.742  13.398 -0.4611 -0.7469  0.0596
 7606TIP3    H144233   6.612   2.690  13.408 -1.6706  0.9737 -0.1897
 7606TIP3    H244234   6.701   2.788  13.482  0.7309 -1.5192  0.3713
 7607TIP3   OH244235   5.126   2.626   4.971 -0.6622 -0.0410  0.0360
 7607TIP3    H144236   5.094   2.548   5.017 -2.5461  0.2993 -0.6027
 7607TIP3    H244237   5.093   2.616   4.881  0.4780  0.7057 -0.4875
 7608TIP3   OH244238   6.507   5.708  13.778 -0.5498  0.5381  0.0446
 7608TIP3    H144239   6.528   5.755  13.698  2.1171  2.4530  1.7129
 7608TIP3    H244240   6.550   5.623  13.767 -1.3327  0.2621 -1.0479
 7609TIP3   OH244241   3.374   3.265   4.562  0.5145 -0.2195 -0.0405
 7609TIP3    H144242   3.395   3.279   4.654  1.4656 -1.2672 -0.0792
 7609TIP3    H244243   3.447   3.212   4.529 -0.3234 -0.7099 -1.1467
 7610TIP3   OH244244   1.528   5.397   0.144 -0.4476 -0.0595  0.1491
 7610TIP3    H144245   1.614   5.356   0.131  0.2607  1.2286  0.5721
 7610TIP3    H244246   1.477   5.370   0.068  0.7466  0.1726 -0.7652
 7611TIP3   OH244247   4.641   5.404  16.952  0.3881 -0.0179  0.0782
 7611TIP3    H144248   4.654   5.329  16.894  1.2428  1.7422 -2.1291
 7611TIP3    H244249   4.588   5.465  16.902 -0.7877  0.6696  2.0531
 7612TIP3   OH244250   0.544   1.803  14.509 -0.3022  0.4167  0.0269
 7612TIP3    H144251   0.633   1.824  14.481  0.1090 -0.5559  0.5346
 7612TIP3    H244252   0.503   1.764  14.432 -0.3004  0.8864 -0.2137
 7613TIP3   OH244253   5.600   2.026  11.286 -0.3493  0.3303  0.2327
 7613TIP3    H144254   5.538   2.058  11.352 -1.8534 -0.9023 -0.5140
 7613TIP3    H244255   5.545   2.009  11.209  1.1900  0.7129 -0.9957
 7614TIP3   OH244256   2.141   1.739   3.020  0.7102 -0.3440 -0.2575
 7614TIP3    H144257   2.114   1.811   2.963  1.7998 -0.1058 -0.5036
 7614TIP3    H244258   2.161   1.781   3.104 -0.6672 -0.6623  0.2539
 7615TIP3   OH244259   5.714   1.878   1.604  0.2167  0.3021 -0.1615
 7615TIP3    H144260   5.716   1.885   1.508 -0.8722  1.4271 -0.1271
 7615TIP3    H244261   5.624   1.897   1.628  0.6944  1.0745  1.1510
 7616TIP3   OH244262   3.256   0.356   5.617  0.2649  0.4198  0.6258
 7616TIP3    H144263   3.251   0.281   5.558  0.9690 -0.1385  1.2603
 7616TIP3    H244264   3.287   0.428   5.562 -1.7712  0.6413 -0.3229
 7617TIP3   OH244265   5.672   1.309   6.298  0.1823  0.7771  0.2613
 7617TIP3    H144266   5.692   1.247   6.228  0.0366 -1.3421  1.9978
 7617TIP3    H244267   5.596   1.271   6.343 -1.0409  3.1442  0.3627
 7618TIP3   OH244268   2.768   4.146  13.982  0.2399 -0.2930 -0.0262
 7618TIP3    H144269   2.836   4.107  14.037  0.4339  2.4066  1.8546
 7618TIP3    H244270   2.686   4.124  14.027  0.4039  1.9838  1.5097
 7619TIP3   OH244271   4.983   1.088  14.634  0.9975 -0.4143 -0.2073
 7619TIP3    H144272   5.021   1.161  14.585  0.1897  0.1971  0.0534
 7619TIP3    H244273   4.943   1.033  14.567 -0.3845  0.5885 -0.2458
 7620TIP3   OH244274   5.414   2.987  11.214 -0.6326  0.5051  0.1177
 7620TIP3    H144275   5.360   3.066  11.204 -1.5559 -0.1186  0.0015
 7620TIP3    H244276   5.352   2.915  11.205  0.3014 -0.2520 -0.3990
 7621TIP3   OH244277   4.196   3.086   2.316  0.0166 -0.0805  0.2219
 7621TIP3    H144278   4.242   3.012   2.276  2.0636  1.6491 -0.8398
 7621TIP3    H244279   4.202   3.070   2.410  1.2445 -0.8216  0.0390
 7622TIP3   OH244280   0.288   0.038  11.827 -0.2751 -0.5053  0.3779
 7622TIP3    H144281   0.348   0.084  11.885 -0.6544  0.1918  0.2400
 7622TIP3    H244282   0.344  -0.006  11.763  0.1184 -0.7329  0.8759
 7623TIP3   OH244283   5.081   5.042   4.562 -0.2108  0.2137 -0.1806
 7623TIP3    H144284   5.068   5.136   4.546 -0.5223  0.2559  0.3115
 7623TIP3    H244285   5.005   5.000   4.521 -0.8312  0.2956  0.8507
 7624TIP3   OH244286   6.431   0.550  12.429  0.1052 -0.3051 -0.2305
 7624TIP3    H144287   6.388   0.632  12.454  0.4117 -0.1510 -0.2096
 7624TIP3    H244288   6.471   0.519  12.510 -0.7000 -0.8994 -0.0435
 7625TIP3   OH244289   4.113   5.471  15.844 -0.1058 -0.0672 -0.1417
 7625TIP3    H144290   4.156   5.490  15.927  0.4848  1.8047 -0.8106
 7625TIP3    H244291   4.031   5.427  15.869 -0.0572  0.6602  1.4408
 7626TIP3   OH244292   1.494   1.264  10.992  0.1642 -0.2596 -0.0623
 7626TIP3    H144293   1.425   1.302  10.937  0.3000  0.7072  0.4161
 7626TIP3    H244294   1.463   1.277  11.082 -0.4425 -2.5567  0.1170
 7627TIP3   OH244295   5.366   0.108  12.531  0.0371  0.0817  0.0580
 7627TIP3    H144296   5.406   0.035  12.578 -0.9788 -0.0343  0.7804
 7627TIP3    H244297   5.280   0.075  12.506 -0.2302  0.8606 -0.0596
 7628TIP3   OH244298   5.671   2.250  17.113  0.0750 -0.4254 -0.1863
 7628TIP3    H144299   5.588   2.203  17.107 -0.6243  0.6676  0.4132
 7628TIP3    H244300   5.690   2.253  17.207 -0.2879  1.0788 -0.1339
 7629TIP3   OH244301   0.206   0.708  13.922  0.6908 -0.2369 -0.4038
 7629TIP3    H144302   0.294   0.706  13.959  1.0322  1.2871 -1.0193
 7629TIP3    H244303   0.219   0.696  13.828  0.3186  0.5015 -0.5626
 7630TIP3   OH244304   4.790   4.224  10.223  0.1891  0.3021 -0.6129
 7630TIP3    H144305   4.816   4.149  10.169  1.2592  0.7120 -0.6908
 7630TIP3    H244306   4.847   4.295  10.193  0.1823  0.7663  0.4551
 7631TIP3   OH244307   3.378   0.165   5.123  0.0174  0.2821  0.0245
 7631TIP3    H144308   3.404   0.254   5.100  1.1112 -0.3035 -1.1054
 7631TIP3    H244309   3.437   0.140   5.194  0.6022  0.0106 -0.5435
 7632TIP3   OH244310   0.765   3.676  14.285 -0.5720 -0.0450 -0.1984
 7632TIP3    H144311   0.704   3.714  14.347 -0.6009 -0.6929  0.1784
 7632TIP3    H244312   0.806   3.604  14.333 -0.5132 -0.4798 -0.8865
 7633TIP3   OH244313   6.161   5.108   6.448 -0.4586  0.2355 -0.4996
 7633TIP3    H144314   6.230   5.165   6.481 -0.3682 -0.5122  0.6553
 7633TIP3    H244315   6.206   5.028   6.421 -0.8495 -0.2436  0.2303
 7634TIP3   OH244316   1.250   6.197  11.681  0.2960 -0.3265 -0.7047
 7634TIP3    H144317   1.287   6.279  11.715  0.1288 -0.4199 -0.2898
 7634TIP3    H244318   1.323   6.135  11.685 -0.1236 -0.7756  1.0443
 7635TIP3   OH244319   6.649   6.642   5.835  0.3078 -0.0884  0.3340
 7635TIP3    H144320   6.686   6.561   5.802  0.3325 -0.0644  0.3025
 7635TIP3    H244321   6.724   6.693   5.865  0.2962 -0.0616  0.3190
 7636TIP3   OH244322   2.186   2.945   0.330 -0.2400  0.0761  0.2903
 7636TIP3    H144323   2.179   2.885   0.256  0.6537 -1.3424  1.3064
 7636TIP3    H244324   2.262   2.914   0.379 -0.9302  0.8550  1.9270
 7637TIP3   OH244325   5.201   5.057   0.563  0.5649 -0.1970 -0.0803
 7637TIP3    H144326   5.212   5.063   0.657 -0.1977 -1.2455  0.1006
 7637TIP3    H244327   5.132   5.120   0.542  0.1495 -0.5535  0.1951
 7638TIP3   OH244328   3.337   3.606   4.878  0.5657 -0.0165 -0.4134
 7638TIP3    H144329   3.350   3.698   4.901 -0.0299 -0.1071  0.3298
 7638TIP3    H244330   3.281   3.609   4.800 -0.6142  0.2488  0.4093
 7639TIP3   OH244331   0.257   5.771   1.563  0.6578  0.2820  0.4744
 7639TIP3    H144332   0.344   5.796   1.532  0.5604  0.2066  0.1422
 7639TIP3    H244333   0.265   5.678   1.585  0.7451  0.3522  0.7484
 7640TIP3   OH244334   5.852   3.098  10.285  0.3135  0.0882 -0.1633
 7640TIP3    H144335   5.938   3.102  10.328  1.0347 -2.2857 -1.1794
 7640TIP3    H244336   5.853   3.014  10.239 -2.3055  0.3277 -0.8017
 7641TIP3   OH244337   4.512   3.658  11.558  0.0050  0.0769 -0.3931
 7641TIP3    H144338   4.588   3.715  11.569 -0.2109  0.3671 -0.4214
 7641TIP3    H244339   4.475   3.650  11.646 -0.2713  0.4001 -0.4813
 7642TIP3   OH244340   1.616   6.523  10.371  0.1893  0.0958 -0.3196
 7642TIP3    H144341   1.593   6.433  10.393 -0.2593  0.2537 -0.1161
 7642TIP3    H244342   1.686   6.516  10.307  2.5940 -0.3989  2.1520
 7643TIP3   OH244343   4.509   2.648  14.151 -0.1378  0.7676 -0.0507
 7643TIP3    H144344   4.531   2.662  14.243 -0.7703  0.2259  0.1927
 7643TIP3    H244345   4.592   2.655  14.104  0.1045  1.6236  0.4887
 7644TIP3   OH244346   3.538   1.323   0.645 -0.2006 -0.3457 -0.9505
 7644TIP3    H144347   3.513   1.233   0.622 -0.9279  0.4787 -3.6830
 7644TIP3    H244348   3.633   1.324   0.634 -0.3741 -0.3690 -2.6725
 7645TIP3   OH244349   2.855   2.257   5.573  0.2600  0.0672 -0.7957
 7645TIP3    H144350   2.820   2.328   5.626  0.7962  0.6796 -1.2393
 7645TIP3    H244351   2.944   2.245   5.605  0.3904  0.0454 -1.1554
 7646TIP3   OH244352   0.981   2.921  15.490  0.1830 -0.0953 -0.1517
 7646TIP3    H144353   0.970   2.841  15.542 -1.9276  0.3547  0.2197
 7646TIP3    H244354   0.938   2.902  15.407 -1.5154  0.9916  0.4015
 7647TIP3   OH244355   1.235   6.042   3.206 -0.5397  0.7143  0.9021
 7647TIP3    H144356   1.240   6.000   3.291  1.1874 -0.5925  0.2080
 7647TIP3    H244357   1.169   5.992   3.158 -2.5538  2.3093  1.8493
 7648TIP3   OH244358   6.718   4.656  14.471 -0.6200  0.1711  0.1334
 7648TIP3    H144359   6.738   4.592  14.402 -1.1765  1.6106 -1.4146
 7648TIP3    H244360   6.652   4.613  14.525 -0.1563 -0.9937 -0.1927
 7649TIP3   OH244361   2.214   2.021  12.705  0.3261  0.4531 -0.0021
 7649TIP3    H144362   2.262   1.970  12.639 -0.1755  0.3223 -0.2682
 7649TIP3    H244363   2.246   2.111  12.694 -0.0319  0.5021 -0.6845
 7650TIP3   OH244364   3.793   6.132   4.181  0.3376  0.0466  0.2959
 7650TIP3    H144365   3.845   6.151   4.103 -1.1711  0.5943 -0.6164
 7650TIP3    H244366   3.721   6.196   4.179  0.8439  0.8193  2.7391
 7651TIP3   OH244367   0.463   2.717  14.440 -0.0179  0.4639  0.2523
 7651TIP3    H144368   0.389   2.730  14.500 -0.2586  0.8995 -0.1285
 7651TIP3    H244369   0.424   2.676  14.363  0.2498  0.1130  0.3059
 7652TIP3   OH244370   2.118   1.138  13.533  0.3069  0.4336  1.3402
 7652TIP3    H144371   2.087   1.094  13.612 -1.4652  0.4748  0.7147
 7652TIP3    H244372   2.038   1.160  13.485  1.0969  3.5861  1.2140
 7653TIP3   OH244373   4.622   0.360  16.421  0.2083 -0.0203 -0.1917
 7653TIP3    H144374   4.584   0.435  16.466 -2.2863 -0.8152 -0.8131
 7653TIP3    H244375   4.610   0.380  16.328  1.2628 -0.3652 -0.4144
 7654TIP3   OH244376   1.948   1.408   0.825  0.6428  0.0132  0.2221
 7654TIP3    H144377   1.886   1.482   0.824 -1.0850 -1.2584  2.6954
 7654TIP3    H244378   2.017   1.437   0.885  1.5380  0.6817 -1.0702
 7655TIP3   OH244379   2.535   3.081   2.444  0.1256  0.4875 -0.2746
 7655TIP3    H144380   2.465   3.026   2.407  1.8075 -1.2847 -0.9809
 7655TIP3    H244381   2.522   3.077   2.538  0.8284 -2.1033 -0.2242
 7656TIP3   OH244382   1.677   3.688   4.009  0.0946 -0.0280 -0.0297
 7656TIP3    H144383   1.703   3.689   3.916 -0.7832 -0.6408 -0.2839
 7656TIP3    H244384   1.687   3.597   4.036 -2.6200 -0.4900 -0.3861
 7657TIP3   OH244385   1.253   5.689   4.701 -0.3032  0.0616  0.1154
 7657TIP3    H144386   1.307   5.611   4.686  0.5605  0.8773 -1.2068
 7657TIP3    H244387   1.190   5.689   4.629 -0.6210  0.3184  0.3896
 7658TIP3   OH244388   0.446   0.672   2.675 -0.4201 -0.5667 -0.1106
 7658TIP3    H144389   0.458   0.622   2.756 -0.7150 -1.5081 -0.6360
 7658TIP3    H244390   0.516   0.738   2.677 -1.3337  0.4498  1.6519
 7659TIP3   OH244391   4.199   2.322  10.695  0.6986 -0.2250 -0.0740
 7659TIP3    H144392   4.210   2.362  10.781 -0.3505  0.1798 -0.1148
 7659TIP3    H244393   4.212   2.229  10.710  0.0130 -0.2177  0.6261
 7660TIP3   OH244394   4.127   5.644  11.547  0.4488 -0.3068  0.1669
 7660TIP3    H144395   4.147   5.606  11.633  1.4311 -1.5001 -0.5537
 7660TIP3    H244396   4.042   5.687  11.560  1.4323  1.1727  2.2012
 7661TIP3   OH244397   0.348   5.823   5.921 -0.5622 -0.2451  0.1580
 7661TIP3    H144398   0.289   5.894   5.895  0.8981  1.2440  0.7203
 7661TIP3    H244399   0.434   5.865   5.927  0.1123 -1.7660  1.8310
 7662TIP3   OH244400   4.607   4.519  17.116  0.4863 -0.5661  0.2278
 7662TIP3    H144401   4.583   4.545  17.027 -0.9962  1.9652  1.2682
 7662TIP3    H244402   4.699   4.545  17.125 -0.6831  4.4260  0.9686
 7663TIP3   OH244403   5.648   0.004   6.186 -0.8241 -0.5794 -0.1324
 7663TIP3    H144404   5.742   0.023   6.180 -0.7521 -1.3753 -2.0099
 7663TIP3    H244405   5.606   0.075   6.138 -0.9688 -1.6560 -1.6603
 7664TIP3   OH244406   6.120   6.541   3.616 -0.0307 -0.2818  0.2027
 7664TIP3    H144407   6.075   6.588   3.686 -0.8109 -0.6385 -0.0447
 7664TIP3    H244408   6.123   6.450   3.646 -0.2590 -0.4140 -0.1706
 7665TIP3   OH244409   6.764   0.433  13.201 -0.9442 -0.4650  0.2305
 7665TIP3    H144410   6.761   0.387  13.116  1.3049 -0.6411  0.2061
 7665TIP3    H244411   6.753   0.525  13.178  0.4458 -0.4228 -0.3834
 7666TIP3   OH244412   3.394   0.283  16.508 -0.4232  0.0704 -0.5522
 7666TIP3    H144413   3.351   0.294  16.593  0.7755  0.4134  0.0473
 7666TIP3    H244414   3.427   0.370  16.486  1.0419 -0.4009 -0.3478
 7667TIP3   OH244415   1.078   2.686   0.122  0.1485 -0.1493  0.2101
 7667TIP3    H144416   1.044   2.749   0.059  1.6110  0.9413  0.4503
 7667TIP3    H244417   1.068   2.728   0.207 -0.3505 -0.9459  0.5636
 7668TIP3   OH244418   1.717   6.479   1.163 -0.1843 -0.2662  0.1538
 7668TIP3    H144419   1.690   6.390   1.140  1.8777 -1.6732  2.7007
 7668TIP3    H244420   1.799   6.492   1.115 -0.4076  0.2301 -0.0965
 7669TIP3   OH244421   1.028   6.519  17.086 -0.5321  0.3945  0.1135
 7669TIP3    H144422   1.018   6.466  17.007  0.2993  0.6692 -0.1778
 7669TIP3    H244423   0.938   6.543  17.110 -0.7950  0.2084 -0.6765
 7670TIP3   OH244424   1.797   3.989  16.757  0.0246 -0.5702 -0.0525
 7670TIP3    H144425   1.787   3.970  16.850 -1.1864 -2.0263 -0.4418
 7670TIP3    H244426   1.822   3.905  16.718  0.0904 -0.0794 -1.1041
 7671TIP3   OH244427   6.482   3.233  14.729  0.1252 -0.0532 -0.6312
 7671TIP3    H144428   6.466   3.319  14.690  0.6459  0.5635  0.4872
 7671TIP3    H244429   6.417   3.225  14.799  0.9196 -0.0140  0.1183
 7672TIP3   OH244430   4.775   4.055  13.849  0.1484 -0.0925 -0.0056
 7672TIP3    H144431   4.840   4.046  13.919  0.2168  0.0011 -0.0564
 7672TIP3    H244432   4.823   4.098  13.777 -0.6778  2.7587  0.9911
 7673TIP3   OH244433   5.310   2.502   1.018 -0.1135  0.3953 -0.4171
 7673TIP3    H144434   5.337   2.481   1.107 -0.8023 -0.5818 -0.4348
 7673TIP3    H244435   5.324   2.597   1.011  3.3621  0.0366 -0.4311
 7674TIP3   OH244436   1.139   6.314  12.655  0.1203  0.4542  0.3407
 7674TIP3    H144437   1.135   6.382  12.722  0.4864 -0.8239  1.7165
 7674TIP3    H244438   1.205   6.252  12.687 -0.1381 -0.5027 -0.8916
 7675TIP3   OH244439   1.900   1.388  15.657  0.3495 -0.6836 -0.1309
 7675TIP3    H144440   1.951   1.326  15.709 -0.1465  0.8776  2.4093
 7675TIP3    H244441   1.816   1.343  15.642  0.3935 -1.0605  0.7065
 7676TIP3   OH244442   4.491   0.810  13.697 -0.1757  0.0727  0.2269
 7676TIP3    H144443   4.473   0.739  13.759 -1.3201  1.1150  1.1423
 7676TIP3    H244444   4.406   0.853  13.685  0.1835  0.3792 -1.4837
 7677TIP3   OH244445   5.906   0.407   6.008  0.3866  0.3559  0.8946
 7677TIP3    H144446   5.824   0.426   6.053  0.4289  0.1915  1.0428
 7677TIP3    H244447   5.882   0.345   5.940  0.4668 -0.0528  1.2379
 7678TIP3   OH244448   3.010   3.870   5.077  0.2765 -0.5729 -0.1473
 7678TIP3    H144449   2.923   3.908   5.093  0.9618  0.6135  1.0233
 7678TIP3    H244450   3.003   3.780   5.108 -0.0042  0.1041  1.9532
 7679TIP3   OH244451   5.909   3.354  15.898  0.4083  0.0115 -0.3505
 7679TIP3    H144452   5.960   3.277  15.921 -0.7940 -0.2921  1.5038
 7679TIP3    H244453   5.904   3.352  15.802  3.6804  0.0080 -0.6064
 7680TIP3   OH244454   5.927   3.365   5.031  0.0659  0.7752  0.1694
 7680TIP3    H144455   5.873   3.407   5.098  0.5876  1.1386  0.3719
 7680TIP3    H244456   5.954   3.282   5.070 -2.0913 -0.4480 -0.7471
 7681TIP3   OH244457   5.057   4.192   6.326  0.4414 -0.5065  0.4161
 7681TIP3    H144458   5.144   4.188   6.287 -0.3986 -1.8391 -1.5233
 7681TIP3    H244459   5.070   4.171   6.418  2.1282 -1.0897  0.0787
 7682TIP3   OH244460   3.411   6.578  15.298  0.5184 -0.1369 -0.0876
 7682TIP3    H144461   3.439   6.494  15.261  1.0017  0.4225 -1.0190
 7682TIP3    H244462   3.398   6.559  15.391  0.9147 -1.1752 -0.2247
 7683TIP3   OH244463   6.009   3.920   0.100  0.3176 -0.3682  0.0144
 7683TIP3    H144464   6.072   3.992   0.101  1.7061 -1.5024  1.9621
 7683TIP3    H244465   6.016   3.884   0.011  1.1597  0.6126 -0.3343
 7684TIP3   OH244466   4.692   6.563  16.665  0.5545  0.2886  0.0060
 7684TIP3    H144467   4.777   6.606  16.672  0.1698  0.9514  0.7195
 7684TIP3    H244468   4.703   6.500  16.593  1.5138  0.6603 -0.1890
 7685TIP3   OH244469   0.627   5.598   4.985 -0.0044  0.3413  0.3093
 7685TIP3    H144470   0.588   5.511   4.996  0.8431 -0.2452 -1.0381
 7685TIP3    H244471   0.721   5.584   4.993  0.0699  1.7108  3.3418
 7686TIP3   OH244472   6.349   3.220  15.674  0.3208 -0.0874  0.0696
 7686TIP3    H144473   6.349   3.172  15.591 -0.2149 -1.3448  0.7758
 7686TIP3    H244474   6.278   3.284  15.665 -1.8415 -2.2849  0.6762
 7687TIP3   OH244475   0.160   2.329   2.561 -0.3509  0.7358  0.3798
 7687TIP3    H144476   0.237   2.357   2.612 -1.5956  2.0489  1.6289
 7687TIP3    H244477   0.122   2.258   2.614  0.6367 -0.7750 -0.8543
 7688TIP3   OH244478   1.652   3.222   0.833  0.0406 -0.2804 -0.4344
 7688TIP3    H144479   1.701   3.205   0.914  1.8476  1.0094 -1.1936
 7688TIP3    H244480   1.615   3.309   0.845 -1.6206 -0.9993 -0.1255
 7689TIP3   OH244481   2.483   6.676   4.243  0.4906  0.2348 -0.2719
 7689TIP3    H144482   2.457   6.746   4.184  1.1308 -1.7671 -3.1383
 7689TIP3    H244483   2.532   6.720   4.312  0.4897  2.6428 -1.7082
 7690TIP3   OH244484   4.225   5.342  12.180  0.3838  0.6162 -0.2734
 7690TIP3    H144485   4.219   5.266  12.122  2.5831 -0.6090  0.9968
 7690TIP3    H244486   4.136   5.354  12.213 -0.4465 -0.0425 -2.1086
 7691TIP3   OH244487   4.811   3.037  13.394 -0.2165 -0.6230  0.4255
 7691TIP3    H144488   4.789   3.118  13.440  1.8927  0.0381  0.3398
 7691TIP3    H244489   4.726   2.995  13.379 -1.4127  1.7566  0.0947
 7692TIP3   OH244490   5.027   0.678  11.297 -0.2516  0.2184  0.0265
 7692TIP3    H144491   5.088   0.624  11.347  1.0924  2.6038  1.1272
 7692TIP3    H244492   4.949   0.623  11.288  1.1309 -2.0040  0.7464
 7693TIP3   OH244493   5.512   1.584   1.856 -0.0220  0.0456  0.0448
 7693TIP3    H144494   5.565   1.538   1.791 -0.6563 -0.4142 -0.1540
 7693TIP3    H244495   5.432   1.608   1.809 -0.2770  0.1319  0.5212
 7694TIP3   OH244496   0.710   5.851  11.358 -0.3749 -0.7825  0.3358
 7694TIP3    H144497   0.778   5.832  11.294  1.2627  0.7935  1.5378
 7694TIP3    H244498   0.637   5.886  11.306  1.1434  1.0459 -0.6570
 7695TIP3   OH244499   2.753   0.775  12.775  0.5488 -0.1098 -0.4878
 7695TIP3    H144500   2.827   0.818  12.817  1.1118 -0.7780 -0.7746
 7695TIP3    H244501   2.678   0.831  12.794  1.3213  1.1880 -1.1475
 7696TIP3   OH244502   6.016   0.412  12.304 -0.0388  0.1468  0.1810
 7696TIP3    H144503   6.067   0.431  12.383  0.7015 -1.2630  0.0699
 7696TIP3    H244504   6.003   0.317  12.305 -4.2442  0.5500  1.1226
 7697TIP3   OH244505   2.609   3.525  11.103  0.0640 -0.0040 -0.5444
 7697TIP3    H144506   2.698   3.559  11.114 -0.2369  1.4095 -2.1230
 7697TIP3    H244507   2.609   3.486  11.015 -0.5300 -1.1932 -0.0351
 7698TIP3   OH244508   5.699   3.578   4.626 -0.0817 -0.3107 -0.2186
 7698TIP3    H144509   5.664   3.646   4.684 -0.9738 -0.8105 -0.1496
 7698TIP3    H244510   5.753   3.523   4.683  1.0735  0.6102 -0.3756
 7699TIP3   OH244511   5.860   4.748   2.422 -0.1239 -0.1676 -0.0582
 7699TIP3    H144512   5.861   4.791   2.508 -2.5460 -0.7961  0.3539
 7699TIP3    H244513   5.775   4.704   2.418 -0.2511  0.1365 -2.9315
 7700TIP3   OH244514   2.358   0.845  13.796 -0.5435 -0.0105  0.0946
 7700TIP3    H144515   2.296   0.824  13.727 -0.2611  0.2351 -0.2339
 7700TIP3    H244516   2.443   0.821  13.760 -0.1838  1.8358 -0.3580
 7701TIP3   OH244517   2.881   2.086   2.349 -0.1833 -0.2450  0.1581
 7701TIP3    H144518   2.846   2.078   2.437 -2.2711 -1.9240 -0.7074
 7701TIP3    H244519   2.805   2.105   2.294  1.1237  1.2544 -1.2673
 7702TIP3   OH244520   3.966   3.617   5.316 -0.7213  0.1140  0.3230
 7702TIP3    H144521   3.876   3.627   5.346 -0.9158 -4.1479  1.8943
 7702TIP3    H244522   3.961   3.625   5.221 -2.5245  0.9787  0.4482
 7703TIP3   OH244523   3.803   6.813   4.994  0.2592 -0.2256 -0.3284
 7703TIP3    H144524   3.850   6.897   4.985 -1.5242  0.9666  0.8568
 7703TIP3    H244525   3.828   6.781   5.081 -0.6205  0.1043  0.0504
 7704TIP3   OH244526   6.240   1.191  10.902 -0.2025 -1.0293 -0.3103
 7704TIP3    H144527   6.319   1.173  10.953 -0.9946  0.0047  1.3912
 7704TIP3    H244528   6.246   1.132  10.827  1.7793 -1.5369  0.1672
 7705TIP3   OH244529   0.236   1.442   5.391 -0.4071  0.0127  0.1232
 7705TIP3    H144530   0.196   1.527   5.376  1.1712  0.2801 -3.6028
 7705TIP3    H244531   0.322   1.461   5.427 -0.2371 -0.0249 -0.2598
 7706TIP3   OH244532   2.715   2.585   2.289 -0.8797  0.4601  0.6037
 7706TIP3    H144533   2.754   2.503   2.319 -0.6041  0.6803  0.8572
 7706TIP3    H244534   2.727   2.645   2.363  0.0185  1.0842 -0.0328
 7707TIP3   OH244535   6.248   3.299   5.223 -0.4334  0.1286 -0.1220
 7707TIP3    H144536   6.172   3.251   5.192 -0.3340  0.0720 -0.2771
 7707TIP3    H244537   6.283   3.343   5.145 -0.9878  1.0952  0.1562
 7708TIP3   OH244538   5.623   4.959   3.674  0.1046 -0.2993 -0.4674
 7708TIP3    H144539   5.532   4.930   3.677  0.4323 -1.5583 -1.4569
 7708TIP3    H244540   5.635   4.995   3.586  0.4043  0.4423 -0.1328
 7709TIP3   OH244541   2.719   2.172  12.764 -0.1995  0.0685  0.1443
 7709TIP3    H144542   2.678   2.198  12.846  0.7079 -0.9156  0.9505
 7709TIP3    H244543   2.812   2.184  12.779 -0.0698  0.6328 -1.0404
 7710TIP3   OH244544   6.505   2.661   4.528 -0.1974  0.1638 -0.3484
 7710TIP3    H144545   6.426   2.634   4.482 -0.3526  0.4203 -0.2314
 7710TIP3    H244546   6.547   2.724   4.469 -0.9170  1.2654  0.2947
 7711TIP3   OH244547   5.714   0.455  14.705 -0.5973  0.4974  0.2534
 7711TIP3    H144548   5.718   0.484  14.614  0.2555  0.0377  0.1411
 7711TIP3    H244549   5.681   0.365  14.700  2.5124 -0.7585  0.0959
 7712TIP3   OH244550   4.045   0.215   1.885 -0.3175  0.7442 -0.0439
 7712TIP3    H144551   4.110   0.171   1.831 -0.9540  0.0447 -0.2654
 7712TIP3    H244552   4.046   0.306   1.855  0.1922  0.6288 -0.3892
 7713TIP3   OH244553   3.291   6.637  14.536 -0.2299  0.5598  0.5696
 7713TIP3    H144554   3.283   6.693  14.613  1.8537  0.7913  0.6941
 7713TIP3    H244555   3.386   6.626  14.524 -0.5355 -1.4185 -0.5633
 7714TIP3   OH244556   3.358   0.028  12.439 -0.8270 -0.8165 -0.0530
 7714TIP3    H144557   3.290   0.079  12.482 -0.8456  2.4289 -3.3998
 7714TIP3    H244558   3.439   0.076  12.456 -0.2024 -1.7533 -0.2823
 7715TIP3   OH244559   1.216   2.738   4.131  0.1102  0.0720  0.3126
 7715TIP3    H144560   1.153   2.668   4.110 -0.7873  0.6852  0.8608
 7715TIP3    H244561   1.228   2.731   4.226  0.8744 -0.0221  0.2151
 7716TIP3   OH244562   4.347   5.289   2.916 -0.7954 -0.2512  0.0372
 7716TIP3    H144563   4.348   5.346   2.839 -1.1348  0.4910  0.5776
 7716TIP3    H244564   4.434   5.249   2.916 -0.5814  0.1982 -0.3955
 7717TIP3   OH244565   2.497   5.175  16.911 -0.1164  0.4593  0.0985
 7717TIP3    H144566   2.513   5.221  16.994  1.5204  0.9118 -0.4322
 7717TIP3    H244567   2.509   5.083  16.933  0.2022  0.5662  0.4013
 7718TIP3   OH244568   4.386   2.502   0.775 -0.1434 -0.1269 -0.2798
 7718TIP3    H144569   4.462   2.455   0.809  1.3456  1.5535 -1.1145
 7718TIP3    H244570   4.403   2.508   0.681 -1.3693  0.1901 -0.4871
 7719TIP3   OH244571   2.572   2.469  15.872  0.1933  0.5761  0.5060
 7719TIP3    H144572   2.525   2.440  15.794 -0.1541  0.0045  0.9183
 7719TIP3    H244573   2.635   2.533  15.840  2.9993 -2.6062 -0.9247
 7720TIP3   OH244574   5.253   1.729   1.543  1.2309  0.1640 -0.0351
 7720TIP3    H144575   5.168   1.712   1.501  0.2751  1.4664  1.2846
 7720TIP3    H244576   5.243   1.693   1.631  2.9445 -1.8588 -0.5983
 7721TIP3   OH244577   2.573   3.559   2.984  0.2292  0.0004  0.5547
 7721TIP3    H144578   2.547   3.478   2.940  2.0129 -0.7090  0.7270
 7721TIP3    H244579   2.542   3.547   3.075  0.6700 -0.5860  0.6326
 7722TIP3   OH244580   1.704   6.748   0.279 -0.2977  1.3594 -0.5743
 7722TIP3    H144581   1.780   6.689   0.285  0.1974  1.8794 -1.4537
 7722TIP3    H244582   1.707   6.781   0.189 -0.9893  2.1619 -0.3110
 7723TIP3   OH244583   3.616   6.305  11.520  0.2543 -0.2912  0.0854
 7723TIP3    H144584   3.521   6.294  11.521  0.3617 -2.1448 -2.2832
 7723TIP3    H244585   3.641   6.291  11.429  2.8132  0.2043  0.6407
 7724TIP3   OH244586   5.056   5.166  14.272 -0.2546  0.1689  0.6413
 7724TIP3    H144587   5.058   5.204  14.184  2.5179  2.1530  1.4301
 7724TIP3    H244588   5.145   5.178  14.305 -0.9665 -1.3690  3.3983
 7725TIP3   OH244589   5.791   3.831  15.201 -0.0669 -0.1114 -0.4836
 7725TIP3    H144590   5.808   3.813  15.108  2.4223  0.8900 -0.2989
 7725TIP3    H244591   5.791   3.926  15.206 -1.6262 -0.1395  0.3442
 7726TIP3   OH244592   2.120   3.418   0.007  0.3212  0.7140 -0.1021
 7726TIP3    H144593   2.174   3.342   0.032  1.1843  0.7871 -1.6515
 7726TIP3    H244594   2.050   3.381  -0.047  0.2538  0.9276 -0.1613
 7727TIP3   OH244595   5.975   3.523  12.006  0.2503 -0.5785  0.2777
 7727TIP3    H144596   6.030   3.597  12.031 -0.3458 -0.0494  0.0532
 7727TIP3    H244597   5.943   3.489  12.090 -0.9534  0.5841  0.3364
 7728TIP3   OH244598   5.611   2.926  14.097  0.0474 -0.5314  0.2276
 7728TIP3    H144599   5.665   2.971  14.032 -1.2750  0.3980 -0.2805
 7728TIP3    H244600   5.594   2.991  14.164 -0.4001 -0.8153  0.3962
 7729TIP3   OH244601   3.644   3.662   3.735  0.3787  0.0023 -0.7381
 7729TIP3    H144602   3.629   3.577   3.776  0.2177  0.0041 -0.7921
 7729TIP3    H244603   3.739   3.672   3.734  0.4184 -0.4391 -1.2666
 7730TIP3   OH244604   2.733   5.851   5.759 -0.1064 -0.2806 -0.0472
 7730TIP3    H144605   2.685   5.881   5.836 -2.3462 -0.7866 -1.1746
 7730TIP3    H244606   2.825   5.872   5.778 -0.4994 -0.8103  2.9451
 7731TIP3   OH244607   1.655   2.816   2.028  0.3047  0.2670  0.0890
 7731TIP3    H144608   1.678   2.888   1.970  1.0144  2.4140  2.7755
 7731TIP3    H244609   1.563   2.799   2.009  0.5855  0.6453 -1.8222
 7732TIP3   OH244610   2.773   6.426   5.650 -1.3786  0.5452 -0.3100
 7732TIP3    H144611   2.724   6.477   5.586 -1.2726 -0.3367 -1.1199
 7732TIP3    H244612   2.717   6.425   5.728 -1.5675  1.5205 -0.4223
 7733TIP3   OH244613   0.914   2.410   0.904 -0.2156  0.0787 -0.0863
 7733TIP3    H144614   0.865   2.438   0.982  0.5738 -0.5144  0.6424
 7733TIP3    H244615   0.868   2.452   0.831 -2.0360 -0.7246  0.5215
 7734TIP3   OH244616   0.037   1.930   3.135  0.2163 -0.1198 -0.2663
 7734TIP3    H144617   0.063   1.838   3.132 -3.0045 -1.1610 -0.8398
 7734TIP3    H244618  -0.025   1.936   3.207 -1.3771  1.0184 -1.6391
 7735TIP3   OH244619   0.261   2.201   4.431 -0.4602 -0.9608  0.1916
 7735TIP3    H144620   0.340   2.249   4.457 -0.3467 -1.2202  0.3324
 7735TIP3    H244621   0.191   2.267   4.434 -0.2859 -0.7777  0.2712
 7736TIP3   OH244622   4.262   0.802  15.436  0.2955 -0.3321 -0.0622
 7736TIP3    H144623   4.218   0.878  15.398  0.5961 -0.2113 -0.1675
 7736TIP3    H244624   4.355   0.819  15.423  0.4680  0.1647  1.5442
 7737TIP3   OH244625   0.598   4.283  15.606  0.0581 -0.0365  0.1408
 7737TIP3    H144626   0.552   4.318  15.530 -0.2306  1.6245  1.0319
 7737TIP3    H244627   0.568   4.337  15.679  1.6817 -0.4054  1.1375
 7738TIP3   OH244628   6.365   1.780  11.801  0.0712  0.6097  0.3272
 7738TIP3    H144629   6.369   1.688  11.827 -0.2243  0.5505  0.1575
 7738TIP3    H244630   6.434   1.822  11.853  0.5055  0.2154  0.0775
 7739TIP3   OH244631   6.299   6.118  14.472 -0.0181  0.0254 -0.6266
 7739TIP3    H144632   6.214   6.078  14.492 -0.6032  1.1586 -0.7494
 7739TIP3    H244633   6.278   6.189  14.411  1.2205 -0.6800 -1.9403
 7740TIP3   OH244634   4.516   3.557   5.479  0.3390 -0.5872 -0.5965
 7740TIP3    H144635   4.562   3.560   5.395  0.9822 -0.8924 -0.2602
 7740TIP3    H244636   4.432   3.600   5.462  0.4680 -0.6411 -1.3909
 7741TIP3   OH244637   4.794   5.754  15.615 -0.0404  0.0734 -0.2995
 7741TIP3    H144638   4.801   5.662  15.640  0.3111  0.3220  0.5207
 7741TIP3    H244639   4.808   5.754  15.520 -1.2992 -0.8593 -0.5085
 7742TIP3   OH244640   5.562   4.843   2.375 -0.2545  0.1972  0.2206
 7742TIP3    H144641   5.519   4.902   2.437 -4.0217 -1.5660 -0.4286
 7742TIP3    H244642   5.519   4.860   2.291 -0.1213 -2.0868 -0.3863
 7743TIP3   OH244643   0.929   2.487  12.751  0.1969  0.3591  0.2411
 7743TIP3    H144644   0.859   2.422  12.752 -0.8422  1.4605  0.9455
 7743TIP3    H244645   0.896   2.559  12.804 -0.0760  2.9382 -3.1253
 7744TIP3   OH244646   2.234   3.909   4.465  0.1658 -0.0410  0.4164
 7744TIP3    H144647   2.254   3.836   4.407  2.3059  0.1546  0.8233
 7744TIP3    H244648   2.316   3.958   4.471 -0.7980  1.5484  1.3534
 7745TIP3   OH244649   5.343   4.591   2.694  0.3858  0.3684  0.2959
 7745TIP3    H144650   5.386   4.572   2.777 -0.9083 -0.5975  0.7888
 7745TIP3    H244651   5.400   4.654   2.650  1.8911 -0.3211  1.2127
 7746TIP3   OH244652   4.830   0.092   2.102 -0.2374  0.6555 -0.3127
 7746TIP3    H144653   4.869   0.011   2.133  1.4222  0.2811 -2.9656
 7746TIP3    H244654   4.739   0.070   2.082  0.1482 -0.5604 -0.8541
 7747TIP3   OH244655   2.190   0.185  15.387  0.4777 -0.5407 -0.1564
 7747TIP3    H144656   2.165   0.277  15.397  2.2949  0.0051 -0.2637
 7747TIP3    H244657   2.145   0.140  15.458  1.5211  0.8547  1.4568
 7748TIP3   OH244658   4.895   6.625   3.860 -0.6481  0.1505  0.1644
 7748TIP3    H144659   4.947   6.580   3.793  0.1066  0.6934  0.3662
 7748TIP3    H244660   4.958   6.646   3.928 -0.8146  2.1702 -0.2573
 7749TIP3   OH244661   4.270   4.350   6.361 -0.9868 -0.2273  0.3365
 7749TIP3    H144662   4.301   4.408   6.292 -0.9072  2.1796  2.2310
 7749TIP3    H244663   4.175   4.347   6.350 -0.8770 -0.7740 -0.5152
 7750TIP3   OH244664   4.737   5.483   1.723  0.3118  0.7870 -0.1742
 7750TIP3    H144665   4.757   5.483   1.629 -4.0692  0.3913 -1.3441
 7750TIP3    H244666   4.802   5.542   1.762  2.0553  1.2940 -3.4706
 7751TIP3   OH244667   0.360   1.946   5.118  0.0554 -0.5085  0.0880
 7751TIP3    H144668   0.352   1.868   5.173 -1.4878 -0.8144 -0.5199
 7751TIP3    H244669   0.318   1.922   5.035 -0.0241  0.7961 -0.2811
 7752TIP3   OH244670   2.628   3.516  14.522 -0.1066  0.3896 -0.1786
 7752TIP3    H144671   2.556   3.566  14.562 -1.6652 -2.0115  0.2178
 7752TIP3    H244672   2.705   3.572  14.534 -1.5948  2.3534  0.8631
 7753TIP3   OH244673   4.343   2.245   2.583 -0.4800 -0.0685  0.1727
 7753TIP3    H144674   4.265   2.251   2.638 -2.0669  1.8995 -2.0776
 7753TIP3    H244675   4.313   2.201   2.503  0.8082  0.3294 -0.5620
 7754TIP3   OH244676   5.885   0.436  13.843 -0.3035  0.3064 -0.2419
 7754TIP3    H144677   5.959   0.439  13.782 -0.8647 -1.4189 -1.0958
 7754TIP3    H244678   5.814   0.480  13.797  0.2372  2.3575  0.7551
 7755TIP3   OH244679   2.305   0.484   3.153  0.4172 -0.4419 -0.4631
 7755TIP3    H144680   2.219   0.485   3.193  2.6104 -0.7542  5.2378
 7755TIP3    H244681   2.336   0.574   3.161  1.8709 -1.0352  1.1211
 7756TIP3   OH244682   0.061   4.393  15.417 -1.0588  0.0453 -0.2321
 7756TIP3    H144683   0.104   4.309  15.436  0.1531  0.0951 -2.3556
 7756TIP3    H244684   0.100   4.454  15.479  2.0461  0.0599 -1.9975
 7757TIP3   OH244685   0.375   0.305   2.170 -0.2623  0.5415 -0.3362
 7757TIP3    H144686   0.445   0.289   2.233  0.7449 -0.5733 -1.6809
 7757TIP3    H244687   0.313   0.235   2.185 -0.0331  0.2882 -0.5651
 7758TIP3   OH244688   0.718   4.766   4.776 -0.1880 -0.0724 -0.3269
 7758TIP3    H144689   0.695   4.842   4.723  0.4597  1.0544  0.9214
 7758TIP3    H244690   0.634   4.725   4.797 -0.9903  2.3765  1.8944
 7759TIP3   OH244691   6.419   0.788   2.807 -0.0563  0.1908  0.3500
 7759TIP3    H144692   6.424   0.785   2.712 -1.5109  0.3177  0.2488
 7759TIP3    H244693   6.338   0.742   2.829 -0.3119  1.0989  1.4383
 7760TIP3   OH244694   4.882   3.474  11.377 -0.4109  0.2395 -0.5637
 7760TIP3    H144695   4.901   3.558  11.336  0.9476  0.8859  1.2718
 7760TIP3    H244696   4.953   3.461  11.441 -1.7151 -1.2908  0.6730
 7761TIP3   OH244697   6.473   3.333   5.054 -0.4718  0.4539  0.0687
 7761TIP3    H144698   6.547   3.309   4.998  1.4602 -0.0274  2.6569
 7761TIP3    H244699   6.420   3.391   4.999  2.6656  2.1420 -1.4562
 7762TIP3   OH244700   6.573   6.312   3.423  0.5228 -0.9374 -0.4381
 7762TIP3    H144701   6.481   6.337   3.436  0.3290 -1.8182  0.0075
 7762TIP3    H244702   6.615   6.335   3.506  0.5961 -0.9879 -0.4615
 7763TIP3   OH244703   4.577   1.149  15.256 -0.3431  0.0478  0.3869
 7763TIP3    H144704   4.671   1.166  15.266 -0.2817  0.8401 -1.3079
 7763TIP3    H244705   4.570   1.092  15.180 -1.2258 -0.2512  0.6787
 7764TIP3   OH244706   1.537   5.201  13.944 -0.1138 -0.2123  0.1985
 7764TIP3    H144707   1.483   5.183  13.867  0.5474  1.3338 -0.6805
 7764TIP3    H244708   1.474   5.214  14.014 -0.9885  2.0289 -0.9083
 7765TIP3   OH244709   5.512   1.237   1.604 -0.1408 -0.0619 -0.2749
 7765TIP3    H144710   5.606   1.236   1.585  0.0564 -0.8702  0.6215
 7765TIP3    H244711   5.479   1.315   1.561  1.2496  1.1489  0.7615
 7766TIP3   OH244712   2.612   6.531   5.439  0.5422  0.4981 -0.1620
 7766TIP3    H144713   2.571   6.615   5.420 -2.6363 -0.7719  0.4874
 7766TIP3    H244714   2.572   6.502   5.521  1.7090 -1.5289 -0.2311
 7767TIP3   OH244715   4.060   3.525  12.363 -0.0635  0.6209 -0.1700
 7767TIP3    H144716   4.045   3.431  12.356  0.2481  0.4626  1.0964
 7767TIP3    H244717   3.976   3.562  12.389 -0.8443  1.0359 -2.9650
 7768TIP3   OH244718   6.576   1.381   4.073 -0.3740 -0.4455  0.1539
 7768TIP3    H144719   6.501   1.440   4.069 -0.1895 -0.2106  0.1284
 7768TIP3    H244720   6.597   1.375   4.166  0.3793  0.5174  0.0614
 7769TIP3   OH244721   5.755   1.154   2.232  0.7877  0.0518  0.1311
 7769TIP3    H144722   5.731   1.245   2.249  0.3781 -0.3131  1.7124
 7769TIP3    H244723   5.675   1.112   2.201 -0.0885 -0.5693  2.9404
 7770TIP3   OH244724   1.504   0.205  13.017 -0.4695 -0.3524  0.2162
 7770TIP3    H144725   1.490   0.244  12.931 -0.5901 -1.0737 -0.0989
 7770TIP3    H244726   1.522   0.113  12.999  0.4946 -0.3125  0.8942
 7771TIP3   OH244727   6.732   0.566  14.977 -0.3655  0.3551 -0.3654
 7771TIP3    H144728   6.823   0.551  15.004 -0.1673  0.5865 -0.8790
 7771TIP3    H244729   6.732   0.546  14.883 -0.6943  0.9732 -0.5014
 7772TIP3   OH244730   2.799   0.734  15.029 -0.0889  0.6836  0.2341
 7772TIP3    H144731   2.772   0.656  15.078 -1.5232  1.3361  0.5199
 7772TIP3    H244732   2.758   0.724  14.943  1.4354  0.1313 -0.4622
 7773TIP3   OH244733   4.694   1.626  11.290 -0.3354  0.7431  0.1724
 7773TIP3    H144734   4.775   1.617  11.241 -0.5872 -1.8109  0.1338
 7773TIP3    H244735   4.625   1.627  11.223 -0.5040 -0.0202  0.3277
 7774TIP3   OH244736   4.709   3.007  16.038  0.1703  0.7335  0.4634
 7774TIP3    H144737   4.770   3.054  15.981  1.1770  0.3315  1.1630
 7774TIP3    H244738   4.764   2.941  16.081 -0.5978  0.8617  1.6940
 7775TIP3   OH244739   1.688   5.075  14.830 -0.2090  0.5150 -0.3996
 7775TIP3    H144740   1.615   5.092  14.889  0.5651 -0.3882  0.8734
 7775TIP3    H244741   1.675   4.984  14.802  1.2857 -0.2207  1.1629
 7776TIP3   OH244742   1.130   3.681  12.462 -0.0108  0.4310 -0.3461
 7776TIP3    H144743   1.185   3.603  12.467 -0.1509  0.4183  2.1139
 7776TIP3    H244744   1.192   3.753  12.446  0.1204 -0.0899 -2.5953
 7777TIP3   OH244745   6.336   1.915   4.773 -0.2089  0.7736 -0.7097
 7777TIP3    H144746   6.426   1.920   4.806  0.0778 -0.3699 -1.2683
 7777TIP3    H244747   6.282   1.928   4.851  0.4399  0.5275 -0.2041
 7778TIP3   OH244748   4.040   4.239   3.029 -0.4329  0.3165 -0.3610
 7778TIP3    H144749   4.078   4.163   2.984  1.5062  0.6458  0.5945
 7778TIP3    H244750   4.038   4.308   2.963  0.8842  0.3410 -0.3992
 7779TIP3   OH244751   5.626   6.685   0.966  0.5499  0.1743 -0.1839
 7779TIP3    H144752   5.650   6.671   0.874 -0.4262 -0.8949 -0.3037
 7779TIP3    H244753   5.586   6.602   0.993 -0.9209  1.1069  0.6453
 7780TIP3   OH244754   4.569   4.898   4.295 -0.0743  0.0309 -0.2467
 7780TIP3    H144755   4.512   4.821   4.297 -0.3574  0.2443  0.9854
 7780TIP3    H244756   4.622   4.887   4.216 -1.3254 -0.5288 -1.0286
 7781TIP3   OH244757   0.178   2.541   2.874 -0.0764  0.2544  0.2637
 7781TIP3    H144758   0.189   2.447   2.857  1.5370  0.5305 -0.4494
 7781TIP3    H244759   0.112   2.545   2.943 -2.1324 -1.2541 -1.4922
 7782TIP3   OH244760   5.551   6.440  15.696 -0.3355  0.2405  0.3794
 7782TIP3    H144761   5.578   6.348  15.686  2.6955  0.7802  2.2207
 7782TIP3    H244762   5.520   6.465  15.610  0.0648 -2.1413 -0.5571
 7783TIP3   OH244763   6.638   5.117  16.422  0.2737 -0.9708 -0.0009
 7783TIP3    H144764   6.621   5.182  16.354 -0.4644  1.2472  2.1438
 7783TIP3    H244765   6.566   5.054  16.414 -0.5641  0.0223 -0.4276
 7784TIP3   OH244766   3.975   6.120   6.375  0.5798  0.6407 -0.5839
 7784TIP3    H144767   4.008   6.188   6.434  1.3881  0.4178 -0.7635
 7784TIP3    H244768   4.051   6.064   6.358 -0.6792 -2.1139  1.9644
 7785TIP3   OH244769   0.756   6.320  12.684 -0.2211  0.3207 -0.2413
 7785TIP3    H144770   0.798   6.286  12.763  2.9263 -0.4630 -2.0652
 7785TIP3    H244771   0.818   6.386  12.651 -1.1837  0.2626 -2.3189
 7786TIP3   OH244772   4.782   1.279  16.357 -0.3974  0.0607  0.1177
 7786TIP3    H144773   4.847   1.302  16.423  0.1418 -0.2612 -0.3005
 7786TIP3    H244774   4.832   1.262  16.278 -1.0759  0.8946 -0.5136
 7787TIP3   OH244775   5.933   0.722  11.646 -0.5310 -0.0431 -0.1233
 7787TIP3    H144776   5.892   0.640  11.673 -1.8581 -0.0515 -1.9245
 7787TIP3    H244777   6.026   0.709  11.662 -0.9736 -0.8863  2.0416
 7788TIP3   OH244778   5.630   4.740  12.907 -0.1199  0.0518 -0.3962
 7788TIP3    H144779   5.621   4.761  13.000  1.0315  1.9564 -0.6610
 7788TIP3    H244780   5.712   4.691  12.902 -1.5399 -2.5161 -0.1164
 7789TIP3   OH244781   2.390   5.543   1.422  0.6414  0.1243  0.0062
 7789TIP3    H144782   2.438   5.581   1.349 -1.7373  2.2986 -0.5786
 7789TIP3    H244783   2.380   5.615   1.484  1.0801 -1.2061  1.6914
 7790TIP3   OH244784   1.993   5.741  11.105  0.3015 -0.2531  0.2773
 7790TIP3    H144785   1.977   5.784  11.021 -2.0194 -1.2082  0.1617
 7790TIP3    H244786   2.016   5.651  11.082  2.4035  0.1448  0.6191
 7791TIP3   OH244787   1.188   3.860  11.859  0.1310  0.3674  0.1026
 7791TIP3    H144788   1.152   3.844  11.946 -0.1042  1.3868  0.1990
 7791TIP3    H244789   1.241   3.782  11.841 -1.6035 -0.9087  0.1995
 7792TIP3   OH244790   2.560   1.900  14.967  0.4226 -0.0348 -0.0756
 7792TIP3    H144791   2.488   1.867  15.020 -0.2673 -0.6216 -1.3159
 7792TIP3    H244792   2.639   1.867  15.009 -0.0379  0.3124  1.1010
 7793TIP3   OH244793   0.005   3.812   2.126 -0.3095  0.0311 -0.5045
 7793TIP3    H144794  -0.009   3.901   2.159 -0.0482  0.5137 -1.6370
 7793TIP3    H244795  -0.071   3.794   2.071  0.1024 -0.0647 -1.0501
 7794TIP3   OH244796   0.499   1.309  11.186  0.0835  0.1035  0.8446
 7794TIP3    H144797   0.499   1.350  11.273 -0.7464  1.0374  0.4299
 7794TIP3    H244798   0.444   1.232  11.196 -0.9643  0.8375  0.8881
 7795TIP3   OH244799   5.503   1.083  12.661  1.0052  0.1367 -0.1783
 7795TIP3    H144800   5.526   0.992  12.642  0.6138 -0.8589  3.3846
 7795TIP3    H244801   5.582   1.133  12.639  3.2960 -1.8871  2.7734
 7796TIP3   OH244802   1.830   4.860   3.402  0.5266  0.1561 -0.0841
 7796TIP3    H144803   1.923   4.847   3.422  0.7280 -0.7807 -1.4965
 7796TIP3    H244804   1.826   4.855   3.307 -0.5641  2.9864 -0.2884
 7797TIP3   OH244805   3.536   3.379  13.693  0.1266  0.3430 -0.4007
 7797TIP3    H144806   3.619   3.415  13.665  1.7360 -0.7187  2.5330
 7797TIP3    H244807   3.500   3.446  13.752  0.3416 -0.3631  0.5606
 7798TIP3   OH244808   5.041   5.363   4.772  0.6473  0.3020 -0.1232
 7798TIP3    H144809   4.985   5.286   4.770  0.5880  0.2945  1.3061
 7798TIP3    H244810   4.984   5.435   4.744  0.1415  0.1669  0.5508
 7799TIP3   OH244811   2.725   3.007  16.496  0.3014 -0.1563 -0.0270
 7799TIP3    H144812   2.717   2.917  16.463 -0.6016  0.3815 -1.3312
 7799TIP3    H244813   2.814   3.012  16.531  0.2519 -1.6590  0.3758
 7800TIP3   OH244814   0.042   5.271  15.255  0.3454 -0.1944  0.2700
 7800TIP3    H144815   0.118   5.278  15.312 -0.1750 -0.2575  0.9822
 7800TIP3    H244816   0.078   5.251  15.169  1.3095  2.0836  0.0759
 7801TIP3   OH244817   4.152   5.607  14.007 -0.2742 -0.2202 -0.9620
 7801TIP3    H144818   4.216   5.602  14.077 -2.5826  0.1252  1.3364
 7801TIP3    H244819   4.121   5.697  14.009 -2.3544 -0.8903 -0.4822
 7802TIP3   OH244820   2.997   3.492  14.674  0.2110 -0.1090 -0.0953
 7802TIP3    H144821   3.061   3.562  14.671 -0.4871  0.7652  2.4052
 7802TIP3    H244822   2.922   3.525  14.625  0.1392  0.6394  0.5025
 7803TIP3   OH244823   2.432   3.943   0.602 -0.1931  0.7987  0.7170
 7803TIP3    H144824   2.502   3.896   0.555 -1.6688  0.4869 -1.2861
 7803TIP3    H244825   2.452   3.928   0.694  0.9202 -1.5452  0.1895
 7804TIP3   OH244826   4.395   4.710   2.348  0.3277  0.0319 -0.4962
 7804TIP3    H144827   4.460   4.642   2.365  0.2609 -0.0206 -0.4521
 7804TIP3    H244828   4.321   4.664   2.308 -0.0685 -0.0602  0.3247
 7805TIP3   OH244829   3.214   3.242   4.058 -0.4477 -0.1314  0.3416
 7805TIP3    H144830   3.186   3.328   4.028 -0.4374 -0.3623 -0.3432
 7805TIP3    H244831   3.204   3.245   4.154  1.3211  1.2623  0.5336
 7806TIP3   OH244832   2.570   5.990   0.596  0.7063 -0.7324  0.2057
 7806TIP3    H144833   2.600   6.031   0.515 -0.1246  0.2060  0.3567
 7806TIP3    H244834   2.628   5.915   0.608  2.0322  0.1956 -0.2703
 7807TIP3   OH244835   4.379   5.173  16.955  0.8343  0.7112 -0.2471
 7807TIP3    H144836   4.384   5.084  16.921  1.2439  0.5844  0.1451
 7807TIP3    H244837   4.313   5.216  16.899 -2.3615 -0.9073  1.9826
 7808TIP3   OH244838   3.141   4.643   4.232  0.0798  0.1665  0.0895
 7808TIP3    H144839   3.065   4.695   4.257  0.0778  0.4033 -0.3895
 7808TIP3    H244840   3.121   4.555   4.262 -1.1442 -0.1375 -1.5241
 7809TIP3   OH244841   2.970   5.742  16.702  0.2982 -0.4246 -0.0282
 7809TIP3    H144842   2.908   5.723  16.773  2.0865 -1.2190  1.4012
 7809TIP3    H244843   2.995   5.656  16.669  0.9754 -0.1371 -0.2756
 7810TIP3   OH244844   3.905   0.584   3.641 -0.0980 -0.1947  0.6254
 7810TIP3    H144845   3.956   0.517   3.687  2.6179  1.7383  0.6765
 7810TIP3    H244846   3.932   0.576   3.549 -1.4396 -0.5486  0.2345
 7811TIP3   OH244847   0.072   5.856  15.587  0.3197 -0.6131 -0.6845
 7811TIP3    H144848   0.034   5.864  15.499 -0.6278 -1.3794 -0.3539
 7811TIP3    H244849   0.004   5.814  15.639  0.7442  0.1394  0.5168
 7812TIP3   OH244850   4.019   3.543  10.421 -0.1349 -0.1424  0.0291
 7812TIP3    H144851   3.944   3.574  10.371 -0.1759 -1.1095 -0.5335
 7812TIP3    H244852   3.981   3.502  10.499 -0.1718 -0.3032 -0.0730
 7813TIP3   OH244853   5.717   4.856  16.072  0.6054 -0.1897 -0.3663
 7813TIP3    H144854   5.728   4.806  16.153 -1.0901 -0.7334 -0.4300
 7813TIP3    H244855   5.805   4.860  16.034  1.1491 -1.2851  0.7069
 7814TIP3   OH244856   4.716   5.437   5.609  0.2957 -0.5427  0.1186
 7814TIP3    H144857   4.753   5.384   5.539 -0.5181  0.8424 -1.4531
 7814TIP3    H244858   4.625   5.406   5.617  0.4123 -0.7566  0.6300
 7815TIP3   OH244859   5.128   6.621   2.085 -0.1116 -0.4897 -0.0479
 7815TIP3    H144860   5.178   6.599   2.007  1.3491  1.6718  0.2090
 7815TIP3    H244861   5.056   6.675   2.052  1.0086  1.1748  0.1311
 7816TIP3   OH244862   4.548   1.563   3.548 -0.1846 -0.0311  0.8434
 7816TIP3    H144863   4.581   1.644   3.586  2.2943 -1.1588  1.3225
 7816TIP3    H244864   4.506   1.517   3.620  0.9799 -0.4058  1.3110
 7817TIP3   OH244865   6.510   1.455  16.050  0.1650  0.1656  0.0974
 7817TIP3    H144866   6.473   1.510  15.981  0.9696  0.0930 -0.4008
 7817TIP3    H244867   6.555   1.385  16.004 -0.2830 -0.5453  0.7241
 7818TIP3   OH244868   1.684   1.839   0.262 -0.0690  0.4801  0.3670
 7818TIP3    H144869   1.670   1.890   0.342  1.5337  0.1450  0.8910
 7818TIP3    H244870   1.764   1.876   0.224 -0.2714 -0.0144 -0.5733
 7819TIP3   OH244871   6.392   2.670  11.140  0.6573  0.2002 -0.7590
 7819TIP3    H144872   6.448   2.594  11.158  1.3542  1.0917  1.2076
 7819TIP3    H244873   6.429   2.710  11.062  1.6436 -0.2863 -0.5532
 7820TIP3   OH244874   0.167   2.033  14.124 -0.3453 -0.3950 -0.0930
 7820TIP3    H144875   0.132   1.988  14.201  1.1651 -1.0068  0.2807
 7820TIP3    H244876   0.262   2.032  14.138 -0.1644  1.0779 -1.1072
 7821TIP3   OH244877   0.705   0.094  17.055  0.7215  0.6755 -0.0975
 7821TIP3    H144878   0.754   0.054  16.983  1.0005  0.4556  0.2089
 7821TIP3    H244879   0.619   0.114  17.018  0.1510 -1.2812  0.0381
 7822TIP3   OH244880   6.097   0.777   1.791 -0.4098 -0.1712  0.1909
 7822TIP3    H144881   6.149   0.853   1.767 -1.3972  0.0954 -1.2351
 7822TIP3    H244882   6.157   0.722   1.841  0.6644  0.9919  0.2294
 7823TIP3   OH244883   2.605   0.802   3.476  0.1962  0.8629 -0.0039
 7823TIP3    H144884   2.591   0.707   3.474  0.6084  0.7835  0.6689
 7823TIP3    H244885   2.568   0.833   3.393 -1.4750  0.3273  0.4888
 7824TIP3   OH244886   4.699   3.032  11.872 -0.8445  1.0623  0.1883
 7824TIP3    H144887   4.704   2.949  11.824 -0.3102  0.8617  0.5859
 7824TIP3    H244888   4.628   3.080  11.829 -0.3321  0.9152 -0.8506
 7825TIP3   OH244889   0.823   4.059  13.967 -0.0237  0.0339  0.0405
 7825TIP3    H144890   0.737   4.091  13.993 -0.3969 -0.9198 -0.0106
 7825TIP3    H244891   0.863   4.028  14.048  0.6170  1.2191  0.2104
 7826TIP3   OH244892   4.911   1.377  10.333 -1.0838  0.1513  0.5799
 7826TIP3    H144893   4.985   1.434  10.357 -2.4562  1.9643  0.7116
 7826TIP3    H244894   4.929   1.352  10.242  0.2246 -0.3437  0.9529
 7827TIP3   OH244895   3.539   5.594  15.729 -0.1746 -0.0008  0.6533
 7827TIP3    H144896   3.529   5.595  15.824  0.2338 -1.5987  0.7427
 7827TIP3    H244897   3.451   5.606  15.695 -0.1419  2.0783  1.1818
 7828TIP3   OH244898   1.401   5.968  15.298 -0.4749  0.0636 -0.5212
 7828TIP3    H144899   1.408   6.063  15.290  0.9047 -0.0412 -0.8575
 7828TIP3    H244900   1.491   5.937  15.292 -0.7496 -1.1718  0.9819
 7829TIP3   OH244901   2.809   5.884  15.870  0.6378 -0.0660  0.4137
 7829TIP3    H144902   2.742   5.902  15.804 -0.5175 -1.0823  1.2675
 7829TIP3    H244903   2.781   5.802  15.911  3.5969 -1.8177 -0.7148
 7830TIP3   OH244904   0.085   2.988   2.365  0.3668 -0.2423  0.1911
 7830TIP3    H144905   0.174   2.962   2.389  0.5647  1.5645  1.6059
 7830TIP3    H244906   0.032   2.911   2.387  1.6042 -1.5850 -1.2802
 7831TIP3   OH244907   5.772   2.314   2.755 -0.5154  0.3614 -0.8563
 7831TIP3    H144908   5.832   2.388   2.757 -0.3052  0.2249 -1.5785
 7831TIP3    H244909   5.708   2.337   2.687 -2.6610  1.5166  1.4048
 7832TIP3   OH244910   2.336   4.289   4.553 -0.2133 -0.2143  0.2787
 7832TIP3    H144911   2.369   4.203   4.580  1.2931  0.4639  0.7322
 7832TIP3    H244912   2.413   4.334   4.518 -1.0942  0.7631 -0.4840
 7833TIP3   OH244913   6.477   2.585  16.053 -0.2003  0.2714 -0.2707
 7833TIP3    H144914   6.567   2.612  16.031 -0.2547  1.3769  0.7428
 7833TIP3    H244915   6.479   2.568  16.147 -1.7496  3.6572  0.5355
 7834TIP3   OH244916   0.935   5.748   4.614  0.3357  0.0642  0.3191
 7834TIP3    H144917   0.867   5.737   4.547  0.6554  0.7007 -0.1222
 7834TIP3    H244918   0.935   5.665   4.661 -1.5663  0.4404  1.0979
 7835TIP3   OH244919   5.694   0.082   5.633  0.3922  0.3739  0.1640
 7835TIP3    H144920   5.745   0.001   5.627 -0.1483  0.1170 -1.3680
 7835TIP3    H244921   5.646   0.086   5.551  0.3510  2.2268  0.2384
 7836TIP3   OH244922   4.082   4.768   2.135 -0.3493  0.0715  1.4102
 7836TIP3    H144923   4.124   4.703   2.192  0.7217  1.3146  2.0939
 7836TIP3    H244924   4.078   4.848   2.188 -1.5024  0.6299  0.5382
 7837TIP3   OH244925   6.627   1.337  13.923 -0.0050  0.6364 -0.1004
 7837TIP3    H144926   6.649   1.244  13.917 -0.0829  0.5977  0.1850
 7837TIP3    H244927   6.672   1.377  13.848  1.3696  0.6288  0.6814
 7838TIP3   OH244928   2.786   1.245   3.227 -0.0728 -0.1664  0.3634
 7838TIP3    H144929   2.720   1.186   3.192  0.8595 -2.0824  1.6955
 7838TIP3    H244930   2.779   1.323   3.172 -3.8918  0.0484  0.8567
 7839TIP3   OH244931   3.047   6.620  10.411  0.2485 -0.5440 -0.0694
 7839TIP3    H144932   3.051   6.705  10.453  0.0162 -1.8115  2.7126
 7839TIP3    H244933   2.957   6.590  10.424  0.5069 -1.5106 -0.3979
 7840TIP3   OH244934   3.227   4.573   5.158  0.0895 -0.0696  0.3861
 7840TIP3    H144935   3.295   4.507   5.169 -0.2589 -0.8817 -1.8171
 7840TIP3    H244936   3.208   4.603   5.247  2.4119 -0.7069  1.1630
 7841TIP3   OH244937   0.537   0.269   4.164  0.1199  0.0156 -0.0925
 7841TIP3    H144938   0.494   0.346   4.125 -0.1949 -0.8962 -1.5994
 7841TIP3    H244939   0.598   0.306   4.228 -0.1133  1.5226 -0.6989
 7842TIP3   OH244940   2.206   4.957  10.999 -0.4330 -0.3078  0.3106
 7842TIP3    H144941   2.186   5.050  11.007  1.4824  0.0137  2.8681
 7842TIP3    H244942   2.218   4.927  11.090  0.2185 -2.7422 -0.4892
 7843TIP3   OH244943   2.171   2.560  16.373 -0.4338 -0.1908 -0.9092
 7843TIP3    H144944   2.125   2.578  16.291  0.3522 -2.8815 -2.0629
 7843TIP3    H244945   2.260   2.538  16.346 -0.2861 -1.6314  0.5928
 7844TIP3   OH244946   2.163   1.026   1.280  0.0657 -0.2258 -0.0978
 7844TIP3    H144947   2.212   0.949   1.309  0.2173  0.4433  1.5389
 7844TIP3    H244948   2.131   1.066   1.361  0.8435  1.9960 -0.7995
 7845TIP3   OH244949   6.134   5.191   3.661  0.4308 -0.1315  0.0278
 7845TIP3    H144950   6.155   5.269   3.610  1.0336 -0.1881  0.1893
 7845TIP3    H244951   6.143   5.219   3.753  0.5380 -0.3577  0.0866
 7846TIP3   OH244952   1.937   4.417  14.483  0.5559 -0.0830 -0.3285
 7846TIP3    H144953   1.962   4.342  14.430  0.7966 -0.0621 -0.2438
 7846TIP3    H244954   1.894   4.476  14.422 -1.7291 -1.2662  0.0056
 7847TIP3   OH244955   3.198   6.196   3.148  0.2767 -0.0380  0.3690
 7847TIP3    H144956   3.165   6.118   3.192 -0.8440  1.2780  1.9726
 7847TIP3    H244957   3.289   6.204   3.178 -0.2904  0.4940  2.0247
 7848TIP3   OH244958   4.353   2.196   6.377 -0.0745  0.0259 -0.4083
 7848TIP3    H144959   4.348   2.279   6.329 -3.1451  0.4809  0.4591
 7848TIP3    H244960   4.308   2.133   6.321 -1.7344  0.0585  0.7966
 7849TIP3   OH244961   0.870   3.038  16.261 -0.0801 -0.4840  0.4704
 7849TIP3    H144962   0.952   2.991  16.277 -0.1274  0.0755  2.8215
 7849TIP3    H244963   0.898   3.121  16.223  0.2742 -0.9942 -0.4255
 7850TIP3   OH244964   5.199   0.274   0.580  0.5467  1.2012  0.0603
 7850TIP3    H144965   5.129   0.339   0.571  0.3413  0.9043 -0.4802
 7850TIP3    H244966   5.157   0.190   0.564  0.3436  0.6861  2.7931
 7851TIP3   OH244967   1.445   2.589  13.046 -0.4021 -0.4840 -0.2267
 7851TIP3    H144968   1.470   2.583  12.954 -1.1579  0.0630 -0.4824
 7851TIP3    H244969   1.512   2.539  13.093  0.3837 -0.1902 -1.0034
 7852TIP3   OH244970   0.754   1.946   0.160 -0.1955  0.2422 -0.1226
 7852TIP3    H144971   0.744   1.904   0.075 -2.2620 -0.4474  0.4016
 7852TIP3    H244972   0.847   1.935   0.181  0.0568 -0.8579 -1.6259
 7853TIP3   OH244973   4.570   6.008   3.748  0.0336  0.2492 -0.0830
 7853TIP3    H144974   4.618   5.937   3.706  0.5228 -1.5192  3.1309
 7853TIP3    H244975   4.508   5.965   3.806  0.1397  2.4235  1.7931
 7854TIP3   OH244976   1.567   0.652   1.346  0.4620  0.0081 -0.2521
 7854TIP3    H144977   1.502   0.635   1.415  0.4541  1.5139  0.1474
 7854TIP3    H244978   1.593   0.743   1.360  1.7263 -0.1864 -1.2037
 7855TIP3   OH244979   6.166   6.628  16.346 -0.0011 -0.1926 -0.3724
 7855TIP3    H144980   6.109   6.559  16.379  0.6136 -0.1054  0.9180
 7855TIP3    H244981   6.239   6.581  16.304  0.6700 -0.3543  0.9397
 7856TIP3   OH244982   0.586   4.250   3.926 -0.2109  0.3822 -0.6165
 7856TIP3    H144983   0.524   4.194   3.973 -2.4050  1.2870 -2.2925
 7856TIP3    H244984   0.668   4.239   3.974 -1.7787 -0.3264  2.1500
 7857TIP3   OH244985   3.338   1.773  16.858  0.3017  0.6462  0.3090
 7857TIP3    H144986   3.396   1.813  16.793  0.9242  0.5344  0.7812
 7857TIP3    H244987   3.385   1.784  16.941 -0.0574 -0.0285  0.6083
 7858TIP3   OH244988   2.630   6.445  16.319  0.3075  0.0793 -0.1144
 7858TIP3    H144989   2.629   6.350  16.309  0.4782  0.0263  0.3404
 7858TIP3    H244990   2.691   6.461  16.391  0.8468  0.5826 -0.6761
 7859TIP3   OH244991   1.108   0.909   5.751 -0.1061  0.4449  0.6867
 7859TIP3    H144992   1.144   0.837   5.699 -0.5640 -0.0217  1.0084
 7859TIP3    H244993   1.176   0.976   5.749 -0.3534  0.6814 -1.0200
 7860TIP3   OH244994   6.442   5.434  13.044 -0.1275  0.5268  0.2780
 7860TIP3    H144995   6.350   5.449  13.023  0.5641  1.6686 -2.2702
 7860TIP3    H244996   6.481   5.522  13.047  1.1408 -0.0002 -0.0732
 7861TIP3   OH244997   6.681   1.273  17.004 -0.8855  0.5419 -0.3972
 7861TIP3    H144998   6.642   1.259  17.090  0.2003  1.2440  0.2174
 7861TIP3    H244999   6.633   1.348  16.968  0.0642  1.5936  0.4806
 7862TIP3   OH245000   5.021   6.146  16.373  0.1325  0.4172  0.1281
 7862TIP3    H145001   5.068   6.130  16.291  0.0462 -1.0439  0.3268
 7862TIP3    H245002   5.028   6.240  16.387  0.9716  0.5564 -1.0619
 7863TIP3   OH245003   5.815   5.199   4.532 -0.1737  0.0388  0.4337
 7863TIP3    H145004   5.787   5.132   4.469  2.0317 -1.5442  0.9993
 7863TIP3    H245005   5.771   5.176   4.613 -1.0323  0.5525  0.1254
 7864TIP3   OH245006   2.038   1.074  12.059  0.2229  0.2455  0.0942
 7864TIP3    H145007   2.061   1.165  12.080  1.7473 -0.4836  1.8644
 7864TIP3    H245008   2.016   1.035  12.143 -0.2862 -1.0688 -0.6217
 7865TIP3   OH245009   3.916   5.337   3.128 -0.1728  0.4183  0.1754
 7865TIP3    H145010   3.903   5.242   3.132 -0.3962  0.3443 -1.4935
 7865TIP3    H245011   3.985   5.354   3.191  2.1217 -1.3446 -1.6653
 7866TIP3   OH245012   2.533   6.420  14.451  0.6407  0.1316 -0.4267
 7866TIP3    H145013   2.468   6.474  14.407  1.3556  0.4295 -1.1435
 7866TIP3    H245014   2.604   6.480  14.473  0.7579 -0.2179  0.1929
 7867TIP3   OH245015   5.944   6.640   4.828  0.6071 -0.0453  0.3996
 7867TIP3    H145016   6.025   6.598   4.857  0.3268 -0.4046  0.6718
 7867TIP3    H245017   5.925   6.703   4.898  0.0982 -0.6934  0.8619
 7868TIP3   OH245018   4.997   0.177  13.962 -0.0022  0.1229 -0.3433
 7868TIP3    H145019   4.930   0.209  14.023  0.0754  2.0316 -1.1833
 7868TIP3    H245020   4.950   0.166  13.879  0.4683  0.2306 -0.6217
 7869TIP3   OH245021   5.264   2.750   1.691  0.5221  0.2913  0.4081
 7869TIP3    H145022   5.197   2.749   1.759  0.1221  0.3245  0.0215
 7869TIP3    H245023   5.220   2.789   1.615  1.2044  1.0028  0.3721
 7870TIP3   OH245024   2.321   5.952  11.838  0.5336  0.1702  0.1967
 7870TIP3    H145025   2.365   5.994  11.912  2.3129  0.2487 -0.8458
 7870TIP3    H245026   2.331   6.013  11.765  0.0035 -0.4779 -0.4393
 7871TIP3   OH245027   3.996   2.087   3.243  1.0459 -0.3185 -0.3262
 7871TIP3    H145028   4.045   2.166   3.219  0.8679 -0.1854 -0.2622
 7871TIP3    H245029   3.988   2.038   3.162  0.7101 -0.0203 -0.4767
 7872TIP3   OH245030   1.877   5.210  12.833  0.3332 -0.3669 -0.4976
 7872TIP3    H145031   1.940   5.281  12.820  0.3719 -0.7002 -2.5468
 7872TIP3    H245032   1.799   5.238  12.785 -0.6760 -0.4973  1.0088
 7873TIP3   OH245033   3.395   4.743  15.659 -0.6457  0.1644  0.3033
 7873TIP3    H145034   3.417   4.799  15.584 -0.6990  1.3438  1.1373
 7873TIP3    H245035   3.307   4.770  15.683 -0.7553 -0.4409  0.5970
 7874TIP3   OH245036   5.510   6.509  13.917  0.3261  0.0461  0.2099
 7874TIP3    H145037   5.443   6.499  13.984  0.9430  1.0822  1.0107
 7874TIP3    H245038   5.479   6.455  13.844 -1.5442  0.7332  0.4279
 7875TIP3   OH245039   2.415   1.919   2.375  0.3067 -0.2264 -0.0713
 7875TIP3    H145040   2.356   1.855   2.414  0.3842  0.5018  1.3120
 7875TIP3    H245041   2.417   1.897   2.282 -2.2880 -0.1991 -0.2176
 7876TIP3   OH245042   4.323   3.848  10.765 -0.6272  0.5935  0.1610
 7876TIP3    H145043   4.344   3.870  10.674 -0.2547 -0.2664  0.0228
 7876TIP3    H245044   4.350   3.924  10.815  0.9060  0.3636 -0.2622
 7877TIP3   OH245045   4.368   5.911   0.289 -0.2152 -0.5246 -0.1870
 7877TIP3    H145046   4.373   5.922   0.384 -0.7557 -1.0241 -0.0949
 7877TIP3    H245047   4.424   5.837   0.270  0.6237  0.1440 -0.3783
 7878TIP3   OH245048   6.329   5.538  14.221 -0.0381 -0.8435 -0.1400
 7878TIP3    H145049   6.344   5.482  14.146 -3.9903 -1.7239 -0.5011
 7878TIP3    H245050   6.377   5.496  14.293  1.2236 -1.7569 -1.4655
 7879TIP3   OH245051   5.613   6.104  14.349 -0.2299 -0.2085 -0.0088
 7879TIP3    H145052   5.709   6.102  14.352 -0.2196 -2.4041  0.2180
 7879TIP3    H245053   5.592   6.179  14.294  1.6990 -0.7785 -1.6441
 7880TIP3   OH245054   1.423   3.690   0.958 -0.2779 -0.6335  0.0347
 7880TIP3    H145055   1.402   3.653   1.044 -0.4997 -1.1784 -0.2453
 7880TIP3    H245056   1.345   3.673   0.905 -0.2735 -0.0015 -0.1852
 7881TIP3   OH245057   0.226   2.597   3.558  0.3830 -0.1903 -0.1900
 7881TIP3    H145058   0.150   2.557   3.517  1.4854 -0.6185 -1.8910
 7881TIP3    H245059   0.298   2.580   3.498  2.1172 -0.9091  1.9740
 7882TIP3   OH245060   2.339   2.218   4.768 -0.0594 -0.2089 -0.0108
 7882TIP3    H145061   2.347   2.301   4.721 -0.0356 -0.0082  0.3393
 7882TIP3    H245062   2.372   2.237   4.856  2.1408 -1.1800 -0.5657
 7883TIP3   OH245063   2.258   5.665  15.624 -0.4829 -0.3030 -0.4465
 7883TIP3    H145064   2.230   5.744  15.576 -1.9415 -0.6480 -0.2074
 7883TIP3    H245065   2.263   5.693  15.715  0.0231 -0.2376 -0.4896
 7884TIP3   OH245066   4.685   0.013   0.890 -0.0327  0.2492  0.4410
 7884TIP3    H145067   4.673   0.089   0.946 -0.4772 -0.8416  1.9089
 7884TIP3    H245068   4.678  -0.062   0.950 -1.2237 -1.0075 -1.1729
 7885TIP3   OH245069   2.191   2.631  13.296  0.1282 -0.0302 -0.1054
 7885TIP3    H145070   2.136   2.650  13.372  0.8461 -1.1705  0.7308
 7885TIP3    H245071   2.239   2.713  13.280 -1.5827  0.9193 -0.7244
 7886TIP3   OH245072   6.106   0.557  15.567  0.6155  0.3301  0.2562
 7886TIP3    H145073   6.151   0.594  15.491  1.5770 -2.1893 -0.4950
 7886TIP3    H245074   6.177   0.522  15.622 -0.2332 -1.7775  0.1171
 7887TIP3   OH245075   6.673   5.747   4.718  0.3809 -0.3638  0.1925
 7887TIP3    H145076   6.648   5.838   4.733  1.5603 -0.3372  2.5646
 7887TIP3    H245077   6.624   5.721   4.640 -0.0141  2.2638 -0.5394
 7888TIP3   OH245078   5.442   5.198  12.551 -0.5722  0.1525 -0.1753
 7888TIP3    H145079   5.421   5.284  12.513  0.8748  0.5614 -0.1471
 7888TIP3    H245080   5.438   5.138  12.477 -0.5604  0.4465 -0.4201
 7889TIP3   OH245081   4.118   4.060   4.515  0.4296  0.0785  0.0946
 7889TIP3    H145082   4.100   4.081   4.607  2.5415  0.5433  0.4590
 7889TIP3    H245083   4.181   4.127   4.488  1.2108 -1.1081 -1.1432
 7890TIP3   OH245084   1.207   6.237  16.120 -0.0613 -0.2178 -0.1955
 7890TIP3    H145085   1.236   6.289  16.044 -0.6154 -1.3532 -1.2197
 7890TIP3    H245086   1.218   6.146  16.091 -1.1296 -0.6640  0.7736
 7891TIP3   OH245087   6.326   5.417  17.114 -0.3394 -0.3211 -0.6095
 7891TIP3    H145088   6.337   5.342  17.171 -0.7722 -0.5635 -0.8344
 7891TIP3    H245089   6.301   5.379  17.029  0.0649  0.0407 -0.8946
 7892TIP3   OH245090   0.410   6.303   0.859 -0.4093  0.0197 -0.3425
 7892TIP3    H145091   0.460   6.325   0.937  0.6032 -2.6270 -0.1354
 7892TIP3    H245092   0.361   6.224   0.883 -1.8754  0.4531 -1.6969
 7893TIP3   OH245093   6.589   3.946  15.037  0.0662  0.1901 -0.1712
 7893TIP3    H145094   6.607   3.853  15.052  0.3715  0.2041 -0.4389
 7893TIP3    H245095   6.503   3.947  14.994  0.4193 -0.0217 -0.8956
 7894TIP3   OH245096   6.191   2.471  11.621  0.1186  1.2489 -0.4995
 7894TIP3    H145097   6.236   2.505  11.543  0.3177  3.0007  0.3530
 7894TIP3    H245098   6.255   2.481  11.691  0.6667 -2.0709 -0.3575
 7895TIP3   OH245099   4.170   0.740   1.084  0.0460  0.9088 -0.5425
 7895TIP3    H145100   4.077   0.717   1.080 -0.0767  0.7110  1.9540
 7895TIP3    H245101   4.214   0.664   1.047 -0.7689  1.1136 -2.0099
 7896TIP3   OH245102   0.546   6.168   4.049 -0.1121 -0.4056 -0.4624
 7896TIP3    H145103   0.498   6.118   3.982 -1.4416  1.1191 -0.7186
 7896TIP3    H245104   0.545   6.258   4.016  1.8565 -0.1005  0.1827
 7897TIP3   OH245105   4.037   0.919  16.058 -0.3457  0.0119 -0.8028
 7897TIP3    H145106   4.091   0.970  16.118 -1.9809  0.3242  0.4803
 7897TIP3    H245107   4.061   0.951  15.971  1.6064  0.0241 -0.3016
 7898TIP3   OH245108   5.810   3.710  14.149  0.1695  0.7797 -0.5077
 7898TIP3    H145109   5.779   3.731  14.237 -0.5360 -0.0027 -0.5570
 7898TIP3    H245110   5.735   3.728  14.093  1.0598  2.6915 -1.1668
 7899TIP3   OH245111   5.930   3.526   4.812  0.1846  0.4702 -0.4910
 7899TIP3    H145112   5.989   3.459   4.778  0.1307  0.8977 -1.4513
 7899TIP3    H245113   5.891   3.486   4.890 -3.0205 -2.2870 -3.2237
 7900TIP3   OH245114   4.674   4.220  15.179  0.0792  0.2929  0.2527
 7900TIP3    H145115   4.665   4.156  15.109  1.7439  0.4050 -0.1106
 7900TIP3    H245116   4.585   4.250  15.195 -0.6177 -1.3237 -0.2936
 7901TIP3   OH245117   0.661   5.848  11.999 -0.0515  0.0714 -0.1601
 7901TIP3    H145118   0.629   5.805  12.078  1.0784  0.3492  0.4677
 7901TIP3    H245119   0.646   5.784  11.929 -1.4932  0.0037  0.1718
 7902TIP3   OH245120   3.541   2.834  14.680 -0.1984  0.4394 -0.4490
 7902TIP3    H145121   3.556   2.838  14.775 -0.2443  0.7011 -0.4519
 7902TIP3    H245122   3.613   2.781  14.646 -0.0681  0.5149 -0.2920
 7903TIP3   OH245123   5.204   2.287   2.488  0.0945  0.0481  0.0733
 7903TIP3    H145124   5.124   2.324   2.526 -0.6229 -0.8901 -0.4779
 7903TIP3    H245125   5.186   2.282   2.394  0.3786 -1.1764  0.0762
 7904TIP3   OH245126   0.146   3.226  16.761  0.4267 -0.3576 -0.0898
 7904TIP3    H145127   0.194   3.294  16.713 -1.1200 -0.2003 -1.4948
 7904TIP3    H245128   0.135   3.262  16.849 -0.1009  1.0878 -0.7276
 7905TIP3   OH245129   5.854   2.585   1.321 -0.2603 -0.1048 -0.0038
 7905TIP3    H145130   5.933   2.636   1.342 -1.3278  1.4019  0.5002
 7905TIP3    H245131   5.837   2.533   1.399  0.4627 -0.7858 -0.2801
 7906TIP3   OH245132   5.500   1.814   0.893 -0.2552 -0.1853 -0.4205
 7906TIP3    H145133   5.440   1.752   0.934  0.4822 -1.2579 -0.9227
 7906TIP3    H245134   5.531   1.769   0.814  2.5755 -0.4457  0.7204
 7907TIP3   OH245135   1.341   6.543  11.604  0.5266 -0.2591  0.7662
 7907TIP3    H145136   1.328   6.536  11.698 -0.6874 -0.8393  0.5814
 7907TIP3    H245137   1.292   6.622  11.579 -0.6448 -1.0826  0.3933
 7908TIP3   OH245138   2.838   1.442   3.043  0.3325 -0.0410  0.2628
 7908TIP3    H145139   2.864   1.449   2.951 -0.8468  1.8716  0.0187
 7908TIP3    H245140   2.908   1.487   3.091  0.5621 -0.3610  0.2296
 7909TIP3   OH245141   2.317   2.540   0.115 -0.0413 -0.0132 -0.3278
 7909TIP3    H145142   2.273   2.467   0.159 -0.5006  0.2936 -0.2783
 7909TIP3    H245143   2.257   2.566   0.045 -0.3672  1.0073  0.3189
 7910TIP3   OH245144   2.242   5.184   3.967  0.0578  0.5075 -0.3549
 7910TIP3    H145145   2.257   5.109   4.025  0.6601  0.3793 -0.6753
 7910TIP3    H245146   2.301   5.170   3.893 -1.1508  0.3454 -1.3219
 7911TIP3   OH245147   1.833   3.272  13.695 -0.0313  0.2541 -0.2617
 7911TIP3    H145148   1.818   3.236  13.782 -2.1819 -0.5447 -0.8856
 7911TIP3    H245149   1.789   3.358  13.696  0.8009  0.6916 -0.2753
 7912TIP3   OH245150   6.096   4.847  13.890 -0.0707 -0.2143 -0.1544
 7912TIP3    H145151   6.092   4.757  13.857 -0.2010 -0.5312  0.7015
 7912TIP3    H245152   6.190   4.864  13.901 -0.0636 -0.3967  0.0797
 7913TIP3   OH245153   2.318   6.678  12.535 -0.0306  0.3537 -0.3442
 7913TIP3    H145154   2.254   6.657  12.603 -2.2429  3.0620 -1.3804
 7913TIP3    H245155   2.394   6.710  12.583 -0.2162 -0.9355  0.8844
 7914TIP3   OH245156   5.714   1.976  15.116 -0.4352 -0.3854  0.0038
 7914TIP3    H145157   5.688   1.887  15.141 -0.5894 -0.2116  0.4710
 7914TIP3    H245158   5.658   1.997  15.042 -0.0412 -0.8700 -0.4429
 7915TIP3   OH245159   0.401   3.142  16.650 -0.4378  0.8240 -0.6631
 7915TIP3    H145160   0.307   3.133  16.670  0.0845  0.5749  2.0324
 7915TIP3    H245161   0.435   3.200  16.718  1.7089 -0.6739 -0.3422
 7916TIP3   OH245162   3.696   4.921  10.578 -0.1278 -0.3974  0.0832
 7916TIP3    H145163   3.707   5.003  10.530  0.3063 -0.7938 -0.5220
 7916TIP3    H245164   3.604   4.897  10.564  0.1008 -0.7345 -0.9599
 7917TIP3   OH245165   2.075   4.066   2.045  0.5895  0.0065 -0.2609
 7917TIP3    H145166   2.049   4.084   1.954  1.8471  0.3887 -0.5616
 7917TIP3    H245167   2.108   3.976   2.044  0.7049  0.0473 -0.2119
 7918TIP3   OH245168   4.369   4.847  16.417  0.1367  0.2586 -0.7000
 7918TIP3    H145169   4.361   4.756  16.388  0.8653  0.6360 -2.1984
 7918TIP3    H245170   4.286   4.887  16.394 -0.1564 -0.0025 -0.1100
 7919TIP3   OH245171   5.094   2.409  14.270 -0.4203  0.4706 -0.4829
 7919TIP3    H145172   5.153   2.377  14.339 -1.4601  0.0602  0.2418
 7919TIP3    H245173   5.138   2.486  14.235 -0.8201  2.0169  2.1433
 7920TIP3   OH245174   2.480   3.351  13.518 -0.1964 -0.0728 -0.0008
 7920TIP3    H145175   2.509   3.415  13.454  1.4139 -0.1862  0.5696
 7920TIP3    H245176   2.447   3.404  13.591  0.6072  0.1046  0.2377
 7921TIP3   OH245177   2.538   3.579   3.245  0.3406  0.1927  0.0486
 7921TIP3    H145178   2.459   3.557   3.295 -0.3201 -1.1869 -1.5025
 7921TIP3    H245179   2.595   3.624   3.307 -0.7466 -0.7823  1.8070
 7922TIP3   OH245180   2.419   4.236  15.351 -0.0402  0.3447 -0.8193
 7922TIP3    H145181   2.501   4.188  15.349  0.5830  1.3620 -0.4072
 7922TIP3    H245182   2.370   4.197  15.424  0.6348  0.6130 -0.2136
 7923TIP3   OH245183   5.040   3.889   4.075  0.0260 -0.4171 -0.4555
 7923TIP3    H145184   5.015   3.899   4.167  0.9212  0.7179 -0.3037
 7923TIP3    H245185   5.126   3.932   4.069  0.2275 -0.9503 -1.7045
 7924TIP3   OH245186   3.455   6.253   4.943 -0.2349  0.0818  0.1593
 7924TIP3    H145187   3.360   6.262   4.949 -0.2656  0.5648 -0.7180
 7924TIP3    H245188   3.469   6.162   4.916 -0.3172 -0.6092  2.2848
 7925TIP3   OH245189   5.806   6.179  11.547 -0.6704  0.0649 -0.0151
 7925TIP3    H145190   5.881   6.225  11.509 -0.5957  0.1778  0.2673
 7925TIP3    H245191   5.827   6.172  11.640 -0.2615 -1.3396 -0.1853
 7926TIP3   OH245192   4.616   5.425  13.645 -0.1577  0.1134 -0.1667
 7926TIP3    H145193   4.606   5.329  13.643  0.6901 -0.0441  1.4941
 7926TIP3    H245194   4.662   5.446  13.564 -1.0927 -0.7784 -0.9569
 7927TIP3   OH245195   1.422   0.595   2.146 -0.0159  0.2818  0.1775
 7927TIP3    H145196   1.434   0.643   2.228  0.6721  0.8919 -0.2634
 7927TIP3    H245197   1.329   0.605   2.125 -0.3140 -0.3434  1.1568
 7928TIP3   OH245198   4.184   1.339   5.092  0.5527 -0.4737 -0.2285
 7928TIP3    H145199   4.180   1.330   5.188  1.3150  0.7531 -0.0608
 7928TIP3    H245200   4.248   1.274   5.065 -0.1429 -1.2769  0.0115
 7929TIP3   OH245201   2.838   1.068  15.087 -0.3303 -0.1248  0.3954
 7929TIP3    H145202   2.763   1.117  15.054  1.4358  0.9581 -2.3079
 7929TIP3    H245203   2.845   0.993  15.028  1.1012  0.1540  0.1942
 7930TIP3   OH245204   6.585   4.404   1.099 -0.1890  0.3185 -0.2379
 7930TIP3    H145205   6.659   4.387   1.041  0.1575  1.9065 -0.2921
 7930TIP3    H245206   6.523   4.333   1.079  1.1732 -0.8648 -0.3831
 7931TIP3   OH245207   2.376   5.364  15.171  0.0711 -0.0240  0.0289
 7931TIP3    H145208   2.329   5.398  15.248  1.5453  1.8850  0.1673
 7931TIP3    H245209   2.313   5.306  15.128 -1.6274  0.7171  1.3860
 7932TIP3   OH245210   4.962   0.956  11.448 -0.4391  0.1411 -0.6610
 7932TIP3    H145211   5.031   1.017  11.476 -1.2990  2.0598 -2.4427
 7932TIP3    H245212   4.885   0.984  11.497 -0.3529 -1.0178  0.1827
 7933TIP3   OH245213   5.934   4.862  13.227  0.1034  0.4816  0.1007
 7933TIP3    H145214   5.909   4.796  13.291 -0.3803  0.0990 -0.4705
 7933TIP3    H245215   5.949   4.942  13.278  2.6654 -0.5087  1.0803
 7934TIP3   OH245216   2.069   6.753   1.166  0.2292  0.0348  0.5148
 7934TIP3    H145217   2.012   6.677   1.178  0.0193  0.2236  0.7068
 7934TIP3    H245218   2.150   6.716   1.130  0.6797 -0.4820  1.9703
 7935TIP3   OH245219   1.609   0.539   1.627 -0.6828  0.2619  0.0735
 7935TIP3    H145220   1.640   0.623   1.661 -0.7664  1.0069 -1.6302
 7935TIP3    H245221   1.570   0.496   1.703 -1.7793  2.2992  0.7320
 7936TIP3   OH245222   1.911   4.309  16.072  0.3298 -0.5852 -0.3273
 7936TIP3    H145223   1.848   4.378  16.052  0.8259 -0.2509 -0.7732
 7936TIP3    H245224   1.875   4.230  16.030 -1.0157 -0.9813  1.4613
 7937TIP3   OH245225   2.682   0.803  11.076 -0.5397  0.0018 -0.0635
 7937TIP3    H145226   2.660   0.896  11.083 -1.0435 -0.0794 -0.5320
 7937TIP3    H245227   2.629   0.771  11.004  0.0533 -0.5328 -0.2693
 7938TIP3   OH245228   3.456   3.463   0.556  0.5251 -0.3903  0.5702
 7938TIP3    H145229   3.389   3.504   0.610  0.1658 -1.1214  0.7048
 7938TIP3    H245230   3.539   3.484   0.599  0.3729  0.3537  0.5141
 7939TIP3   OH245231   1.411   0.018   2.392  0.1251 -0.5236  0.6609
 7939TIP3    H145232   1.504  -0.002   2.401  0.3428  0.3019  0.3339
 7939TIP3    H245233   1.366  -0.062   2.418  0.9345 -1.0062  0.5885
 7940TIP3   OH245234   1.841   6.761  15.004 -0.1901 -0.1547 -0.1756
 7940TIP3    H145235   1.873   6.675  15.031  0.2922 -0.0745 -0.4812
 7940TIP3    H245236   1.821   6.805  15.086  1.6512  0.2372  0.1147
 7941TIP3   OH245237   5.924   2.336   2.204  0.7035  0.0422  0.4018
 7941TIP3    H145238   5.890   2.350   2.115  0.3994  1.5691  0.7371
 7941TIP3    H245239   5.975   2.415   2.223  2.3081 -1.0687  0.9054
 7942TIP3   OH245240   4.868   0.607  12.958  0.0870 -0.1628  0.0932
 7942TIP3    H145241   4.810   0.589  13.033 -0.4702 -0.1501 -0.3311
 7942TIP3    H245242   4.819   0.576  12.882  1.9513 -3.2492 -0.0381
 7943TIP3   OH245243   0.521   5.295  13.827 -0.4477  0.5364 -0.1738
 7943TIP3    H145244   0.576   5.307  13.749  1.7370  0.1087  1.1985
 7943TIP3    H245245   0.480   5.210  13.814 -1.3452  1.1311 -1.5149
 7944TIP3   OH245246   6.407   1.628  17.084  0.0058 -0.6674  0.6389
 7944TIP3    H145247   6.377   1.711  17.045 -2.5633 -1.1570  1.3396
 7944TIP3    H245248   6.427   1.572  17.010 -0.3737 -0.0995  0.0982
 7945TIP3   OH245249   6.457   2.751  16.875  0.2714 -0.3643 -0.1245
 7945TIP3    H145250   6.472   2.812  16.947  0.6211  0.6955 -1.0681
 7945TIP3    H245251   6.384   2.789  16.826 -0.0114 -1.1158 -0.2996
 7946TIP3   OH245252   4.853   3.374   4.568  0.3291 -0.4873 -0.1874
 7946TIP3    H145253   4.792   3.410   4.632  0.7075 -1.5321  0.8073
 7946TIP3    H245254   4.801   3.359   4.490 -0.8071 -1.6638  0.7445
 7947TIP3   OH245255   6.641   3.312   0.472 -0.3472 -0.7922 -0.2757
 7947TIP3    H145256   6.555   3.322   0.432 -0.5309  0.8692  0.4334
 7947TIP3    H245257   6.701   3.356   0.411 -0.0533 -1.6238 -0.5904
 7948TIP3   OH245258   4.769   5.725   2.175 -0.7130 -0.3715  0.4324
 7948TIP3    H145259   4.711   5.762   2.242 -0.6178  0.5572  0.0041
 7948TIP3    H245260   4.741   5.767   2.094  0.7167  0.2692  0.2520
 7949TIP3   OH245261   4.681   3.628   0.758  0.3560 -0.0968 -0.2926
 7949TIP3    H145262   4.725   3.544   0.763  0.9475  0.0067 -2.7681
 7949TIP3    H245263   4.751   3.691   0.741 -0.0892  0.9369  1.3956
 7950TIP3   OH245264   3.432   4.864   5.866 -0.2728  0.1434  0.0284
 7950TIP3    H145265   3.379   4.910   5.932  0.6810  1.4991 -0.1152
 7950TIP3    H245266   3.462   4.785   5.911 -2.1629 -0.5403  0.1971
 7951TIP3   OH245267   0.340   0.307  13.509 -0.2767  0.4035  1.0012
 7951TIP3    H145268   0.255   0.347  13.491 -0.0801 -0.0051 -1.1770
 7951TIP3    H245269   0.403   0.378  13.500 -0.2716  0.4482  1.3672
 7952TIP3   OH245270   6.662   6.298  14.377  0.5801  0.0680  0.0661
 7952TIP3    H145271   6.672   6.280  14.284  2.6936 -0.5029  0.3413
 7952TIP3    H245272   6.685   6.391  14.387  0.4753  0.0978  0.0240
 7953TIP3   OH245273   6.245   6.417   0.887 -0.3959 -0.3379 -0.4216
 7953TIP3    H145274   6.158   6.397   0.853  0.5374 -2.5695 -1.7796
 7953TIP3    H245275   6.233   6.496   0.940 -3.3612 -0.9729  0.0582
 7954TIP3   OH245276   5.224   6.207   5.237  0.3956  0.2537 -0.6769
 7954TIP3    H145277   5.173   6.211   5.318  0.8705  0.3954 -0.3763
 7954TIP3    H245278   5.161   6.224   5.167 -0.1302 -0.4466 -0.3846
 7955TIP3   OH245279   4.070   6.290  11.113  0.2572  0.1041 -0.1814
 7955TIP3    H145280   4.093   6.198  11.126  1.2239  0.3442 -0.0597
 7955TIP3    H245281   4.062   6.299  11.018  0.9992  0.0633 -0.2599
 7956TIP3   OH245282   0.938   2.639   0.605  0.2061  0.0512 -0.3103
 7956TIP3    H145283   0.963   2.654   0.696 -0.1223  2.5945 -0.5596
 7956TIP3    H245284   0.869   2.573   0.610 -1.0289  1.3711  1.5127
 7957TIP3   OH245285   3.881   3.875   0.023 -0.1691  0.2211  0.4683
 7957TIP3    H145286   3.858   3.784   0.041 -2.2113  0.2613 -1.4499
 7957TIP3    H245287   3.882   3.917   0.109  0.7657 -1.5523  1.3886
 7958TIP3   OH245288   3.912   3.485  16.564 -0.3339  0.2669 -0.0426
 7958TIP3    H145289   3.906   3.580  16.575 -0.3757  0.4169 -1.2721
 7958TIP3    H245290   3.821   3.455  16.564 -0.4593  0.5276 -1.9509
 7959TIP3   OH245291   2.036   0.762  14.893  0.1784 -0.4291  0.3382
 7959TIP3    H145292   2.002   0.682  14.851  1.1819 -0.4964 -0.3881
 7959TIP3    H245293   2.030   0.829  14.825 -1.5324  0.3865  1.2279
 7960TIP3   OH245294   3.013   3.377  14.027  0.6989 -0.5757 -0.0488
 7960TIP3    H145295   2.995   3.327  14.107 -0.9955  0.9630  0.6095
 7960TIP3    H245296   2.939   3.359  13.970  0.4787  0.5155 -0.1278
 7961TIP3   OH245297   1.622   4.954   2.269  0.2426  0.0028  0.2597
 7961TIP3    H145298   1.619   4.882   2.207 -0.2248 -0.5594  0.9147
 7961TIP3    H245299   1.591   4.916   2.352  1.5378  0.5280  1.0269
 7962TIP3   OH245300   3.386   0.352   0.239 -0.5966 -0.6128 -0.3626
 7962TIP3    H145301   3.314   0.414   0.250  0.1340  0.5945 -1.8163
 7962TIP3    H245302   3.454   0.404   0.194  1.0791 -1.7558  0.7609
 7963TIP3   OH245303   0.757   5.958   4.750  0.0412  0.2409  0.3077
 7963TIP3    H145304   0.753   5.900   4.674  0.9336  0.0057  0.4338
 7963TIP3    H245305   0.771   6.045   4.712 -2.1178  0.5515  0.0664
 7964TIP3   OH245306   1.405   1.435   3.552 -0.3112 -0.5045  0.0845
 7964TIP3    H145307   1.431   1.512   3.500 -1.7231  0.5085  0.8041
 7964TIP3    H245308   1.460   1.364   3.519  1.5923  0.9775 -0.0697
 7965TIP3   OH245309   1.096   3.165  13.776  0.7709 -0.8443  0.3091
 7965TIP3    H145310   1.031   3.230  13.800  0.3270 -0.6820 -1.2268
 7965TIP3    H245311   1.046   3.087  13.753  1.1448 -0.9548 -0.1643
 7966TIP3   OH245312   6.807   2.053   3.990  0.0443 -0.2217 -0.0801
 7966TIP3    H145313   6.891   2.069   4.033 -0.3317 -0.4280  0.7355
 7966TIP3    H245314   6.824   2.073   3.898  0.5001  1.5286  0.3464
 7967TIP3   OH245315   6.645   6.368  16.803 -0.0429  0.6194  0.0369
 7967TIP3    H145316   6.728   6.398  16.766 -0.6309  1.1214 -0.9156
 7967TIP3    H245317   6.579   6.403  16.744 -0.8534 -1.0596 -0.1086
 7968TIP3   OH245318   4.059   0.024  17.108 -0.0878  0.2075 -0.1565
 7968TIP3    H145319   4.021   0.088  17.047  0.9701  1.2576  0.2609
 7968TIP3    H245320   4.153   0.029  17.094  0.1989  0.5891  1.6614
 7969TIP3   OH245321   1.694   2.208   1.092 -0.2818  0.5502  0.0780
 7969TIP3    H145322   1.705   2.293   1.135  1.3392 -0.1831  1.1952
 7969TIP3    H245323   1.637   2.159   1.150  0.1104  0.3200  0.2714
 7970TIP3   OH245324   1.032   1.930  14.417  0.9189  0.7721 -0.4079
 7970TIP3    H145325   1.015   2.001  14.478 -0.9512 -0.3339  0.4484
 7970TIP3    H245326   0.951   1.879  14.416  2.5194 -1.9989 -0.1006
 7971TIP3   OH245327   3.498   5.353  14.930  0.2320  0.0798 -0.1531
 7971TIP3    H145328   3.491   5.345  15.025  2.3288 -0.7417 -0.0109
 7971TIP3    H245329   3.422   5.306  14.897 -0.2422 -0.0924  1.1129
 7972TIP3   OH245330   2.709   2.119   4.591  0.1526 -0.0577  0.3438
 7972TIP3    H145331   2.664   2.040   4.562  0.9480 -0.1514 -0.7004
 7972TIP3    H245332   2.735   2.100   4.682  1.5327 -1.5579 -0.3158
 7973TIP3   OH245333   0.856   4.475   0.656  0.6235  0.3516 -0.2129
 7973TIP3    H145334   0.922   4.456   0.589 -1.0010 -0.9251 -1.5446
 7973TIP3    H245335   0.907   4.491   0.736  2.6050  1.5689 -1.6391
 7974TIP3   OH245336   4.420   1.608   4.692 -0.8270  0.1308  0.4206
 7974TIP3    H145337   4.446   1.608   4.600 -0.1108 -1.1245  0.6064
 7974TIP3    H245338   4.329   1.579   4.691 -0.6322 -0.4761  0.1514
 7975TIP3   OH245339   4.869   4.265   5.932 -0.4119 -0.3926 -0.0936
 7975TIP3    H145340   4.921   4.297   6.005 -0.7514 -0.9203  0.3822
 7975TIP3    H245341   4.779   4.291   5.953 -0.4386 -0.0459 -0.6039
 7976TIP3   OH245342   4.593   4.258   4.902 -0.6793  0.1632  0.2150
 7976TIP3    H145343   4.542   4.176   4.897 -0.0674 -0.1376 -2.2005
 7976TIP3    H245344   4.675   4.238   4.857  0.2040  1.6451  1.0950
 7977TIP3   OH245345   0.067   5.859   1.366  0.0089  0.2315  0.1286
 7977TIP3    H145346   0.120   5.823   1.438  1.7125  0.5787 -0.8864
 7977TIP3    H245347   0.044   5.783   1.313  1.3209  0.2773 -0.5545
 7978TIP3   OH245348   1.508   0.560  12.655 -0.5318 -0.5108  0.1398
 7978TIP3    H145349   1.594   0.580  12.617  0.1474  0.6474  2.0985
 7978TIP3    H245350   1.447   0.562  12.581  0.8556  0.4450 -1.0293
 7979TIP3   OH245351   4.607   2.105  15.759  0.6195 -0.5070  0.5404
 7979TIP3    H145352   4.613   2.076  15.851  1.1730  0.3440  0.7879
 7979TIP3    H245353   4.680   2.060  15.716  0.1503 -1.1758  0.4385
 7980TIP3   OH245354   2.371   1.938   5.005 -0.0504  0.2501  0.8278
 7980TIP3    H145355   2.414   1.868   4.955 -0.2224  1.5521 -1.2620
 7980TIP3    H245356   2.279   1.913   5.006 -0.1202  0.4444  0.0356
 7981TIP3   OH245357   0.448   3.927   1.476 -0.5538 -0.3301  0.0253
 7981TIP3    H145358   0.430   4.020   1.468 -0.0064 -0.1818  0.4645
 7981TIP3    H245359   0.417   3.889   1.393 -1.7035  0.0862  0.2462
 7982TIP3   OH245360   4.335   4.554  15.451 -0.2291 -0.0713 -0.0311
 7982TIP3    H145361   4.323   4.494  15.524  0.2135  1.2129  1.1395
 7982TIP3    H245362   4.304   4.638  15.484 -0.7181  0.3954 -1.5799
 7983TIP3   OH245363   3.868   4.590  15.518  0.1812  0.0942  0.4852
 7983TIP3    H145364   3.913   4.653  15.574  0.5122 -1.7170  2.3608
 7983TIP3    H245365   3.910   4.601  15.432  0.2720  2.3153  0.7393
 7984TIP3   OH245366   4.110   5.484  10.626 -0.1165  0.7640 -0.4609
 7984TIP3    H145367   4.168   5.540  10.678 -1.0974  0.3135  1.2058
 7984TIP3    H245368   4.022   5.504  10.658 -0.6420 -0.4153 -1.0944
 7985TIP3   OH245369   2.584   6.381   2.278 -0.1335 -0.3887  0.4008
 7985TIP3    H145370   2.561   6.405   2.188 -0.4770 -0.4975  0.4570
 7985TIP3    H245371   2.655   6.318   2.268  0.9393  0.8081  0.2612
 7986TIP3   OH245372   1.728   3.099  14.379  0.8914 -0.3774  0.2326
 7986TIP3    H145373   1.692   3.024  14.331  2.2684  0.3732 -2.0997
 7986TIP3    H245374   1.813   3.115  14.340  1.0958  1.7808  1.3836
 7987TIP3   OH245375   5.755   4.110  16.637  0.4480 -0.1817  0.0668
 7987TIP3    H145376   5.741   4.016  16.627  0.5272 -0.0398 -1.7439
 7987TIP3    H245377   5.793   4.138  16.554 -2.8744  2.0621 -0.9258
 7988TIP3   OH245378   1.395   1.108   1.633  0.1800 -0.0525  0.1231
 7988TIP3    H145379   1.357   1.172   1.693  0.5450 -0.9909  1.4130
 7988TIP3    H245380   1.321   1.061   1.596 -0.1188  1.3988 -1.2139
 7989TIP3   OH245381   1.878   2.332   5.310 -0.4023 -0.5249  0.3655
 7989TIP3    H145382   1.942   2.351   5.378  0.7455  0.5318 -0.9484
 7989TIP3    H245383   1.805   2.390   5.329 -0.5151 -0.9344  1.2346
 7990TIP3   OH245384   4.216   5.995   6.319  0.0622  0.2727  0.0451
 7990TIP3    H145385   4.259   6.028   6.240 -0.9370  2.6239  0.3997
 7990TIP3    H245386   4.240   5.902   6.323  0.7792  0.2830 -2.5693
 7991TIP3   OH245387   0.698   1.775   1.940 -0.1338  0.5730 -0.0363
 7991TIP3    H145388   0.751   1.779   1.861 -0.4076 -0.9562 -0.3322
 7991TIP3    H245389   0.662   1.686   1.941  0.3005  0.3507  2.0676
 7992TIP3   OH245390   6.033   3.667  11.484 -0.0315 -0.3819 -0.3660
 7992TIP3    H145391   6.005   3.719  11.559 -0.1730 -0.2733 -0.4918
 7992TIP3    H245392   5.956   3.666  11.426 -0.5214 -1.8777  0.2443
 7993TIP3   OH245393   6.732   3.328  14.615 -0.0447 -0.2503  0.1376
 7993TIP3    H145394   6.819   3.299  14.588 -0.2369 -1.6697  0.9478
 7993TIP3    H245395   6.702   3.261  14.677 -1.5867  0.3700  0.1161
 7994TIP3   OH245396   3.821   5.762   2.055  0.4066  0.8780 -0.7016
 7994TIP3    H145397   3.773   5.682   2.032  0.7068  0.5079 -0.0852
 7994TIP3    H245398   3.912   5.742   2.032  0.6745  0.5853  0.5421
 7995TIP3   OH245399   1.161   1.515  14.508 -0.2559 -0.2575 -0.0366
 7995TIP3    H145400   1.084   1.458  14.504 -1.0743  0.8717 -0.7151
 7995TIP3    H245401   1.168   1.553  14.420 -1.4159  2.8057  1.0486
 7996TIP3   OH245402   6.331   1.960  13.318 -0.1677  0.2647  0.0855
 7996TIP3    H145403   6.308   2.049  13.289 -0.9408  0.0010 -0.1324
 7996TIP3    H245404   6.367   1.972  13.406  2.3489  1.0954 -0.9654
 7997TIP3   OH245405   2.595   5.204  15.659 -0.1371 -0.1516  0.2736
 7997TIP3    H145406   2.541   5.125  15.660  1.2770 -1.2181 -1.4142
 7997TIP3    H245407   2.681   5.175  15.689  1.4115 -0.2032 -3.5830
 7998TIP3   OH245408   4.253   4.805   3.703  0.0381  0.3612  0.3574
 7998TIP3    H145409   4.210   4.748   3.639  1.9931 -1.6199  0.6803
 7998TIP3    H245410   4.302   4.868   3.651  1.9954 -1.5287 -0.2028
 7999TIP3   OH245411   0.916   1.251  16.697 -0.0695  0.1440  0.2141
 7999TIP3    H145412   0.900   1.157  16.710 -1.6047  0.2465 -0.7761
 7999TIP3    H245413   1.009   1.256  16.677 -0.1323 -1.2731 -0.5781
 8000TIP3   OH245414   0.340   5.498  16.739  0.2777 -0.0923 -0.2291
 8000TIP3    H145415   0.371   5.589  16.743  1.3091 -0.4483  2.7028
 8000TIP3    H245416   0.284   5.489  16.816 -0.6842 -1.6816 -1.0694
 8001TIP3   OH245417   4.650   6.659   5.466  0.6238 -0.3951  0.0370
 8001TIP3    H145418   4.691   6.685   5.549  0.3234  1.3896 -0.3189
 8001TIP3    H245419   4.719   6.670   5.401 -0.0177  1.5426 -0.4013
 8002TIP3   OH245420   2.744   6.813  15.032 -0.4077 -0.0009  0.0025
 8002TIP3    H145421   2.762   6.772  14.947 -0.6276 -0.1004  0.0055
 8002TIP3    H245422   2.702   6.896  15.009 -2.5127 -0.9997  0.0603
 8003TIP3   OH245423   6.031   3.606   3.434  0.2378  0.0243 -0.0842
 8003TIP3    H145424   6.088   3.535   3.406  0.4742  0.0655  0.2904
 8003TIP3    H245425   5.989   3.637   3.353  1.5027  0.6676 -0.5106
 8004TIP3   OH245426   0.520   6.183   3.585 -0.0943  0.5245 -0.8832
 8004TIP3    H145427   0.535   6.172   3.491 -1.2199 -0.8543 -0.9348
 8004TIP3    H245428   0.501   6.276   3.595  1.3544  0.9504 -1.8097
 8005TIP3   OH245429   2.175   6.224   2.095  0.1825 -0.0191  0.0925
 8005TIP3    H145430   2.178   6.311   2.056 -0.9350 -0.4788 -1.0924
 8005TIP3    H245431   2.255   6.181   2.064 -0.0765  0.0468 -0.6848
 8006TIP3   OH245432   2.556   5.295   2.301  0.0596  0.2556 -0.2924
 8006TIP3    H145433   2.626   5.327   2.244 -0.0791 -0.5321 -0.9201
 8006TIP3    H245434   2.517   5.222   2.253  0.0802 -0.5767  0.9064
 8007TIP3   OH245435   2.583   1.350   5.813  0.0728  0.0594 -0.0051
 8007TIP3    H145436   2.516   1.311   5.757  0.1436  0.5046 -0.4095
 8007TIP3    H245437   2.603   1.282   5.877 -1.1142  0.0875  0.4296
 8008TIP3   OH245438   1.421   1.040   0.466 -0.3229  0.1908  0.2175
 8008TIP3    H145439   1.399   1.077   0.551  0.5244 -0.4429  0.7337
 8008TIP3    H245440   1.511   1.009   0.476  0.2629  1.2748 -1.3195
 8009TIP3   OH245441   0.907   6.199   0.119 -0.0475 -0.1886  0.3459
 8009TIP3    H145442   0.913   6.266   0.187  2.5278  1.2659 -1.1258
 8009TIP3    H245443   0.818   6.209   0.084 -0.8109  0.2345  2.2631
 8010TIP3   OH245444   2.692   0.709   5.278 -0.2414  0.1537 -0.1544
 8010TIP3    H145445   2.750   0.658   5.220  0.7332  1.4376 -0.3502
 8010TIP3    H245446   2.612   0.720   5.228 -0.3248 -0.8351 -0.2670
 8011TIP3   OH245447   0.524   2.922   4.780 -0.2427 -0.1520 -0.2928
 8011TIP3    H145448   0.574   2.865   4.721 -0.6581  1.4561 -2.3439
 8011TIP3    H245449   0.462   2.864   4.824  0.7064 -1.5675 -0.7688
 8012TIP3   OH245450   1.578   1.066  16.236  0.2593  0.2445 -0.0301
 8012TIP3    H145451   1.598   1.160  16.238  0.8938  0.1126  2.1454
 8012TIP3    H245452   1.533   1.049  16.319 -0.2669 -1.2953 -0.5982
 8013TIP3   OH245453   6.239   0.393   2.258  0.4371 -0.4925 -0.5177
 8013TIP3    H145454   6.278   0.325   2.203  2.5366 -1.6713  2.1598
 8013TIP3    H245455   6.251   0.361   2.347 -2.0043  1.6794  0.7403
 8014TIP3   OH245456   4.294   3.285   2.627 -0.5129  0.1659  0.5529
 8014TIP3    H145457   4.363   3.257   2.686  1.4425  0.3032 -1.5662
 8014TIP3    H245458   4.256   3.204   2.592  0.4026  0.0855 -0.2828
 8015TIP3   OH245459   5.828   2.048  15.484 -0.1960 -0.2933  0.4326
 8015TIP3    H145460   5.780   2.094  15.416 -1.8863 -1.1736  0.9715
 8015TIP3    H245461   5.892   1.994  15.436  0.2728  0.8852 -0.2946
 8016TIP3   OH245462   5.056   6.122   0.023  0.1717 -0.1288  0.0840
 8016TIP3    H145463   5.030   6.031   0.013 -0.8840 -0.1574  2.4773
 8016TIP3    H245464   5.058   6.156  -0.067 -0.6846 -2.1605 -0.7645
 8017TIP3   OH245465   2.717   4.767   2.687 -0.1618  0.2232 -0.0488
 8017TIP3    H145466   2.629   4.796   2.710  0.3514  0.9412  1.1065
 8017TIP3    H245467   2.772   4.795   2.760  1.2634  1.0101 -1.3395
 8018TIP3   OH245468   3.076   0.798   4.851  0.4450  0.5197 -0.6687
 8018TIP3    H145469   3.099   0.765   4.764  2.3819 -1.7039  0.5507
 8018TIP3    H245470   3.043   0.721   4.897 -0.3493  1.6066  0.6299
 8019TIP3   OH245471   4.987   1.994   4.959 -0.9312  0.1420  0.2916
 8019TIP3    H145472   4.947   2.078   4.984  0.4326  0.2980  2.0936
 8019TIP3    H245473   4.917   1.930   4.973 -0.8037  0.4671  2.9866
 8020TIP3   OH245474   5.634   6.230  10.546  0.0293 -0.5441 -0.2397
 8020TIP3    H145475   5.581   6.150  10.552 -0.8983  0.1732  2.2666
 8020TIP3    H245476   5.696   6.223  10.618 -1.2019  1.7301  1.1429
 8021TIP3   OH245477   4.247   2.054  11.738 -0.4757 -0.7459  0.3424
 8021TIP3    H145478   4.172   2.018  11.690  1.1910 -2.3627 -1.2215
 8021TIP3    H245479   4.294   1.976  11.769  2.0340  0.0712 -1.1538
 8022TIP3   OH245480   4.736   2.199  11.721  0.0961  0.3720  0.2569
 8022TIP3    H145481   4.710   2.259  11.792 -0.8643  2.3100 -1.5975
 8022TIP3    H245482   4.827   2.177  11.741  0.5366  2.5356  1.0274
 8023TIP3   OH245483   6.350   0.335   3.633  0.2499 -0.3363 -0.2134
 8023TIP3    H145484   6.426   0.342   3.574  0.9307 -1.6347  0.4461
 8023TIP3    H245485   6.321   0.244   3.623  0.0761 -0.4411  1.0719
 8024TIP3   OH245486   5.397   3.395   1.663  0.2883  0.2374  0.0246
 8024TIP3    H145487   5.444   3.471   1.698  0.1897 -0.4503  1.7378
 8024TIP3    H245488   5.450   3.320   1.687  0.4045 -0.2840 -1.6843
 8025TIP3   OH245489   4.911   1.098   3.257  0.0776 -0.7610  0.1479
 8025TIP3    H145490   4.904   1.073   3.349 -1.1106  0.5888  0.4580
 8025TIP3    H245491   4.978   1.167   3.256  0.8989 -1.5354 -0.1961
 8026TIP3   OH245492   2.234   1.409  13.697 -0.2594  0.0284 -0.1749
 8026TIP3    H145493   2.273   1.322  13.703 -1.1766 -0.4970 -1.3451
 8026TIP3    H245494   2.160   1.407  13.757  0.7314  0.6163  1.1190
 8027TIP3   OH245495   5.190   3.117   1.970 -0.0238  0.6541  0.3416
 8027TIP3    H145496   5.153   3.095   1.884  0.2052  0.0063  0.3974
 8027TIP3    H245497   5.227   3.204   1.959 -0.6030  0.8642 -0.0214
 8028TIP3   OH245498   5.278   2.999  13.913 -0.0737 -0.1845  1.2179
 8028TIP3    H145499   5.269   3.087  13.878  1.4603 -0.7400 -0.7682
 8028TIP3    H245500   5.200   2.953  13.882  0.6252 -0.3086 -0.4573
 8029TIP3   OH245501   4.371   4.044   3.135 -0.2199 -0.2709 -0.6968
 8029TIP3    H145502   4.336   3.975   3.078  0.0831 -0.2680 -0.8857
 8029TIP3    H245503   4.464   4.024   3.143  0.2535  1.1011 -2.1965
 8030TIP3   OH245504   2.896   6.422  15.299  0.0695 -0.0763 -0.0467
 8030TIP3    H145505   2.860   6.467  15.222 -1.6715  0.2022  0.8826
 8030TIP3    H245506   2.989   6.411  15.279 -0.4916 -0.9313 -2.6352
 8031TIP3   OH245507   5.998   5.515  16.340 -0.6349 -0.6960  0.1726
 8031TIP3    H145508   5.919   5.483  16.296 -0.7936  0.3879 -0.3505
 8031TIP3    H245509   6.065   5.449  16.319 -1.3394 -1.5232  0.4646
 8032TIP3   OH245510   5.326   2.826   2.489 -0.2297 -0.8507  0.1318
 8032TIP3    H145511   5.384   2.810   2.414 -0.7021  1.0958 -0.7122
 8032TIP3    H245512   5.244   2.782   2.465 -0.3437 -0.3312 -0.4778
 8033TIP3   OH245513   1.226   6.482   5.306  0.0218 -0.6822 -0.2896
 8033TIP3    H145514   1.178   6.564   5.298 -2.8945 -2.3104 -1.0069
 8033TIP3    H245515   1.281   6.494   5.384  0.0762  2.0589 -0.6520
 8034TIP3   OH245516   5.564   1.730   2.588  0.1535  0.2058 -0.1299
 8034TIP3    H145517   5.626   1.782   2.639  0.4422 -0.6568  0.4152
 8034TIP3    H245518   5.608   1.646   2.574 -1.8046 -1.3957  2.4452
 8035TIP3   OH245519   5.473   4.034   2.172  0.1955  0.0246 -0.1354
 8035TIP3    H145520   5.462   4.010   2.264  2.3538  0.4652  0.2915
 8035TIP3    H245521   5.564   4.064   2.165 -0.3825  1.6100 -2.0616
 8036TIP3   OH245522   1.786   3.224  15.972  0.7308 -0.2226  0.2452
 8036TIP3    H145523   1.725   3.275  16.026  0.1285 -1.8154  1.1134
 8036TIP3    H245524   1.868   3.274  15.975 -0.3871  1.7946 -0.6784
 8037TIP3   OH245525   3.955   5.610  14.274  0.2053  0.0476  0.2197
 8037TIP3    H145526   3.884   5.667  14.248 -0.2593  0.4857  2.2469
 8037TIP3    H245527   3.991   5.650  14.353  2.3310 -0.4839 -0.4036
 8038TIP3   OH245528   5.999   0.101  11.850  0.5563 -0.2475 -0.4489
 8038TIP3    H145529   5.915   0.110  11.895 -0.0304  0.3401 -1.6011
 8038TIP3    H245530   6.035   0.189  11.850 -0.4386  0.2457 -2.8846
 8039TIP3   OH245531   3.109   3.058  13.826 -0.5032 -0.1075  0.2380
 8039TIP3    H145532   3.024   3.101  13.839 -0.3436  0.2740  0.0095
 8039TIP3    H245533   3.147   3.055  13.914 -0.4531  0.3384  0.2301
 8040TIP3   OH245534   4.595   1.891  15.347 -0.4035 -0.1791 -1.0718
 8040TIP3    H145535   4.568   1.968  15.397  3.8821  2.2356 -1.9305
 8040TIP3    H245536   4.578   1.914  15.256 -1.0231 -1.1706 -1.2125
 8041TIP3   OH245537   6.237   6.477  14.913 -0.2374  0.1510 -0.1123
 8041TIP3    H145538   6.184   6.552  14.937  0.1584  0.4468 -0.1551
 8041TIP3    H245539   6.323   6.494  14.953  0.2095  0.2980 -1.1147
 8042TIP3   OH245540   6.742   0.368   0.775 -0.0096  0.2785  0.4323
 8042TIP3    H145541   6.815   0.408   0.729 -1.3665  0.9433 -1.2654
 8042TIP3    H245542   6.748   0.401   0.864  2.0380 -0.1277  0.4978
 8043TIP3   OH245543   4.587   2.809  11.662 -0.2994  0.1162 -0.2303
 8043TIP3    H145544   4.541   2.726  11.674 -0.8675  0.4813  0.1860
 8043TIP3    H245545   4.644   2.795  11.586 -0.7900 -0.4829 -0.4899
 8044TIP3   OH245546   2.789   6.207  12.444  0.0756 -0.1689 -0.3612
 8044TIP3    H145547   2.744   6.287  12.474  1.6055  0.4549  0.3727
 8044TIP3    H245548   2.827   6.171  12.524  1.4719 -0.2836 -1.0548
 8045TIP3   OH245549   5.544   0.938  10.317  0.9067 -0.5572  0.0966
 8045TIP3    H145550   5.543   1.030  10.289  0.1783 -0.0402  1.7300
 8045TIP3    H245551   5.494   0.937  10.399 -0.1476 -2.6208 -0.5055
 8046TIP3   OH245552   3.796   4.224  12.011  0.5494  0.2622 -0.2150
 8046TIP3    H145553   3.891   4.233  12.014  0.9120 -2.7082  2.8884
 8046TIP3    H245554   3.765   4.264  12.092 -0.6952 -0.0931 -0.4910
 8047TIP3   OH245555   6.116   6.104  15.683  0.4165 -0.0944  0.5922
 8047TIP3    H145556   6.045   6.047  15.654  0.0812  1.1056 -1.1472
 8047TIP3    H245557   6.146   6.065  15.765 -1.9549 -0.8738  1.1875
 8048TIP3   OH245558   4.010   0.312  13.944  0.2649  0.2485  0.6952
 8048TIP3    H145559   4.038   0.230  13.904  1.8035  1.0460  0.0533
 8048TIP3    H245560   3.926   0.331  13.903  0.5835 -0.2715 -0.2196
 8049TIP3   OH245561   5.762   0.799   2.472 -0.2906 -0.6876  0.2113
 8049TIP3    H145562   5.710   0.730   2.514 -0.9977 -1.1297 -1.3368
 8049TIP3    H245563   5.714   0.880   2.491 -0.1589 -0.7656  0.9194
 8050TIP3   OH245564   2.066   4.271   0.538  0.0340  0.0209  0.4380
 8050TIP3    H145565   1.974   4.296   0.544  0.4444  1.5814  0.4704
 8050TIP3    H245566   2.102   4.326   0.469  0.8688 -0.8660  0.1413
 8051TIP3   OH245567   1.413   1.020   6.337  0.6243  0.5340  0.0094
 8051TIP3    H145568   1.342   0.992   6.279 -0.3387  2.7123  0.0393
 8051TIP3    H245569   1.490   1.025   6.280  0.2020  0.4618 -0.5751
 8052TIP3   OH245570   4.451   0.411   1.202 -0.1785  0.9018 -0.0793
 8052TIP3    H145571   4.530   0.455   1.234  0.7344  0.1962 -1.2958
 8052TIP3    H245572   4.483   0.331   1.162 -1.7616 -0.7308  1.7121
 8053TIP3   OH245573   2.342   6.157  13.790  0.1901  0.0979  0.5177
 8053TIP3    H145574   2.337   6.078  13.843  1.8514 -0.3748  0.0189
 8053TIP3    H245575   2.257   6.163  13.747 -0.5770 -0.4379  1.9014
 8054TIP3   OH245576   3.866   4.908  11.181  0.4435 -0.3865 -0.9969
 8054TIP3    H145577   3.908   4.829  11.217  0.9139  1.0552  1.9080
 8054TIP3    H245578   3.773   4.884  11.173  0.0841 -0.5988  2.3185
 8055TIP3   OH245579   5.134   1.637  13.350 -0.3035 -0.2153 -0.4458
 8055TIP3    H145580   5.152   1.551  13.387  2.3076  0.4698  0.1021
 8055TIP3    H245581   5.167   1.699  13.415 -0.5656  1.1707 -1.5685
 8056TIP3   OH245582   5.495   6.473  12.410  0.0732 -0.2334 -0.1075
 8056TIP3    H145583   5.412   6.489  12.456  0.4411 -2.2378  1.3521
 8056TIP3    H245584   5.469   6.461  12.318 -1.1218  0.1468  0.1571
 8057TIP3   OH245585   2.582   0.351  13.833 -0.2276 -0.0896 -0.0770
 8057TIP3    H145586   2.596   0.396  13.916  4.4564  2.6725 -1.9467
 8057TIP3    H245587   2.627   0.267  13.844 -0.8317 -0.3322  0.5840
 8058TIP3   OH245588   3.710   1.991  16.938 -0.2576 -0.3719  0.1163
 8058TIP3    H145589   3.666   2.076  16.941 -1.3925 -0.8943 -0.7929
 8058TIP3    H245590   3.799   2.009  16.969 -0.9775  0.7944  1.6394
 8059TIP3   OH245591   4.029   3.470   3.808 -0.1802  0.4500  0.0364
 8059TIP3    H145592   4.123   3.485   3.801  0.3856 -2.2244  0.9512
 8059TIP3    H245593   4.007   3.411   3.737 -1.9490  3.5870 -2.2940
 8060TIP3   OH245594   5.682   0.629   5.402 -0.1336 -0.0923 -0.1243
 8060TIP3    H145595   5.717   0.701   5.348  0.2559 -0.8271 -0.8680
 8060TIP3    H245596   5.754   0.607   5.461 -0.4459  0.4872  0.4914
 8061TIP3   OH245597   1.405   3.592  14.496 -0.0682  0.0888 -0.3076
 8061TIP3    H145598   1.383   3.620  14.407 -0.0609 -0.2410 -0.4146
 8061TIP3    H245599   1.438   3.671  14.539  0.5254  0.1047 -0.7865
 8062TIP3   OH245600   1.739   3.185  14.972  0.3910 -0.4861  0.1346
 8062TIP3    H145601   1.704   3.263  15.015 -0.4274 -0.3972 -0.6622
 8062TIP3    H245602   1.767   3.215  14.886  1.7322 -0.7239  0.4616
 8063TIP3   OH245603   5.373   5.324  11.359 -0.1352 -0.4854 -0.4073
 8063TIP3    H145604   5.385   5.337  11.265 -0.3452 -2.8674 -0.8398
 8063TIP3    H245605   5.319   5.397  11.387  0.9323  0.9344 -1.8805
 8064TIP3   OH245606   3.020   4.394   1.065 -0.3105  0.3439  0.0030
 8064TIP3    H145607   2.925   4.409   1.061 -0.3387  0.5578  1.1242
 8064TIP3    H245608   3.035   4.320   1.007 -1.2496 -0.0204  0.2044
 8065TIP3   OH245609   5.231   0.237  12.951 -0.4493  0.2114 -0.5411
 8065TIP3    H145610   5.229   0.204  13.041  1.5289  1.3990 -0.0060
 8065TIP3    H245611   5.139   0.257  12.931 -1.1014 -1.2975  0.7006
 8066TIP3   OH245612   1.931   1.819   3.212  0.7756  0.0610 -0.0267
 8066TIP3    H145613   1.922   1.724   3.207  1.2511  0.0841 -2.2504
 8066TIP3    H245614   2.020   1.833   3.247 -0.0683 -0.2417  2.4175
 8067TIP3   OH245615   3.256   4.517  16.170 -0.2045 -0.4925 -0.8301
 8067TIP3    H145616   3.319   4.561  16.113  0.7092 -0.8182 -0.1014
 8067TIP3    H245617   3.198   4.586  16.201  1.5969  0.3995  0.8259
 8068TIP3   OH245618   3.942   6.460   5.189 -0.0932 -0.2083  0.3264
 8068TIP3    H145619   3.858   6.448   5.232  0.2315 -0.5100  0.8839
 8068TIP3    H245620   3.933   6.544   5.143 -0.7806 -0.3586  0.1694
 8069TIP3   OH245621   0.697   4.417   4.811  0.5322 -0.0931 -0.0932
 8069TIP3    H145622   0.626   4.386   4.868 -0.4856  0.3551 -1.0809
 8069TIP3    H245623   0.775   4.372   4.844 -0.5675 -2.3709 -0.3402
 8070TIP3   OH245624   0.720   3.036   2.837 -0.4300  0.7068 -0.2297
 8070TIP3    H145625   0.658   3.011   2.905  0.0324  1.9093  0.6698
 8070TIP3    H245626   0.771   2.957   2.821 -2.1222 -0.2934 -0.9506
 8071TIP3   OH245627   2.117   4.816   4.465  0.6735 -0.4717  0.1934
 8071TIP3    H145628   2.110   4.908   4.438 -1.3918 -0.7068 -0.2355
 8071TIP3    H245629   2.073   4.813   4.550 -1.0889 -1.3626 -0.6854
 8072TIP3   OH245630   5.169   1.530  13.902 -0.0399 -0.5253 -0.0595
 8072TIP3    H145631   5.104   1.538  13.832  1.0193 -0.6421 -1.0954
 8072TIP3    H245632   5.251   1.559  13.861  0.3691  0.7382  1.5376
 8073TIP3   OH245633   0.847   0.840   3.292 -0.6512  0.4573  0.5632
 8073TIP3    H145634   0.937   0.874   3.291 -0.2540 -0.3621  2.9980
 8073TIP3    H245635   0.798   0.903   3.345 -1.3439  0.4255 -0.0205
 8074TIP3   OH245636   6.460   2.599   0.035 -0.1904  0.2419 -0.3048
 8074TIP3    H145637   6.439   2.692   0.023 -1.8101 -0.2642 -1.8254
 8074TIP3    H245638   6.554   2.593   0.019  0.1546  1.7404  0.8389
 8075TIP3   OH245639   4.795   0.192  11.775 -0.1798  0.1506 -0.0758
 8075TIP3    H145640   4.732   0.195  11.847 -1.6386  0.0870 -1.2951
 8075TIP3    H245641   4.830   0.104  11.777 -2.6354 -0.9668 -1.3549
 8076TIP3   OH245642   0.081   4.794  13.105 -0.0961  0.3386 -0.1372
 8076TIP3    H145643   0.035   4.722  13.063 -0.0801  0.7704 -0.9166
 8076TIP3    H245644   0.047   4.796  13.195  0.6916 -1.3163  0.2395
 8077TIP3   OH245645   6.404   1.161   5.264  0.5627 -0.1597  0.5016
 8077TIP3    H145646   6.457   1.081   5.261  2.3669  0.9629  0.7282
 8077TIP3    H245647   6.336   1.143   5.329 -0.3254 -2.1952 -0.8928
 8078TIP3   OH245648   3.112   5.800   1.130 -0.2236  0.1092  0.3229
 8078TIP3    H145649   3.136   5.707   1.122 -0.8816  0.0482 -1.1314
 8078TIP3    H245650   3.070   5.821   1.047 -1.9799  1.1546  1.4172
 8079TIP3   OH245651   5.566   2.492  17.116 -0.1074 -0.5086 -1.1052
 8079TIP3    H145652   5.623   2.558  17.076  0.2513 -0.4893 -0.5633
 8079TIP3    H245653   5.624   2.417  17.131  0.6115  0.6016  2.4176
 8080TIP3   OH245654   5.979   2.707  11.202  0.5521  0.2161 -0.7779
 8080TIP3    H145655   5.913   2.698  11.133  1.9542 -0.3766 -2.1010
 8080TIP3    H245656   5.999   2.800  11.204 -0.1802  0.3737 -0.4910
 8081TIP3   OH245657   2.305   4.663  16.934  0.3009  0.6060 -0.1733
 8081TIP3    H145658   2.315   4.756  16.919  0.7480  1.0185  2.2417
 8081TIP3    H245659   2.381   4.639  16.988  0.2294 -1.1716 -0.7964
 8082TIP3   OH245660   3.753   3.269  13.064  0.4796 -0.7500 -0.2981
 8082TIP3    H145661   3.707   3.303  13.141  0.1298 -2.0349  0.0872
 8082TIP3    H245662   3.830   3.325  13.055 -0.5285  0.6840 -0.2342
 8083TIP3   OH245663   5.151   1.605  15.188  0.6083  0.6310  0.5874
 8083TIP3    H145664   5.077   1.637  15.239 -1.3962 -0.8020 -1.2808
 8083TIP3    H245665   5.174   1.521  15.228  0.9312  0.8420  0.8561
 8084TIP3   OH245666   3.714   3.756  10.902 -0.1113 -0.1254  0.2965
 8084TIP3    H145667   3.663   3.836  10.894  0.4429  0.4296  1.8711
 8084TIP3    H245668   3.660   3.700  10.959  0.2153 -0.2459  0.4863
 8085TIP3   OH245669   2.556   4.332  11.980  0.0622  0.1663  0.3699
 8085TIP3    H145670   2.648   4.351  11.963  0.0530 -1.0038 -1.2038
 8085TIP3    H245671   2.557   4.249  12.027 -0.1531  0.8800  1.6795
 8086TIP3   OH245672   2.193   5.321  10.429 -0.9238 -0.0294 -0.0704
 8086TIP3    H145673   2.156   5.394  10.379 -0.4549 -0.8503 -1.6710
 8086TIP3    H245674   2.154   5.331  10.516  0.0524  2.8210  0.1517
 8087TIP3   OH245675   6.150   5.480   6.549 -0.3529 -0.6251  0.5136
 8087TIP3    H145676   6.217   5.546   6.532 -0.4117 -1.0493 -1.6562
 8087TIP3    H245677   6.199   5.398   6.559 -0.5092 -1.2977 -3.0232
 8088TIP3   OH245678   2.796   5.580   4.040 -0.9454  0.4919 -0.1904
 8088TIP3    H145679   2.889   5.583   4.020 -0.7839 -0.6423  0.3469
 8088TIP3    H245680   2.781   5.655   4.098 -0.2686  0.3739  0.1392
 8089TIP3   OH245681   4.487   3.223   2.802 -0.2951 -0.3415  0.4475
 8089TIP3    H145682   4.535   3.282   2.860  0.8757 -1.0985  0.2671
 8089TIP3    H245683   4.476   3.143   2.853 -3.0966  0.3894  1.2263
 8090TIP3   OH245684   5.956   4.955  15.214 -0.2395  0.1382  0.1359
 8090TIP3    H145685   5.971   4.950  15.308  1.3970  2.5812  0.1000
 8090TIP3    H245686   5.867   4.989  15.206 -0.8978 -1.3596  0.7217
 8091TIP3   OH245687   4.040   6.264   2.545 -0.0252 -0.1429  0.2367
 8091TIP3    H145688   4.091   6.264   2.465 -2.8329  1.0038 -1.7316
 8091TIP3    H245689   4.050   6.352   2.580  0.7218 -0.4595  0.8373
 8092TIP3   OH245690   2.239   3.646  16.083 -0.1224 -0.0244  0.3770
 8092TIP3    H145691   2.255   3.556  16.109 -1.6536  0.3218  2.7692
 8092TIP3    H245692   2.209   3.640  15.992  0.8049 -1.7809  0.1523
 8093TIP3   OH245693   0.344   0.584  13.697 -0.3725 -0.6263 -0.1384
 8093TIP3    H145694   0.273   0.519  13.695 -0.3327 -0.7546  1.5560
 8093TIP3    H245695   0.321   0.646  13.628 -2.0977 -0.7232  0.3061
 8094TIP3   OH245696   4.190   0.374  17.119  0.0527 -0.2885 -0.1780
 8094TIP3    H145697   4.217   0.292  17.078 -0.6526 -0.5745 -0.0786
 8094TIP3    H245698   4.141   0.420  17.051 -0.4208 -0.4001  0.0880
 8095TIP3   OH245699   5.062   0.239   2.130  0.5785 -0.0818 -0.0401
 8095TIP3    H145700   5.040   0.314   2.074  1.4644  0.6642  0.5752
 8095TIP3    H245701   4.982   0.187   2.133 -0.5071  1.5574  0.6204
 8096TIP3   OH245702   3.209   5.846  15.571  0.0987 -0.3073  0.2879
 8096TIP3    H145703   3.216   5.878  15.661 -0.8619 -2.0598  1.0554
 8096TIP3    H245704   3.131   5.890  15.536  0.6877  0.6594  0.1670
 8097TIP3   OH245705   5.649   1.525  13.662  0.1016  0.1747  0.0492
 8097TIP3    H145706   5.670   1.606  13.709  0.0992 -0.2327  0.7710
 8097TIP3    H245707   5.553   1.522  13.661  0.0938  0.4312 -0.4320
 8098TIP3   OH245708   3.247   6.048  16.371 -0.5425 -0.3928  0.4688
 8098TIP3    H145709   3.339   6.038  16.347 -0.5366  0.9359 -0.1749
 8098TIP3    H245710   3.217   5.959  16.391  1.1401 -0.7356  1.7190
 8099TIP3   OH245711   4.755   4.480  11.276  0.0507  0.1502  0.1644
 8099TIP3    H145712   4.833   4.520  11.313 -0.3702  0.9352  0.2243
 8099TIP3    H245713   4.722   4.424  11.346  0.4091  0.0266  0.2361
 8100TIP3   OH245714   3.108   4.719   1.061  0.0695 -0.1504 -0.0164
 8100TIP3    H145715   3.148   4.634   1.048  0.1106 -0.0218 -0.7927
 8100TIP3    H245716   3.154   4.777   1.001 -0.6861  0.1850 -0.2932
 8101TIP3   OH245717   2.851   5.237  10.259 -0.3967 -0.2640 -0.0804
 8101TIP3    H145718   2.831   5.143  10.253  0.0823 -0.3917  0.2984
 8101TIP3    H245719   2.940   5.241  10.294 -0.0534  0.3206 -0.9892
 8102TIP3   OH245720   5.758   2.387  16.632 -0.0532 -0.0868 -0.2042
 8102TIP3    H145721   5.665   2.397  16.651  0.6800  2.6138  2.9258
 8102TIP3    H245722   5.802   2.407  16.715  3.3499 -2.3150 -1.2410
 8103TIP3   OH245723   0.185   0.326   4.931  0.0723  0.0879 -0.1892
 8103TIP3    H145724   0.146   0.404   4.971  0.5502 -0.2446  0.9686
 8103TIP3    H245725   0.228   0.280   5.004 -2.2103 -2.5259 -0.3472
 8104TIP3   OH245726   5.589   6.562  12.051 -0.6043 -0.7979 -0.3323
 8104TIP3    H145727   5.660   6.600  11.999 -1.3875  1.5995  0.2505
 8104TIP3    H245728   5.524   6.631  12.058 -1.2406 -1.5720  2.4980
 8105TIP3   OH245729   6.556   2.136   3.787  0.0851  0.5184 -0.2784
 8105TIP3    H145730   6.527   2.178   3.868 -1.3143  1.7283 -1.3465
 8105TIP3    H245731   6.496   2.063   3.776  0.7682 -0.1211  0.1505
 8106TIP3   OH245732   6.029   1.111   2.886  0.3668  0.1650  0.4562
 8106TIP3    H145733   6.013   1.102   2.792  1.5694  0.4970  0.1902
 8106TIP3    H245734   5.991   1.196   2.909  1.6308  0.9484 -0.1560
 8107TIP3   OH245735   5.483   3.792  10.948  0.2345 -0.2796 -0.1209
 8107TIP3    H145736   5.529   3.730  11.005  0.7959 -1.3279 -1.6251
 8107TIP3    H245737   5.537   3.796  10.869  0.3243  2.3401 -0.0091
 8108TIP3   OH245738   4.496   0.670   5.575 -0.3693 -0.5367  0.3677
 8108TIP3    H145739   4.461   0.667   5.486 -1.1178 -2.1319  0.6852
 8108TIP3    H245740   4.588   0.692   5.564 -0.0160 -2.4337 -0.9602
 8109TIP3   OH245741   2.718   4.554  13.765  0.3590  0.1207 -0.2713
 8109TIP3    H145742   2.728   4.550  13.861  0.0947  0.9921 -0.2052
 8109TIP3    H245743   2.652   4.487  13.746  0.3068  0.0387  0.1727
 8110TIP3   OH245744   2.947   6.528   3.655 -0.4234  0.5220 -0.1149
 8110TIP3    H145745   2.980   6.588   3.722 -0.8882 -0.8517  1.4042
 8110TIP3    H245746   3.023   6.474   3.633 -0.7707 -0.4328  0.9220
 8111TIP3   OH245747   6.812   4.977  11.637  0.4626  0.4969  0.0372
 8111TIP3    H145748   6.759   4.902  11.610 -0.0047  1.1978 -1.0757
 8111TIP3    H245749   6.777   5.003  11.722 -0.8630  0.8112 -0.5789
 8112TIP3   OH245750   5.581   6.680   1.810 -0.4657 -0.3055 -0.1001
 8112TIP3    H145751   5.619   6.645   1.730  0.4770 -0.5233  0.4312
 8112TIP3    H245752   5.569   6.773   1.792 -0.4837 -0.3970 -0.5737
 8113TIP3   OH245753   6.041   2.374  12.796 -0.3517  0.0784 -0.1684
 8113TIP3    H145754   6.103   2.446  12.779  1.9732 -1.8730 -0.4448
 8113TIP3    H245755   6.094   2.307  12.839 -2.1750 -1.9180 -0.8896
 8114TIP3   OH245756   6.336   4.231  12.949 -0.2138  0.2606 -0.1083
 8114TIP3    H145757   6.367   4.221  12.859 -0.1034 -1.0378  0.0482
 8114TIP3    H245758   6.286   4.313  12.949  1.3329  1.2559 -0.9021
 8115TIP3   OH245759   4.060   2.660   5.142  0.5697 -0.4680 -0.3126
 8115TIP3    H145760   4.099   2.731   5.193  1.0362 -1.3891  0.6691
 8115TIP3    H245761   4.129   2.635   5.080  1.2987 -1.5596  0.8825
 8116TIP3   OH245762   0.745   5.032  16.253  0.0597 -0.1914 -0.2128
 8116TIP3    H145763   0.777   5.117  16.221 -0.6637 -0.1236 -0.7630
 8116TIP3    H245764   0.802   5.013  16.328 -0.7079  1.4960  0.8648
 8117TIP3   OH245765   2.803   5.879  12.751 -0.1644 -0.6603 -0.2064
 8117TIP3    H145766   2.825   5.937  12.824 -0.9834 -0.4808 -0.0932
 8117TIP3    H245767   2.883   5.829  12.735  1.1470  1.6479 -1.3859
 8118TIP3   OH245768   3.765   5.142  12.245 -0.7144 -0.2441  0.2359
 8118TIP3    H145769   3.804   5.193  12.174 -1.6105 -0.1193 -0.1769
 8118TIP3    H245770   3.735   5.207  12.308 -0.4601 -0.3292  0.4467
 8119TIP3   OH245771   5.248   5.973   0.115 -0.2059  0.6263 -0.0014
 8119TIP3    H145772   5.287   5.918   0.046 -1.8525 -1.0797  0.3510
 8119TIP3    H245773   5.208   6.046   0.067  1.7043  1.4327 -0.5053
 8120TIP3   OH245774   3.782   4.020  14.266  0.2786 -0.1930 -0.2428
 8120TIP3    H145775   3.774   4.081  14.339 -1.3273 -0.9180  0.2222
 8120TIP3    H245776   3.876   4.013  14.251  0.6970 -0.5912  2.2376
 8121TIP3   OH245777   1.784   4.258   4.866 -0.0984  0.5366 -0.5078
 8121TIP3    H145778   1.849   4.321   4.837 -1.0010  0.9051 -1.8078
 8121TIP3    H245779   1.826   4.173   4.855  0.6902  0.8295  0.1080
 8122TIP3   OH245780   1.460   0.308  11.428 -0.2431  0.3320  0.1629
 8122TIP3    H145781   1.368   0.330  11.437 -0.3423 -0.4209  1.1480
 8122TIP3    H245782   1.469   0.280  11.337 -0.8241  1.1144 -0.1435
 8123TIP3   OH245783   4.976   1.430  15.762 -0.2043  0.2983 -0.4371
 8123TIP3    H145784   5.032   1.410  15.836 -1.1815  1.0371  0.5248
 8123TIP3    H245785   4.922   1.352  15.750  0.8599 -0.3402 -1.2470
 8124TIP3   OH245786   0.147   2.264  13.606  0.1498 -0.0868 -0.1307
 8124TIP3    H145787   0.230   2.308  13.626  0.3959  0.1736 -1.5951
 8124TIP3    H245788   0.172   2.179  13.569 -0.1378  0.6148 -2.0621
 8125TIP3   OH245789   0.156   4.010  10.910  0.3399 -0.9491  0.1033
 8125TIP3    H145790   0.243   4.024  10.948 -0.9065  3.6694  1.9999
 8125TIP3    H245791   0.108   3.959  10.976  1.0667 -1.9869 -0.1533
 8126TIP3   OH245792   5.875   2.734   2.465  0.2727  0.0198 -0.0602
 8126TIP3    H145793   5.894   2.641   2.477  1.1743 -0.0388 -1.7480
 8126TIP3    H245794   5.842   2.740   2.376  1.4928  1.5066 -0.4390
 8127TIP3   OH245795   1.982   1.074  16.376 -0.4670  0.6917 -0.3891
 8127TIP3    H145796   1.888   1.065  16.356  0.0417 -0.6479 -2.5269
 8127TIP3    H245797   2.016   1.130  16.307  0.8845 -1.6999 -1.7854
 8128TIP3   OH245798   3.067   2.155  17.089 -0.4730  0.1214  0.3489
 8128TIP3    H145799   3.113   2.217  17.033 -0.2577  1.3649  1.8181
 8128TIP3    H245800   3.116   2.073  17.080 -0.7023  0.1607 -1.5568
 8129TIP3   OH245801   1.175   5.826  14.645 -0.7865  0.0249 -0.5285
 8129TIP3    H145802   1.209   5.820  14.735 -0.3994 -1.1640 -0.7360
 8129TIP3    H245803   1.210   5.748  14.601  0.4401  1.4341 -2.2104
 8130TIP3   OH245804   6.467   6.451  10.493 -0.2850  0.1029 -0.3932
 8130TIP3    H145805   6.434   6.361  10.492  0.3337 -0.1747  1.3180
 8130TIP3    H245806   6.467   6.478  10.401 -2.8097 -0.7662 -0.7036
 8131TIP3   OH245807   3.453   3.300   0.886  0.4651  0.3582  0.0896
 8131TIP3    H145808   3.375   3.245   0.886  2.5977 -2.9538  0.3248
 8131TIP3    H245809   3.433   3.370   0.823 -2.9784  0.2961  0.9137
 8132TIP3   OH245810   3.530   3.037   5.188 -0.0343 -0.1588 -0.4318
 8132TIP3    H145811   3.560   3.061   5.100 -4.4103 -1.7256 -2.7246
 8132TIP3    H245812   3.553   2.944   5.197  0.4187  0.0020  0.0869
 8133TIP3   OH245813   5.257   6.316   3.120  0.1988 -0.3339 -0.3855
 8133TIP3    H145814   5.202   6.241   3.144 -0.8928 -0.1476 -2.0762
 8133TIP3    H245815   5.280   6.358   3.203 -0.5073 -1.6155  0.4840
 8134TIP3   OH245816   6.772   3.061   3.990 -0.3969 -0.4131  0.5051
 8134TIP3    H145817   6.725   3.113   4.055  0.3319  0.6000  0.2284
 8134TIP3    H245818   6.724   2.978   3.988 -2.0219  0.4784  0.4304
 8135TIP3   OH245819   0.524   5.429  11.464  0.0581  0.4835  0.1086
 8135TIP3    H145820   0.451   5.478  11.502 -0.5040  0.4308 -0.8757
 8135TIP3    H245821   0.504   5.426  11.370  0.3685 -1.1428  0.0761
 8136TIP3   OH245822   0.623   3.826  16.752 -0.0372 -0.0686  0.1401
 8136TIP3    H145823   0.665   3.819  16.838  1.3125 -1.6020 -0.5970
 8136TIP3    H245824   0.677   3.888  16.703 -1.5494  1.8427  0.7428
 8137TIP3   OH245825   4.853   0.445  16.070 -0.0487 -0.8872  0.5497
 8137TIP3    H145826   4.883   0.458  15.980  1.1577 -1.3582  0.8641
 8137TIP3    H245827   4.914   0.381  16.107 -0.0485 -0.1275  1.9310
 8138TIP3   OH245828   2.571   0.886   0.473  0.1371  0.3111 -0.5233
 8138TIP3    H145829   2.595   0.913   0.384  1.5192  2.7285  0.4937
 8138TIP3    H245830   2.505   0.949   0.500 -0.0542 -0.2250  0.3066
 8139TIP3   OH245831   4.825   3.969   2.430 -0.3687 -0.1772  0.1158
 8139TIP3    H145832   4.778   3.923   2.500  1.9324  1.3708  2.9145
 8139TIP3    H245833   4.916   3.971   2.460  1.2715 -1.2980 -4.0618
 8140TIP3   OH245834   4.080   6.606  13.897 -0.6471  0.3034 -0.0750
 8140TIP3    H145835   4.148   6.599  13.963 -1.4673 -1.2983  0.6712
 8140TIP3    H245836   4.101   6.538  13.833 -0.9374  0.5142 -0.3977
 8141TIP3   OH245837   1.260   4.519   5.093  0.2203 -0.1092 -0.4322
 8141TIP3    H145838   1.296   4.442   5.049  0.6925  0.5166 -1.1791
 8141TIP3    H245839   1.166   4.515   5.077 -0.3609 -2.4852  2.6677
 8142TIP3   OH245840   4.121   5.479  14.669 -0.4706  0.6897 -0.2296
 8142TIP3    H145841   4.188   5.505  14.606 -0.6980 -1.2726 -1.3494
 8142TIP3    H245842   4.069   5.414  14.622 -1.0185 -0.3876  1.8094
 8143TIP3   OH245843   4.240   5.891  12.923  0.2731  0.0059 -0.7843
 8143TIP3    H145844   4.279   5.803  12.919  0.7026  0.2016 -1.0462
 8143TIP3    H245845   4.170   5.889  12.858 -1.7069 -1.0705  1.2854
 8144TIP3   OH245846   4.595   2.378  14.306 -0.0909  0.4630  0.4457
 8144TIP3    H145847   4.535   2.442  14.346 -0.4732  0.2349  0.2429
 8144TIP3    H245848   4.607   2.409  14.217 -0.1801  0.3199  0.3836
 8145TIP3   OH245849   0.097   4.345  11.768 -0.7077  0.0098  0.1075
 8145TIP3    H145850   0.028   4.404  11.798  0.0631  0.7193  0.5136
 8145TIP3    H245851   0.154   4.333  11.844  0.3975  0.5747 -0.6147
 8146TIP3   OH245852   5.479   2.417  10.362  0.2884 -0.4551 -0.7301
 8146TIP3    H145853   5.560   2.398  10.315  0.7270 -1.3444  0.3526
 8146TIP3    H245854   5.433   2.479  10.305  0.9079 -1.2931 -2.2073
 8147TIP3   OH245855   0.027   5.938   0.767 -0.5501 -0.1392  1.2165
 8147TIP3    H145856   0.062   5.954   0.679 -0.6661 -0.1712  1.1651
 8147TIP3    H245857  -0.004   5.847   0.764 -0.0224 -0.3314  1.4642
 8148TIP3   OH245858   5.681   2.749   4.645 -0.0304 -0.7668 -0.5468
 8148TIP3    H145859   5.731   2.743   4.727 -1.0385  2.5719  0.4545
 8148TIP3    H245860   5.741   2.790   4.583  0.7337 -3.2960 -1.6327
 8149TIP3   OH245861   0.898   3.137   0.854 -0.3406 -0.2210 -0.4642
 8149TIP3    H145862   0.803   3.142   0.869 -0.2061  0.2401  0.3166
 8149TIP3    H245863   0.936   3.145   0.941  0.4729  1.5679 -0.9408
 8150TIP3   OH245864   2.359   5.352   5.453 -0.8239 -0.2082 -0.2183
 8150TIP3    H145865   2.344   5.426   5.511  0.3569  0.0730 -0.2554
 8150TIP3    H245866   2.327   5.276   5.503 -0.9742  0.1764  0.2813
 8151TIP3   OH245867   3.972   6.126  12.383  0.2312 -0.6113 -0.4679
 8151TIP3    H145868   4.040   6.071  12.423  2.0966  1.9549  0.1132
 8151TIP3    H245869   3.930   6.170  12.457  0.5602  0.7072 -1.0462
 8152TIP3   OH245870   4.236   5.196  10.671  0.0630  0.1652  0.1067
 8152TIP3    H145871   4.212   5.178  10.762 -2.1841  0.7477 -0.3009
 8152TIP3    H245872   4.214   5.289  10.659  0.1880  0.0532 -1.0698
 8153TIP3   OH245873   5.391   2.554  10.586  0.1520  0.0131 -0.0454
 8153TIP3    H145874   5.444   2.557  10.506 -1.0216  2.0245 -0.8359
 8153TIP3    H245875   5.377   2.460  10.601  0.0839 -0.4514 -2.4542
 8154TIP3   OH245876   1.687   6.191  16.778  0.0522  0.4044 -0.1463
 8154TIP3    H145877   1.641   6.127  16.833 -0.1250 -0.6974 -1.5124
 8154TIP3    H245878   1.701   6.145  16.695  2.0727  1.3188 -0.3731
 8155TIP3   OH245879   1.127   0.987  16.736  0.2538  0.2763  0.9272
 8155TIP3    H145880   1.177   1.069  16.728  0.7700 -0.1514 -0.6111
 8155TIP3    H245881   1.164   0.944  16.813  0.5444  1.1092  1.2721
 8156TIP3   OH245882   0.470   1.998   3.483 -0.2539 -0.2256 -0.1697
 8156TIP3    H145883   0.378   2.019   3.498 -0.3227 -1.3058  1.0391
 8156TIP3    H245884   0.517   2.043   3.553 -0.2369 -2.4468  1.3572
 8157TIP3   OH245885   1.259   2.997  13.599 -0.5063 -0.1525  0.6330
 8157TIP3    H145886   1.312   3.067  13.561 -0.4241 -1.7150 -2.4970
 8157TIP3    H245887   1.182   3.042  13.634 -0.0634  1.5917 -0.4782
 8158TIP3   OH245888   5.429   3.154  12.180  0.3961 -0.1503  0.1870
 8158TIP3    H145889   5.497   3.113  12.232 -0.3010 -1.3388  0.2160
 8158TIP3    H245890   5.414   3.239  12.221  1.4234 -0.1245  0.5336
 8159TIP3   OH245891   4.570   3.618   2.857  0.2789 -0.2644 -0.1302
 8159TIP3    H145892   4.647   3.561   2.850  2.2332  2.2976 -0.9921
 8159TIP3    H245893   4.532   3.617   2.770 -0.0825 -0.7205  0.0271
 8160TIP3   OH245894   4.631   5.037   4.957 -0.0010 -0.0175  0.1802
 8160TIP3    H145895   4.557   5.082   4.997  0.3992  0.6262  0.2130
 8160TIP3    H245896   4.668   4.983   5.026 -0.2667 -0.1258  0.2389
 8161TIP3   OH245897   5.958   0.444   3.308 -0.4118  0.5418  0.0837
 8161TIP3    H145898   5.961   0.444   3.212 -0.1263 -1.3568  0.0464
 8161TIP3    H245899   6.040   0.403   3.334 -0.4777  1.0583  1.1601
 8162TIP3   OH245900   2.774   4.626  15.288  0.0769  0.0482  0.0026
 8162TIP3    H145901   2.788   4.562  15.219 -0.0641 -0.4074  0.3875
 8162TIP3    H245902   2.682   4.651  15.281  0.0485 -0.0402  0.0610
 8163TIP3   OH245903   2.310   2.806   3.269  0.3088 -0.4262  0.3213
 8163TIP3    H145904   2.263   2.882   3.302  0.0585 -0.9269  1.1564
 8163TIP3    H245905   2.380   2.842   3.214 -0.5939  0.3496 -0.3349
 8164TIP3   OH245906   1.430   0.806  12.233  0.2740  0.3867 -0.0564
 8164TIP3    H145907   1.408   0.759  12.152  0.4021  1.0392 -0.4813
 8164TIP3    H245908   1.395   0.751  12.303 -1.9650  0.9562 -0.6607
 8165TIP3   OH245909   6.201   4.320  15.331 -0.3657  0.1263  0.2756
 8165TIP3    H145910   6.126   4.347  15.384  0.9693  0.2139  2.2359
 8165TIP3    H245911   6.275   4.366  15.369  0.7368 -0.0947 -1.4977
 8166TIP3   OH245912   0.178   6.072  16.352  0.1056  0.1262 -0.1894
 8166TIP3    H145913   0.156   6.007  16.285 -0.2154  0.2495 -0.2059
 8166TIP3    H245914   0.160   6.156  16.311  0.9589  0.2517 -0.3286
 8167TIP3   OH245915   3.240   0.255  12.944 -0.4261 -0.4517  0.2171
 8167TIP3    H145916   3.278   0.288  12.863 -0.2009  1.8533  1.2085
 8167TIP3    H245917   3.161   0.208  12.916  0.9390 -1.8835 -1.5071
 8168TIP3   OH245918   4.928   1.615  12.229 -0.5220  0.1241 -1.0959
 8168TIP3    H145919   4.953   1.628  12.138 -1.0275  0.6171 -1.1702
 8168TIP3    H245920   4.846   1.565  12.225  1.0556 -2.6504 -0.8266
 8169TIP3   OH245921   2.349   3.504  13.718 -0.2514  0.4115 -0.4200
 8169TIP3    H145922   2.263   3.464  13.712  0.2718 -0.5338 -2.1856
 8169TIP3    H245923   2.392   3.460  13.792 -0.4208 -0.8465 -1.0537
 8170TIP3   OH245924   3.504   1.294   5.799  0.1418  0.0241 -0.0574
 8170TIP3    H145925   3.413   1.319   5.809 -0.1296 -0.6442 -0.7434
 8170TIP3    H245926   3.535   1.346   5.724  0.0314 -0.4760 -0.4584
 8171TIP3   OH245927   3.047   3.806  13.607 -0.3281  0.4313 -0.3861
 8171TIP3    H145928   3.059   3.866  13.680  1.4121  0.2738 -0.4978
 8171TIP3    H245929   3.041   3.862  13.530 -1.2993  0.5572 -0.2289
 8172TIP3   OH245930   4.996   2.250  11.740  0.2364 -0.0362  0.1240
 8172TIP3    H145931   5.051   2.180  11.704  0.9017  1.1985 -1.3456
 8172TIP3    H245932   5.058   2.316  11.771 -0.3954  0.1826  0.9806
 8173TIP3   OH245933   0.776   1.198   0.598 -0.0738  0.1021 -0.4689
 8173TIP3    H145934   0.714   1.233   0.662 -2.5707  0.4379 -2.9104
 8173TIP3    H245935   0.825   1.275   0.569 -0.2671  0.2630 -0.3745
 8174TIP3   OH245936   5.376   0.718  11.678  0.2365 -0.3023  0.3864
 8174TIP3    H145937   5.383   0.717  11.582  0.0263  1.6682  0.2972
 8174TIP3    H245938   5.295   0.671  11.697 -0.7486  0.9355 -0.5747
 8175TIP3   OH245939   4.786   5.395  11.199 -0.7475 -0.1036 -0.1100
 8175TIP3    H145940   4.704   5.445  11.204 -0.9662 -0.5743  2.1187
 8175TIP3    H245941   4.758   5.307  11.174 -1.2088 -0.7186  2.3456
 8176TIP3   OH245942   0.029   2.833  15.102 -0.2647 -0.0281 -0.0687
 8176TIP3    H145943   0.098   2.805  15.162  0.4487 -0.5418 -1.0957
 8176TIP3    H245944   0.038   2.928  15.097 -1.0398  0.1556  1.4570
 8177TIP3   OH245945   5.710   4.794   1.809 -0.1394 -0.1777  0.0197
 8177TIP3    H145946   5.645   4.763   1.746  1.1564 -0.6581 -1.1291
 8177TIP3    H245947   5.794   4.761   1.776  0.5904 -0.4802  2.0297
 8178TIP3   OH245948   4.009   3.062  16.482 -0.9333  0.5494 -0.4594
 8178TIP3    H145949   4.035   2.985  16.532  0.6643  0.6873 -1.0141
 8178TIP3    H245950   4.005   3.133  16.547 -2.1720  0.0839  0.0077
 8179TIP3   OH245951   3.169   3.486   1.365 -0.2279 -0.6425 -0.4162
 8179TIP3    H145952   3.131   3.404   1.396  0.3241 -0.9446 -0.5248
 8179TIP3    H245953   3.240   3.459   1.307 -0.9316 -0.0930 -1.5840
 8180TIP3   OH245954   1.435   2.626   3.708 -0.3944 -0.1357  0.2096
 8180TIP3    H145955   1.433   2.536   3.674  1.8341  0.1657 -0.8996
 8180TIP3    H245956   1.392   2.678   3.640 -1.2799 -0.2909  0.6431
 8181TIP3   OH245957   5.282   3.047   1.546 -0.0919 -0.1013 -0.0294
 8181TIP3    H145958   5.211   2.990   1.517  2.1797 -1.9014 -2.5010
 8181TIP3    H245959   5.326   2.997   1.615 -1.5808  1.3947  2.1639
 8182TIP3   OH245960   6.391   3.718   4.820  0.3256 -0.1090  0.1236
 8182TIP3    H145961   6.411   3.799   4.773  3.0313 -1.1122 -0.6392
 8182TIP3    H245962   6.462   3.710   4.885 -0.0682 -1.6884  0.4125
 8183TIP3   OH245963   4.743   6.536   0.769 -0.1648  0.1105 -0.1708
 8183TIP3    H145964   4.744   6.502   0.680 -1.4543 -0.7975  0.1291
 8183TIP3    H245965   4.655   6.574   0.778  0.0048  0.3122  0.6614
 8184TIP3   OH245966   0.114   6.119  13.166 -0.3533 -0.1975 -0.2880
 8184TIP3    H145967   0.132   6.035  13.125  0.9389  0.1095 -0.3786
 8184TIP3    H245968   0.018   6.127  13.163 -0.4337 -1.2702 -1.0399
 8185TIP3   OH245969   5.606   1.303  16.289 -0.1925 -0.1231  0.1584
 8185TIP3    H145970   5.603   1.398  16.298  1.6868  0.0963 -1.0211
 8185TIP3    H245971   5.631   1.272  16.376  1.6230  0.7020 -0.0021
 8186TIP3   OH245972   3.366   4.831   2.341  0.4982  0.2157  0.1989
 8186TIP3    H145973   3.397   4.921   2.347  1.3206 -0.0610  0.2245
 8186TIP3    H245974   3.354   4.804   2.433 -1.1089  0.7377  0.1769
 8187TIP3   OH245975   0.487   5.191  14.694  0.1499 -0.3355  0.1679
 8187TIP3    H145976   0.475   5.191  14.599 -0.8018 -0.9681  0.2651
 8187TIP3    H245977   0.427   5.259  14.726 -0.3734 -0.8850  0.3847
 8188TIP3   OH245978   6.337   3.411  14.940  0.2939 -0.1147 -0.2905
 8188TIP3    H145979   6.404   3.475  14.961  0.7242 -0.7111  0.2134
 8188TIP3    H245980   6.255   3.450  14.971  0.7970 -0.6133  1.8921
 8189TIP3   OH245981   5.120   5.328   0.784  0.6106  0.4080 -0.9428
 8189TIP3    H145982   5.127   5.265   0.856 -1.8210  1.1614  0.0581
 8189TIP3    H245983   5.206   5.326   0.741  1.5956 -1.2658  0.9628
 8190TIP3   OH245984   4.921   0.435  10.415 -0.2195 -0.0295 -0.3726
 8190TIP3    H145985   4.851   0.473  10.469 -0.1615 -1.5051  0.8012
 8190TIP3    H245986   4.964   0.511  10.375  0.5566  1.3053  2.6974
 8191TIP3   OH245987   3.164   3.927  10.857 -0.3884 -0.0916 -0.5646
 8191TIP3    H145988   3.094   3.911  10.794 -1.1216 -0.0318  0.2048
 8191TIP3    H245989   3.124   3.986  10.922 -0.4155 -1.9246  1.1840
 8192TIP3   OH245990   1.518   6.725   4.218  0.1882  0.2690 -0.1064
 8192TIP3    H145991   1.603   6.763   4.241 -0.5247  0.6697  2.0917
 8192TIP3    H245992   1.535   6.631   4.215  0.3644  0.1597  2.3286
 8193TIP3   OH245993   0.292   0.455  16.820 -0.8369  0.3587  0.1735
 8193TIP3    H145994   0.324   0.500  16.741  1.2295  0.6670  1.1288
 8193TIP3    H245995   0.317   0.512  16.892 -2.2244 -0.1885  1.1322
 8194TIP3   OH245996   6.156   3.645   3.969  0.1082 -0.2406  0.1058
 8194TIP3    H145997   6.062   3.661   3.976  0.2732  0.3605  1.0231
 8194TIP3    H245998   6.168   3.615   3.878 -0.6462  1.9809 -0.8032
 8195TIP3   OH245999   5.339   6.379   2.157 -0.2281  0.6720  0.5512
 8195TIP3    H146000   5.308   6.463   2.191 -1.0570  0.1988  0.9884
 8195TIP3    H246001   5.378   6.400   2.072 -1.7734  1.2967 -0.0292
 8196TIP3   OH246002   1.157   6.665  15.653 -0.1664 -0.9741 -0.0336
 8196TIP3    H146003   1.242   6.642  15.690 -0.2776  0.2897  1.0570
 8196TIP3    H246004   1.179   6.720  15.577  0.0043  0.0133  0.7080
 8197TIP3   OH246005   6.181   4.129   5.744 -0.1880 -0.3261 -0.1213
 8197TIP3    H146006   6.153   4.126   5.652  1.2263 -1.2352 -0.5574
 8197TIP3    H246007   6.164   4.042   5.778  0.9261 -0.5289 -0.0491
 8198TIP3   OH246008   5.554   5.885   0.685  0.1209 -0.3338 -0.0794
 8198TIP3    H146009   5.495   5.811   0.695  0.5568 -0.6449  0.1928
 8198TIP3    H246010   5.497   5.957   0.657 -0.1929 -0.9618 -1.1245
 8199TIP3   OH246011   0.113   5.252   5.356  0.2178  0.6036  0.4319
 8199TIP3    H146012   0.030   5.211   5.331 -0.2167  0.4420  2.0039
 8199TIP3    H246013   0.097   5.286   5.444  2.5050 -1.6207  1.8700
 8200TIP3   OH246014   5.018   3.716  12.143 -0.0688 -0.0359 -0.0498
 8200TIP3    H146015   4.989   3.768  12.218  0.7111 -1.2553  1.1265
 8200TIP3    H246016   5.112   3.732  12.137  0.0489 -0.7496 -0.1370
 8201TIP3   OH246017   5.005   2.087  11.129  0.4584 -0.1655 -0.2474
 8201TIP3    H146018   4.954   2.006  11.129 -0.9892  0.7081  0.7783
 8201TIP3    H246019   5.008   2.113  11.037 -0.1657 -0.6958 -0.4252
 8202TIP3   OH246020   0.886   2.420  10.964  0.0590  0.1389 -0.0149
 8202TIP3    H146021   0.970   2.379  10.940 -0.5130 -1.4490  0.5616
 8202TIP3    H246022   0.821   2.353  10.945 -1.0593  1.2001 -0.0341
 8203TIP3   OH246023   3.057   2.492   3.781  0.7443  0.0881  0.1638
 8203TIP3    H146024   2.989   2.481   3.714  1.5399 -0.5153 -0.5792
 8203TIP3    H246025   3.010   2.525   3.858 -0.4148 -0.5005 -0.2621
 8204TIP3   OH246026   3.881   1.264   4.493 -0.2201  0.5242  0.4286
 8204TIP3    H146027   3.904   1.207   4.420  1.0249  1.7626 -0.1918
 8204TIP3    H246028   3.786   1.257   4.500 -0.1174 -1.6642  0.4499
 8205TIP3   OH246029   6.478   4.048  14.064  0.1574 -0.0159 -0.4080
 8205TIP3    H146030   6.391   4.027  14.098 -0.1577  0.8529 -0.6459
 8205TIP3    H246031   6.464   4.061  13.970  0.3402  1.1450 -0.2903
 8206TIP3   OH246032   0.400   0.551   3.340 -0.4411  0.5261 -0.1867
 8206TIP3    H146033   0.347   0.579   3.266  0.9810  1.1743 -1.0028
 8206TIP3    H246034   0.420   0.632   3.387  0.6436  0.4356 -0.4702
 8207TIP3   OH246035   5.582   2.446   2.522  0.1753  0.0694  0.5817
 8207TIP3    H146036   5.526   2.403   2.587 -1.1014  0.2462 -0.3474
 8207TIP3    H246037   5.521   2.473   2.453  1.3623  0.7208 -0.2452
 8208TIP3   OH246038   2.970   3.596   5.167  0.1029 -0.0647  0.1445
 8208TIP3    H146039   2.925   3.658   5.225  0.3527 -1.6492  2.1407
 8208TIP3    H246040   2.918   3.516   5.172  0.7111 -0.5696 -1.0633
 8209TIP3   OH246041   6.788   5.440   1.371  0.1985  0.0946 -0.2837
 8209TIP3    H146042   6.820   5.490   1.447  0.7235 -0.3550 -0.1988
 8209TIP3    H246043   6.841   5.473   1.298  0.1116  0.0992 -0.3444
 8210TIP3   OH246044   3.047   5.236   0.209 -0.0403 -0.7143  0.6379
 8210TIP3    H146045   2.998   5.227   0.291 -0.7556  1.3830  0.5149
 8210TIP3    H246046   2.983   5.214   0.141 -0.4083  0.5237  0.5489
 8211TIP3   OH246047   5.296   2.493   1.785  0.1835 -0.1652  0.2715
 8211TIP3    H146048   5.257   2.564   1.734 -0.8562 -0.2703  0.8841
 8211TIP3    H246049   5.287   2.415   1.731  0.4160 -0.0076  0.0086
 8212TIP3   OH246050   2.862   4.707   4.372 -0.4312  0.5973  0.0743
 8212TIP3    H146051   2.830   4.706   4.282  1.6019  1.4881 -0.7014
 8212TIP3    H246052   2.842   4.796   4.404 -0.2396  0.6128  0.1534
 8213TIP3   OH246053   3.322   6.001  13.541 -0.1833  0.6525 -0.2268
 8213TIP3    H146054   3.266   6.076  13.562 -0.0518  0.4581  0.9024
 8213TIP3    H246055   3.407   6.023  13.579 -0.5164 -0.6573  1.4247
 8214TIP3   OH246056   2.116   3.740   3.631  0.4938  0.2550  0.3210
 8214TIP3    H146057   2.061   3.694   3.569 -0.7306  1.1960  0.6809
 8214TIP3    H246058   2.197   3.689   3.633 -0.3741 -1.1989 -0.1555
 8215TIP3   OH246059   6.208   1.085   3.621  0.0353 -0.5380 -0.3648
 8215TIP3    H146060   6.146   1.137   3.570  0.1727 -0.7783 -0.7807
 8215TIP3    H246061   6.248   1.026   3.558 -0.1354 -1.1704  0.1116
 8216TIP3   OH246062   5.197   0.163  16.743 -0.2991 -0.3942  0.0530
 8216TIP3    H146063   5.202   0.087  16.685 -1.6253  0.0516 -0.6911
 8216TIP3    H246064   5.218   0.238  16.687  1.4046 -0.2036  0.8660
 8217TIP3   OH246065   0.747   4.910   3.582 -0.3456  0.0370  0.6619
 8217TIP3    H146066   0.782   4.832   3.625  2.8347  0.0793 -1.5020
 8217TIP3    H246067   0.680   4.877   3.522  0.6648 -1.0284  0.0807
 8218TIP3   OH246068   4.617   2.211  11.474  0.1288 -0.2449 -0.2218
 8218TIP3    H146069   4.632   2.306  11.467 -1.2076  0.1642  1.7135
 8218TIP3    H246070   4.658   2.187  11.557  0.1304 -1.3140 -0.5192
 8219TIP3   OH246071   2.086   0.197   6.019  0.8062 -0.2327 -0.2892
 8219TIP3    H146072   2.071   0.284   5.981  1.0319  0.4747  1.1756
 8219TIP3    H246073   2.001   0.171   6.054  0.7084 -0.6730 -0.8379
 8220TIP3   OH246074   5.298   2.145  15.630 -0.1467  0.2651  0.4078
 8220TIP3    H146075   5.382   2.132  15.674 -0.3139  0.2870  0.7373
 8220TIP3    H246076   5.274   2.235  15.651  0.1529  0.5466 -0.3945
 8221TIP3   OH246077   2.483   2.051  11.051  0.3537  0.3969  0.2953
 8221TIP3    H146078   2.483   2.089  10.963  0.8431 -1.2758 -0.4738
 8221TIP3    H246079   2.576   2.043  11.074  0.2711 -0.4467  0.3678
 8222TIP3   OH246080   6.279   5.496  16.093 -0.5741 -0.3559 -0.1893
 8222TIP3    H146081   6.345   5.468  16.029 -0.9081 -1.9028  0.0917
 8222TIP3    H246082   6.328   5.510  16.174 -0.3741  0.0377 -0.3775
 8223TIP3   OH246083   1.882   1.156  13.361 -0.2309  0.3881  0.0598
 8223TIP3    H146084   1.895   1.250  13.377  1.5493  0.4785 -1.6083
 8223TIP3    H246085   1.823   1.152  13.286 -0.1595  0.1487  0.0174
 8224TIP3   OH246086   4.780   6.725   0.473 -0.1869  0.2703 -0.2554
 8224TIP3    H146087   4.734   6.646   0.445  2.9708 -1.4442 -1.0709
 8224TIP3    H246088   4.814   6.763   0.393  2.6208 -0.4930  0.4739
 8225TIP3   OH246089   5.613   2.712  14.523 -0.0446 -0.0220 -0.1659
 8225TIP3    H146090   5.538   2.682  14.471 -0.1180  0.0495 -0.1004
 8225TIP3    H246091   5.590   2.690  14.613 -0.7417  1.5047  0.0671
 8226TIP3   OH246092   3.369   0.753   4.893 -0.1442 -0.8303 -0.3590
 8226TIP3    H146093   3.328   0.822   4.841 -0.0291  0.0908  0.7117
 8226TIP3    H246094   3.300   0.723   4.952  0.4523  0.1879  0.9217
 8227TIP3   OH246095   5.518   5.237   4.106  0.4265  0.0660 -0.1936
 8227TIP3    H146096   5.454   5.169   4.081  0.4617 -0.2642  0.5894
 8227TIP3    H246097   5.469   5.319   4.103  0.3812  0.0204 -1.1455
 8228TIP3   OH246098   5.230   6.317  14.478 -0.2061  0.0798 -0.1229
 8228TIP3    H146099   5.173   6.343  14.406  0.7699 -0.2582 -1.0475
 8228TIP3    H246100   5.250   6.225  14.461  1.6981  0.5375 -0.6093
 8229TIP3   OH246101   3.369   0.499  14.790  0.1365 -0.1362  0.1454
 8229TIP3    H146102   3.317   0.529  14.715 -1.7597 -4.4769 -0.5622
 8229TIP3    H246103   3.334   0.548  14.865 -0.9908  1.1301 -1.1413
 8230TIP3   OH246104   2.897   0.554  14.641  0.0022 -0.2703  0.6290
 8230TIP3    H146105   2.939   0.504  14.571  0.4862  1.4995 -0.3897
 8230TIP3    H246106   2.949   0.533  14.719  1.2362 -0.0865 -0.1074
 8231TIP3   OH246107   6.065   2.163  13.971 -0.0528  0.4589  0.0624
 8231TIP3    H146108   6.031   2.087  13.923  2.7107 -1.4413  0.8286
 8231TIP3    H246109   6.006   2.173  14.045 -0.5886 -0.8685 -0.1605
 8232TIP3   OH246110   2.903   6.290  15.956 -0.4191 -0.7703 -0.4428
 8232TIP3    H146111   2.953   6.228  15.904  0.1462 -2.9450  2.3914
 8232TIP3    H246112   2.898   6.249  16.043 -0.8750  2.7402  1.3742
 8233TIP3   OH246113   3.932   2.909  15.202  0.1920 -0.0438 -0.1933
 8233TIP3    H146114   3.983   2.926  15.123 -1.2054  0.3238 -1.0330
 8233TIP3    H246115   3.852   2.867  15.171 -0.0822 -0.5305  1.0955
 8234TIP3   OH246116   5.244   5.465   4.891 -0.3508  0.2977 -0.3818
 8234TIP3    H146117   5.184   5.416   4.835 -2.0081  0.7088  0.9248
 8234TIP3    H246118   5.234   5.423   4.977  0.4353  1.0715  0.0931
 8235TIP3   OH246119   4.377   2.208  11.958 -0.3427 -0.5505  0.5830
 8235TIP3    H146120   4.340   2.196  12.046  0.5043 -1.3060  0.8559
 8235TIP3    H246121   4.311   2.170  11.900  0.4274 -2.9255  1.1432
 8236TIP3   OH246122   2.658   6.349  12.911 -0.1254 -0.6560  0.0794
 8236TIP3    H146123   2.625   6.276  12.858  0.8260 -1.2304  0.2434
 8236TIP3    H246124   2.696   6.307  12.988 -1.8935  0.2031  1.4644
 8237TIP3   OH246125   6.664   4.278   1.342 -0.2786 -0.1340 -0.1607
 8237TIP3    H146126   6.588   4.234   1.380 -1.6176  0.2619 -2.2578
 8237TIP3    H246127   6.629   4.326   1.267  1.4404  2.9972  0.8928
 8238TIP3   OH246128   2.263   4.761  13.913 -0.4704  0.2727 -0.5427
 8238TIP3    H146129   2.176   4.728  13.893 -1.7754  2.0424  1.7521
 8238TIP3    H246130   2.311   4.685  13.945 -1.8200 -0.3791  0.0107
 8239TIP3   OH246131   1.564   6.125   3.214  0.5169 -0.1835 -0.1212
 8239TIP3    H146132   1.513   6.200   3.243 -0.1861 -0.3107 -0.9667
 8239TIP3    H246133   1.595   6.084   3.295  0.1064  0.4728  0.3769
 8240TIP3   OH246134   2.043   1.673   3.780 -0.6750  0.6426 -0.2614
 8240TIP3    H146135   2.018   1.748   3.833 -1.4892 -1.1278  2.0280
 8240TIP3    H246136   1.975   1.668   3.712 -0.8917  1.6649 -0.1359
 8241TIP3   OH246137   0.423   2.348  16.919  0.3480 -0.8339 -0.2756
 8241TIP3    H146138   0.404   2.441  16.923  0.1446 -0.8404 -1.0036
 8241TIP3    H246139   0.504   2.338  16.969  1.0412 -0.0770 -1.2154
 8242TIP3   OH246140   4.499   0.847   2.080 -0.5132  0.7704 -0.1192
 8242TIP3    H146141   4.570   0.841   2.016 -1.3996 -0.1729 -1.0537
 8242TIP3    H246142   4.538   0.893   2.154  0.6503  1.5633 -1.1751
 8243TIP3   OH246143   6.427   6.237   3.972  0.0077 -0.3599 -0.1150
 8243TIP3    H146144   6.390   6.326   3.978 -1.4250 -0.8077 -1.6665
 8243TIP3    H246145   6.425   6.216   3.879 -1.5874 -2.7697  0.3774
 8244TIP3   OH246146   2.273   6.682   2.191  0.2294 -0.1217  0.7011
 8244TIP3    H146147   2.324   6.666   2.112  2.4333  0.5525  1.9122
 8244TIP3    H246148   2.198   6.623   2.183  0.6566 -0.4510 -1.6157
 8245TIP3   OH246149   1.163   1.556  11.133 -0.2716 -0.5086 -0.3322
 8245TIP3    H146150   1.229   1.508  11.182 -0.9059 -2.4915 -1.2827
 8245TIP3    H246151   1.203   1.572  11.048 -0.7850 -1.2174 -0.7195
 8246TIP3   OH246152   6.538   2.268   0.022 -0.0185  0.0807 -0.0802
 8246TIP3    H146153   6.609   2.324   0.052 -0.4640  0.0672  1.0456
 8246TIP3    H246154   6.494   2.240   0.102 -0.4853 -0.9812 -0.6787
 8247TIP3   OH246155   6.575   1.659  12.942  0.3129 -0.0283 -0.3937
 8247TIP3    H146156   6.482   1.663  12.918  0.2422  0.7322 -0.0342
 8247TIP3    H246157   6.605   1.576  12.906 -0.0475  0.5470 -2.1435
 8248TIP3   OH246158   1.845   2.262   2.575 -0.4764  0.3387  0.0882
 8248TIP3    H146159   1.885   2.256   2.488 -1.0131  3.1096 -0.4281
 8248TIP3    H246160   1.775   2.325   2.565  1.1788  2.9119  3.0866
 8249TIP3   OH246161   6.655   1.776   6.317  0.5592  0.4617 -0.3540
 8249TIP3    H146162   6.633   1.716   6.246  0.1926 -1.3658  1.2185
 8249TIP3    H246163   6.682   1.719   6.389 -3.9969  1.7132  2.8072
 8250TIP3   OH246164   1.086   5.893  13.510  0.4901 -0.1160 -0.0337
 8250TIP3    H146165   1.064   5.917  13.600  0.7968 -0.6821  0.1947
 8250TIP3    H246166   1.013   5.927  13.458 -0.4277 -1.0777  0.5876
 8251TIP3   OH246167   4.327   4.233   4.465 -0.3108 -0.1225  0.5071
 8251TIP3    H146168   4.361   4.307   4.516 -1.0881 -0.1091  1.0291
 8251TIP3    H246169   4.383   4.159   4.490 -0.5469 -0.0676  1.2397
 8252TIP3   OH246170   4.115   4.722  16.417  0.3125 -0.3410 -0.4260
 8252TIP3    H146171   4.053   4.703  16.347  0.4097 -0.5268 -0.4623
 8252TIP3    H246172   4.164   4.640  16.429  1.1648  0.0709 -1.0012
 8253TIP3   OH246173   4.121   0.260  14.827  0.0678 -0.3533 -0.4385
 8253TIP3    H146174   4.042   0.308  14.802  0.4446  0.1910 -0.5922
 8253TIP3    H246175   4.156   0.307  14.902  0.6209 -0.1820 -0.7944
 8254TIP3   OH246176   6.066   0.253   1.199  0.0097  0.0936 -0.2971
 8254TIP3    H146177   6.155   0.246   1.165  0.6971  3.1495  0.5673
 8254TIP3    H246178   6.019   0.304   1.132 -0.5846  0.0780  0.0999
 8255TIP3   OH246179   2.693   6.762  15.865  0.0493 -0.0437 -0.4670
 8255TIP3    H146180   2.695   6.667  15.854 -2.0146 -0.1766  0.0731
 8255TIP3    H246181   2.740   6.777  15.947 -0.4251 -0.6877 -0.0681
 8256TIP3   OH246182   1.386   2.147  13.397 -0.2789  0.5009  0.6559
 8256TIP3    H146183   1.473   2.161  13.361  1.1684 -2.2775  2.7214
 8256TIP3    H246184   1.332   2.126  13.321  0.9112  1.7612 -0.6030
 8257TIP3   OH246185   2.268   3.494  15.071 -0.2694  0.3994 -0.0771
 8257TIP3    H146186   2.178   3.463  15.060 -0.2733  0.3872 -0.0096
 8257TIP3    H246187   2.311   3.472  14.988 -0.3309  0.4143 -0.1125
 8258TIP3   OH246188   3.911   5.960   4.602 -0.4200  0.3504  0.0653
 8258TIP3    H146189   3.955   5.992   4.523  0.1466  1.2677  0.7384
 8258TIP3    H246190   3.869   6.037   4.639  0.4242  0.1964  1.3693
 8259TIP3   OH246191   5.996   6.170   1.930  0.2800  0.1551 -0.3283
 8259TIP3    H146192   5.904   6.151   1.945  0.0514 -0.7142 -2.5655
 8259TIP3    H246193   6.041   6.087   1.945  0.7526  0.5815  0.7898
 8260TIP3   OH246194   0.618   1.758   4.591 -0.1378  0.2220 -0.2492
 8260TIP3    H146195   0.599   1.792   4.679  1.1198  0.6047 -0.1156
 8260TIP3    H246196   0.620   1.663   4.602 -1.0903  0.2085 -0.1014
 8261TIP3   OH246197   5.726   5.410  10.951 -0.6837  0.0153 -0.4100
 8261TIP3    H146198   5.742   5.320  10.980  2.0029  0.8499  1.0419
 8261TIP3    H246199   5.763   5.413  10.863 -0.3526 -0.1950 -0.2801
 8262TIP3   OH246200   4.130   5.561   2.454 -0.0143  0.0660 -0.3591
 8262TIP3    H146201   4.179   5.616   2.393  2.0569 -0.9064  0.3427
 8262TIP3    H246202   4.197   5.519   2.508 -1.4993 -2.7601 -0.5284
 8263TIP3   OH246203   1.169   6.590   5.763 -0.5340  0.4478  0.0126
 8263TIP3    H146204   1.165   6.503   5.802  1.6933  0.3657  0.2314
 8263TIP3    H246205   1.082   6.606   5.729 -0.7636 -2.2744 -0.9038
 8264TIP3   OH246206   6.802   6.800  14.060  0.5787  0.0824  0.4414
 8264TIP3    H146207   6.815   6.793  14.155  1.1556 -0.2500  0.3388
 8264TIP3    H246208   6.707   6.795  14.049  0.6048 -2.4646  0.8074
 8265TIP3   OH246209   2.096   1.176   4.028 -0.0473 -1.0301  0.0641
 8265TIP3    H146210   2.073   1.199   4.118 -1.0312 -0.1349 -0.3948
 8265TIP3    H246211   2.182   1.134   4.035 -0.8713 -2.5874  1.6101
 8266TIP3   OH246212   5.976   5.092   4.849 -0.0220  0.8233 -0.1881
 8266TIP3    H146213   5.881   5.091   4.853 -0.1241 -2.9686  0.0064
 8266TIP3    H246214   5.997   5.082   4.757  0.1001 -0.3809 -0.0420
 8267TIP3   OH246215   4.836   1.829   0.447 -0.1536 -0.0104 -0.0647
 8267TIP3    H146216   4.751   1.799   0.479 -0.0246  0.1484  0.4366
 8267TIP3    H246217   4.898   1.803   0.516  0.0325  0.9116  0.1266
 8268TIP3   OH246218   3.592   5.314   0.328 -0.1494 -0.1735  0.2929
 8268TIP3    H146219   3.654   5.289   0.260  1.2122 -0.1583  1.4853
 8268TIP3    H246220   3.516   5.257   0.314  0.8039 -1.3564 -0.1883
 8269TIP3   OH246221   3.648   5.077   2.879 -0.1299  0.2050  0.4146
 8269TIP3    H146222   3.618   5.166   2.858 -1.3205 -0.5557 -1.3411
 8269TIP3    H246223   3.575   5.038   2.926 -0.3299 -0.3839 -0.3640
 8270TIP3   OH246224   0.281   0.785  11.319  0.3201 -0.6599 -0.0794
 8270TIP3    H146225   0.198   0.830  11.334  0.2093 -0.1023 -2.0651
 8270TIP3    H246226   0.316   0.768  11.407 -0.0734  2.4989  0.8056
 8271TIP3   OH246227   2.283   1.212  17.087  0.1381  0.0593 -0.0448
 8271TIP3    H146228   2.197   1.170  17.094 -0.7233  1.6803 -0.3665
 8271TIP3    H246229   2.303   1.210  16.994 -0.1446  0.7540 -0.1318
 8272TIP3   OH246230   3.833   3.907  13.322 -0.5820  0.5051 -0.1464
 8272TIP3    H146231   3.831   3.819  13.361  0.6292  0.9037  0.8667
 8272TIP3    H246232   3.820   3.892  13.229  3.0762 -1.1291 -0.5336
 8273TIP3   OH246233   3.132   2.466  12.453 -0.4882  0.3217  0.7147
 8273TIP3    H146234   3.043   2.440  12.477 -1.6055  1.8449 -1.4838
 8273TIP3    H246235   3.185   2.446  12.531 -2.7960 -0.2829  2.2145
 8274TIP3   OH246236   3.767   0.546  12.871 -0.1804 -0.3757  0.1797
 8274TIP3    H146237   3.787   0.554  12.964 -0.8850  0.6683  0.2530
 8274TIP3    H246238   3.848   0.512  12.832  0.0720 -0.9628  1.1806
 8275TIP3   OH246239   0.350   2.562  13.368  0.0994 -0.0825 -0.2522
 8275TIP3    H146240   0.274   2.507  13.348  1.1341 -1.9331  0.6220
 8275TIP3    H246241   0.395   2.571  13.284 -0.8861  0.7661 -0.7117
 8276TIP3   OH246242   0.707   5.758  10.815 -0.4892  0.1941  0.1121
 8276TIP3    H146243   0.657   5.839  10.816  0.9841  1.1477  1.0838
 8276TIP3    H246244   0.780   5.775  10.756 -0.2509 -0.4800  0.1981
 8277TIP3   OH246245   5.854   2.133   1.645 -0.0316 -0.0906 -0.0732
 8277TIP3    H146246   5.763   2.115   1.669 -0.0168  1.4762  1.3412
 8277TIP3    H246247   5.897   2.048   1.649 -1.1466 -0.6513  0.5871
 8278TIP3   OH246248   5.459   1.913  11.607  0.1306  0.2010  0.8176
 8278TIP3    H146249   5.381   1.864  11.582 -0.1946  0.8374  0.5593
 8278TIP3    H246250   5.530   1.872  11.559 -0.4639  1.3526 -1.1570
 8279TIP3   OH246251   4.852   3.083   4.993  0.5098 -0.7812  0.2344
 8279TIP3    H146252   4.866   3.169   5.031 -1.2778 -0.1822 -0.3282
 8279TIP3    H246253   4.940   3.049   4.975  1.2397  1.0988  0.0737
 8280TIP3   OH246254   5.090   4.378   2.411  0.3496  0.1965 -0.6545
 8280TIP3    H146255   5.084   4.352   2.319 -2.0456 -1.7381 -0.0608
 8280TIP3    H246256   5.000   4.376   2.443  1.0062  1.7450  1.5232
 8281TIP3   OH246257   2.005   1.267   0.595  0.3911 -0.6671  0.3576
 8281TIP3    H146258   1.936   1.203   0.606  0.1121 -0.2519  1.0665
 8281TIP3    H246259   1.998   1.324   0.671  0.1730  0.6427 -0.6160
 8282TIP3   OH246260   6.515   5.595   1.861  0.6912 -0.4997 -0.4490
 8282TIP3    H146261   6.573   5.519   1.860 -0.0734 -1.1376  1.1304
 8282TIP3    H246262   6.553   5.655   1.797  0.4160 -2.8404 -2.9794
 8283TIP3   OH246263   6.598   5.905  16.739  0.3290 -0.2055 -1.0258
 8283TIP3    H146264   6.640   5.986  16.709  1.1875 -0.2251  0.0574
 8283TIP3    H246265   6.590   5.916  16.834  0.0667 -1.2234 -0.9194
 8284TIP3   OH246266   5.268   5.559  14.119  0.0493 -0.1661  0.1551
 8284TIP3    H146267   5.184   5.537  14.079  0.7069  0.3870 -1.6251
 8284TIP3    H246268   5.333   5.537  14.052  1.0182  3.5640 -0.3767
 8285TIP3   OH246269   1.097   6.174   2.820 -0.0447 -0.2604 -0.1269
 8285TIP3    H146270   1.109   6.235   2.892  0.3406 -1.6957  1.0753
 8285TIP3    H246271   1.180   6.128   2.813 -0.7681 -1.6501 -0.0062
 8286TIP3   OH246272   3.382   1.855  16.418  0.0196  0.0450  0.2552
 8286TIP3    H146273   3.413   1.863  16.508  0.5102  0.5954  0.0425
 8286TIP3    H246274   3.373   1.761  16.404 -2.3983 -0.0135  1.6567
 8287TIP3   OH246275   1.384   4.245  11.279 -0.0224 -0.0884 -0.0192
 8287TIP3    H146276   1.435   4.200  11.212 -0.1991 -0.5669  0.1602
 8287TIP3    H246277   1.416   4.335  11.278 -0.2077 -0.0201 -0.9260
 8288TIP3   OH246278   0.518   6.119  14.937  0.0891  0.3516 -0.4587
 8288TIP3    H146279   0.550   6.205  14.907 -0.5927  0.4286 -1.0064
 8288TIP3    H246280   0.435   6.139  14.981  0.3101  0.0563  0.0943
 8289TIP3   OH246281   4.603   3.629   4.520 -0.6851 -0.3739  0.1000
 8289TIP3    H146282   4.608   3.545   4.566  0.0451 -0.4515 -0.1062
 8289TIP3    H246283   4.544   3.613   4.447  0.1244 -0.9722 -0.4468
 8290TIP3   OH246284   1.174   3.101  15.667  0.6490 -0.4289  0.1897
 8290TIP3    H146285   1.193   3.026  15.723  0.2712 -1.7718 -1.4271
 8290TIP3    H246286   1.117   3.067  15.599 -1.3350  1.8000  0.5826
 8291TIP3   OH246287   6.554   0.575   0.468  0.3046  0.3494 -0.6932
 8291TIP3    H146288   6.497   0.649   0.491  0.2304  0.3283 -0.8101
 8291TIP3    H246289   6.637   0.596   0.510 -0.6043 -1.0523  2.0606
 8292TIP3   OH246290   5.676   4.110  11.089  0.0142  0.6254 -0.0435
 8292TIP3    H146291   5.740   4.179  11.072  0.2789 -0.1131 -2.4838
 8292TIP3    H246292   5.724   4.045  11.141  0.9655  0.5443 -0.9830
 8293TIP3   OH246293   1.424   4.163   3.716  0.2917 -0.1116 -0.7353
 8293TIP3    H146294   1.460   4.097   3.775 -0.4334  0.5061  0.4380
 8293TIP3    H246295   1.339   4.127   3.690  0.4559 -0.2167 -1.1476
 8294TIP3   OH246296   2.376   1.095   2.284 -0.4023 -0.1527  0.5120
 8294TIP3    H146297   2.448   1.135   2.236 -0.8597 -0.2226 -0.2399
 8294TIP3    H246298   2.417   1.061   2.364  0.6888 -1.4078 -0.5178
 8295TIP3   OH246299   6.172   3.870   5.734 -0.0374 -0.0550  0.0131
 8295TIP3    H146300   6.117   3.810   5.783 -1.4164  0.3916 -0.9298
 8295TIP3    H246301   6.140   3.864   5.644 -0.5891  2.4142 -0.0327
 8296TIP3   OH246302   3.350   2.499  12.655  0.0364 -0.3661  0.6998
 8296TIP3    H146303   3.420   2.541  12.705 -0.3002  0.5016  0.4593
 8296TIP3    H246304   3.292   2.462  12.722  0.5060 -0.7344  0.9076
 8297TIP3   OH246305   3.897   2.412  15.802 -0.0358  0.2604 -0.4122
 8297TIP3    H146306   3.980   2.423  15.757  0.1704  1.6552  0.2523
 8297TIP3    H246307   3.921   2.389  15.892 -0.3456  1.1892 -0.0838
 8298TIP3   OH246308   2.115   3.177  13.547 -0.4987 -0.1110  0.7205
 8298TIP3    H146309   2.185   3.192  13.484 -1.6717 -1.9570 -1.1533
 8298TIP3    H246310   2.093   3.264  13.580  2.3438  0.5575  1.0910
 8299TIP3   OH246311   1.154   3.431  14.816  0.4174 -0.3101  0.0062
 8299TIP3    H146312   1.163   3.509  14.762  2.6241  0.3392  1.1672
 8299TIP3    H246313   1.077   3.386  14.782  0.0484  1.5288 -1.7497
 8300TIP3   OH246314   2.220   1.836   6.247  0.1097 -0.3368  0.2340
 8300TIP3    H146315   2.212   1.809   6.155 -1.8119 -1.3658  0.6309
 8300TIP3    H246316   2.301   1.794   6.278 -0.6737 -2.3808 -0.2842
 8301TIP3   OH246317   4.857   3.619  16.079 -0.7541  0.2422 -0.9553
 8301TIP3    H146318   4.882   3.631  16.171  0.3632  0.4284 -1.2685
 8301TIP3    H246319   4.766   3.592  16.083 -0.1675 -1.8374  0.3435
 8302TIP3   OH246320   3.136   6.654  13.810  0.0879 -0.1263 -0.0807
 8302TIP3    H146321   3.093   6.687  13.731  0.5954  0.0244 -0.2957
 8302TIP3    H246322   3.212   6.711  13.822 -1.0677  1.1421  1.6707
 8303TIP3   OH246323   2.619   1.907  15.498  0.0652  0.2300  0.4237
 8303TIP3    H146324   2.647   1.946  15.415  0.0268 -0.2534  0.1832
 8303TIP3    H246325   2.576   1.825  15.473  1.2895 -0.6189  1.0099
 8304TIP3   OH246326   1.839   6.301   0.295  0.1713  0.5263  0.1035
 8304TIP3    H146327   1.915   6.359   0.304 -0.4268  1.4445 -0.5948
 8304TIP3    H246328   1.874   6.223   0.251  0.9472  0.4059  0.8901
 8305TIP3   OH246329   2.954   0.374  12.382  0.0680  0.0500 -0.7648
 8305TIP3    H146330   2.911   0.290  12.366 -1.8941  1.2765 -2.3873
 8305TIP3    H246331   3.046   0.358  12.361 -0.1783 -1.7784 -0.6310
 8306TIP3   OH246332   3.106   2.221   5.686 -0.3560 -0.1602 -0.7093
 8306TIP3    H146333   3.166   2.150   5.666 -1.5511 -1.8053  1.1871
 8306TIP3    H246334   3.119   2.239   5.779 -1.7461  0.4615 -0.6088
 8307TIP3   OH246335   5.148   0.470  14.901 -0.1550 -0.4130  0.0499
 8307TIP3    H146336   5.148   0.481  14.996 -0.5363 -0.4116  0.0507
 8307TIP3    H246337   5.148   0.560  14.867 -1.6787 -0.3851  0.0558
 8308TIP3   OH246338   0.436   1.856   2.036 -0.2294 -0.2729  0.1056
 8308TIP3    H146339   0.395   1.797   1.972 -0.4423  0.7346 -0.7162
 8308TIP3    H246340   0.530   1.838   2.029 -0.3617 -1.1805  0.5549
 8309TIP3   OH246341   2.482   0.627  16.055  0.3848  0.0621 -0.0644
 8309TIP3    H146342   2.447   0.581  16.132  0.0705  1.4187  0.6417
 8309TIP3    H246343   2.565   0.664  16.085 -1.0606  3.0947  0.6600
 8310TIP3   OH246344   1.699   1.955   2.410  0.1611 -0.6004  0.1141
 8310TIP3    H146345   1.647   2.035   2.403 -1.1659 -1.5259 -1.0143
 8310TIP3    H246346   1.790   1.985   2.403 -0.2406  0.9054  0.8094
 8311TIP3   OH246347   0.761   2.758  15.704  0.1465 -0.2228  0.2144
 8311TIP3    H146348   0.714   2.728  15.782 -1.1633  1.7238  0.2441
 8311TIP3    H246349   0.716   2.838  15.678  1.9577  0.3959 -1.2419
 8312TIP3   OH246350   6.215   5.685  15.182 -0.5873 -0.2367 -0.2710
 8312TIP3    H146351   6.265   5.750  15.133 -0.6217 -0.9668 -1.3021
 8312TIP3    H246352   6.125   5.696  15.150 -0.5758 -0.8481 -0.5331
 8313TIP3   OH246353   6.228   5.957  16.905  0.1424  0.8160 -0.2486
 8313TIP3    H146354   6.274   5.879  16.937 -0.2547  0.5399 -0.3364
 8313TIP3    H246355   6.262   5.970  16.816  0.2396  0.7656 -0.2187
 8314TIP3   OH246356   3.003   2.783  12.854  0.5320  0.1754  0.1818
 8314TIP3    H146357   2.918   2.761  12.816  0.0915  0.0613  1.2043
 8314TIP3    H246358   2.988   2.865  12.901  0.5063 -0.7577  1.8715
 8315TIP3   OH246359   4.077   4.670   4.055  0.6505  0.7355 -0.5618
 8315TIP3    H146360   4.083   4.587   4.007 -0.7545  0.1957  0.1336
 8315TIP3    H246361   4.061   4.735   3.987 -0.5178  0.0940 -0.9453
 8316TIP3   OH246362   5.380   1.851   0.222  0.4421 -0.2226 -0.5224
 8316TIP3    H146363   5.370   1.935   0.269 -2.2705 -0.0551 -1.2076
 8316TIP3    H246364   5.309   1.796   0.257  0.1932 -1.1056 -2.3248
 8317TIP3   OH246365   5.032   6.600  10.673  0.4173 -0.0403 -0.0327
 8317TIP3    H146366   5.073   6.603  10.587 -1.2241 -0.8506 -0.8743
 8317TIP3    H246367   4.943   6.631  10.659  0.9138  2.7002  1.9368
 8318TIP3   OH246368   6.693   1.248   4.975 -0.3557  0.3347  0.5715
 8318TIP3    H146369   6.617   1.206   4.933 -0.0191 -1.2449  1.4622
 8318TIP3    H246370   6.663   1.272   5.062  0.2942 -0.8829  1.1684
 8319TIP3   OH246371   1.459   1.787  16.683  0.2722 -0.3890 -0.7699
 8319TIP3    H146372   1.368   1.766  16.663  0.0533  1.7121 -2.4710
 8319TIP3    H246373   1.509   1.747  16.611  0.4207  0.2842 -1.0514
 8320TIP3   OH246374   3.012   2.823  11.044 -0.0424  0.0089  0.4196
 8320TIP3    H146375   2.936   2.768  11.027  1.1539 -1.0477 -1.9677
 8320TIP3    H246376   3.005   2.895  10.981  0.0595  0.8730  1.3705
 8321TIP3   OH246377   1.939   0.390  13.473  0.3206 -0.2946 -0.3167
 8321TIP3    H146378   2.012   0.411  13.414  0.6241  1.1656  0.5278
 8321TIP3    H246379   1.966   0.308  13.515  0.9213 -0.4043 -0.8813
 8322TIP3   OH246380   2.135   6.782  14.850  0.3902 -0.3669 -0.1581
 8322TIP3    H146381   2.056   6.831  14.871 -1.2940 -2.4210 -1.3064
 8322TIP3    H246382   2.197   6.806  14.918 -0.4475  2.9606 -0.4146
 8323TIP3   OH246383   5.474   6.412  10.345 -0.0136  0.0389  0.3346
 8323TIP3    H146384   5.412   6.482  10.328 -0.8075 -0.2141  1.9716
 8323TIP3    H246385   5.458   6.348  10.276 -0.1811  0.8674 -0.4157
 8324TIP3   OH246386   1.013   4.426  16.624 -0.2596 -0.0037  0.1104
 8324TIP3    H146387   1.054   4.384  16.548  1.0943 -0.5771  1.1145
 8324TIP3    H246388   0.923   4.442  16.597  0.0157 -0.8012 -1.3804
 8325TIP3   OH246389   6.497   1.110  15.509 -0.3966  0.2220  0.3402
 8325TIP3    H146390   6.477   1.026  15.550 -2.7914 -0.5973 -2.2445
 8325TIP3    H246391   6.592   1.119  15.518 -0.3155 -1.7818  2.3588
 8326TIP3   OH246392   4.396   1.117  12.506  0.6041  0.0256 -0.6016
 8326TIP3    H146393   4.415   1.208  12.527 -0.3860 -0.0390  0.7045
 8326TIP3    H246394   4.363   1.079  12.588  0.8105 -1.4544 -1.1675
 8327TIP3   OH246395   2.988   2.797   1.802  0.1450  0.3666  0.6579
 8327TIP3    H146396   3.072   2.788   1.757 -0.7513 -0.0083 -1.0087
 8327TIP3    H246397   3.006   2.770   1.892  1.5364 -0.9525  0.0212
 8328TIP3   OH246398   4.873   0.664   5.146  0.8021  0.0767  0.3974
 8328TIP3    H146399   4.870   0.674   5.050  1.2516  0.5858  0.4291
 8328TIP3    H246400   4.866   0.754   5.179 -0.5479 -0.1911  0.8828
 8329TIP3   OH246401   3.290   5.867   2.937 -0.5257 -0.3038 -0.5791
 8329TIP3    H146402   3.203   5.907   2.934 -0.5294  0.0219  1.8026
 8329TIP3    H246403   3.348   5.937   2.967  0.3598 -0.8072 -1.0915
 8330TIP3   OH246404   4.069   2.845  16.670 -0.0958  0.2613 -0.0944
 8330TIP3    H146405   4.163   2.827  16.667 -0.2855 -1.6821  2.3960
 8330TIP3    H246406   4.053   2.874  16.760 -1.7772  1.3027 -0.6842
 8331TIP3   OH246407   0.148   5.670   4.694  0.4172 -0.2381 -0.7585
 8331TIP3    H146408   0.083   5.619   4.741  0.9440 -0.6037 -0.4058
 8331TIP3    H246409   0.105   5.696   4.612 -1.1261  1.8565  0.5989
 8332TIP3   OH246410   4.811   3.688  16.996 -0.0574  0.0461  0.0942
 8332TIP3    H146411   4.719   3.679  17.023  0.4754 -2.4973  1.3577
 8332TIP3    H246412   4.825   3.783  16.989 -2.0008  0.6299  2.6850
 8333TIP3   OH246413   3.691   1.427  10.668 -0.1240 -0.0816  0.0546
 8333TIP3    H146414   3.738   1.510  10.678  0.7810 -0.5764  0.0526
 8333TIP3    H246415   3.731   1.386  10.591 -1.8615  0.3222 -1.1181
 8334TIP3   OH246416   3.813   1.185  12.040 -0.3200  0.2588  1.1479
 8334TIP3    H146417   3.791   1.227  11.956  0.8995  0.7556  1.0557
 8334TIP3    H246418   3.729   1.154  12.074 -0.9964  1.0994  0.3045
 8335TIP3   OH246419   2.045   4.503   1.811 -0.8911 -0.3128 -0.2999
 8335TIP3    H146420   2.050   4.591   1.774 -0.7208  0.3941  1.3428
 8335TIP3    H246421   1.976   4.508   1.877 -1.2316 -1.5571 -0.5336
 8336TIP3   OH246422   3.066   0.444  15.499  0.4108  0.1290  0.2955
 8336TIP3    H146423   3.105   0.411  15.580 -0.9911  0.4788  1.1459
 8336TIP3    H246424   3.025   0.527  15.524  0.0227  0.2839 -0.7960
 8337TIP3   OH246425   1.008   0.538  15.570 -0.3375 -0.3299 -0.6613
 8337TIP3    H146426   1.037   0.622  15.535  0.4242 -0.3060  0.0093
 8337TIP3    H246427   1.060   0.526  15.650  1.5573 -2.6867 -2.1185
 8338TIP3   OH246428   0.342   4.958   2.285  0.0939  0.2363  0.5531
 8338TIP3    H146429   0.368   4.956   2.377  0.9890  0.7744  0.3207
 8338TIP3    H246430   0.386   5.035   2.249  0.3874 -0.4053 -0.5088
 8339TIP3   OH246431   1.447   4.912  15.438 -0.9914 -0.2259 -0.3686
 8339TIP3    H146432   1.530   4.868  15.456 -0.6479  0.5185 -0.0785
 8339TIP3    H246433   1.398   4.907  15.520 -0.7018  0.4448 -0.1452
 8340TIP3   OH246434   5.577   0.912   4.481  0.1220  0.0883 -0.1681
 8340TIP3    H146435   5.499   0.966   4.472  0.5460  0.5232 -1.4607
 8340TIP3    H246436   5.557   0.854   4.554 -1.6165 -0.1388 -0.7646
 8341TIP3   OH246437   1.065   5.764  12.687  0.2294  0.5535  0.0130
 8341TIP3    H146438   1.000   5.832  12.671 -0.5848 -0.0816  0.5057
 8341TIP3    H246439   1.084   5.728  12.600 -2.0576 -0.9985  0.0640
 8342TIP3   OH246440   4.048   5.275  14.493 -0.1106 -0.2943  0.6544
 8342TIP3    H146441   4.044   5.190  14.450 -2.4602  0.1883 -0.2486
 8342TIP3    H246442   3.956   5.299  14.508  0.5168  0.7743  3.6196
 8343TIP3   OH246443   6.302   2.771   3.774 -0.6869  0.4353 -0.2291
 8343TIP3    H146444   6.237   2.736   3.835  1.1103 -1.2572  0.8089
 8343TIP3    H246445   6.295   2.866   3.785 -1.5502  0.2261  1.3958
 8344TIP3   OH246446   2.631   0.519  11.761 -0.5847 -0.5368 -0.6739
 8344TIP3    H146447   2.707   0.573  11.741 -1.0620  0.8640  1.0178
 8344TIP3    H246448   2.631   0.451  11.693  0.0857  1.5215 -2.8888
 8345TIP3   OH246449   3.137   6.161   3.787  0.2837 -0.1317  0.1447
 8345TIP3    H146450   3.179   6.145   3.703  2.2421  0.5531  0.9533
 8345TIP3    H246451   3.052   6.199   3.764 -0.0116 -1.6277 -1.5229
 8346TIP3   OH246452   6.808   0.823   3.674 -0.1686  0.0442 -0.3226
 8346TIP3    H146453   6.884   0.814   3.730  0.5957 -1.5652 -1.5303
 8346TIP3    H246454   6.841   0.865   3.594 -0.6613 -0.1390 -0.6304
 8347TIP3   OH246455   2.465   6.147   3.190 -0.4240  0.1389  0.2885
 8347TIP3    H146456   2.483   6.066   3.239 -1.4864  0.1150  0.6557
 8347TIP3    H246457   2.533   6.208   3.220 -0.9843  0.0921  1.7542
 8348TIP3   OH246458   5.787   2.957   3.872 -0.1460 -0.0938  0.4092
 8348TIP3    H146459   5.709   2.989   3.826  0.6562  1.3967  0.0568
 8348TIP3    H246460   5.784   3.000   3.957  0.0680 -0.3799  0.5615
 8349TIP3   OH246461   0.227   0.964  16.267  0.3429 -0.1196  0.5350
 8349TIP3    H146462   0.301   0.961  16.327  3.0499 -2.1760 -2.5666
 8349TIP3    H246463   0.231   1.052  16.230  0.2912  0.2626  1.4024
 8350TIP3   OH246464   5.496   5.239   1.282 -0.0298  0.2503  0.1683
 8350TIP3    H146465   5.583   5.200   1.292 -0.9455 -1.7864  0.8281
 8350TIP3    H246466   5.436   5.170   1.310 -1.8689  1.6279 -0.1944
 8351TIP3   OH246467   3.216   3.566   0.678 -0.4498 -0.5299  0.1776
 8351TIP3    H146468   3.172   3.627   0.618 -0.1510 -0.8676 -0.3942
 8351TIP3    H246469   3.145   3.527   0.729 -0.6181  0.5403  0.7912
 8352TIP3   OH246470   1.965   1.759  13.103 -0.1140  0.5759  0.6757
 8352TIP3    H146471   2.019   1.763  13.183 -0.5534  0.3016  0.9912
 8352TIP3    H246472   1.887   1.810  13.125  0.4345  1.8095 -0.1239
 8353TIP3   OH246473   3.027   4.373  16.016  0.1135 -0.0639 -0.8625
 8353TIP3    H146474   2.956   4.338  16.071  0.2653 -0.9236 -1.1927
 8353TIP3    H246475   3.086   4.416  16.078 -0.4877  0.3017 -0.5334
 8354TIP3   OH246476   2.417   2.911  14.234 -0.0202  0.4063 -0.2139
 8354TIP3    H146477   2.468   2.905  14.153  1.2210  1.0787  0.5007
 8354TIP3    H246478   2.389   2.821  14.251 -1.8708  0.4774 -2.3397
 8355TIP3   OH246479   5.429   3.524   0.435 -0.2987  0.3391 -0.2101
 8355TIP3    H146480   5.348   3.521   0.485 -0.5813  0.1721 -0.6686
 8355TIP3    H246481   5.497   3.501   0.498 -0.5723  0.7501  0.2403
 8356TIP3   OH246482   3.421   5.732  11.620 -0.1165  0.2675  0.5340
 8356TIP3    H146483   3.450   5.820  11.594 -0.2726  0.2905  0.4335
 8356TIP3    H246484   3.499   5.678  11.611 -0.0058  0.4060  0.6472
 8357TIP3   OH246485   0.834   4.860  10.932  0.5476  0.3220  0.3028
 8357TIP3    H146486   0.795   4.935  10.888  0.6161  0.5785  0.6739
 8357TIP3    H246487   0.761   4.818  10.978 -0.1844 -1.7510 -2.4773
 8358TIP3   OH246488   1.512   1.711  13.114 -0.6983 -0.4331  0.8057
 8358TIP3    H146489   1.536   1.706  13.021 -0.3227  0.3453  0.8506
 8358TIP3    H246490   1.504   1.620  13.142  1.2425 -0.7377  0.5302
 8359TIP3   OH246491   5.042   6.013   4.609 -0.1346  0.0506 -0.1526
 8359TIP3    H146492   4.947   6.015   4.604 -0.1182 -1.5805 -2.4458
 8359TIP3    H246493   5.064   5.920   4.615  1.3572  0.3264 -0.8950
 8360TIP3   OH246494   4.300   2.902   1.938  0.2375  0.4993 -0.1471
 8360TIP3    H146495   4.351   2.981   1.917 -0.6869  1.7608  1.9851
 8360TIP3    H246496   4.210   2.926   1.920 -0.2603  0.6384  2.2193
 8361TIP3   OH246497   2.732   0.127   4.159 -0.1703  0.2157  0.4785
 8361TIP3    H146498   2.644   0.116   4.193 -0.9063 -0.4320 -1.4881
 8361TIP3    H246499   2.722   0.187   4.085  0.9329 -0.3149 -0.1332
 8362TIP3   OH246500   4.777   0.021   1.642 -0.2618 -0.2671  0.2575
 8362TIP3    H146501   4.769   0.003   1.549  1.6819 -2.3631  0.4075
 8362TIP3    H246502   4.810   0.111   1.646 -0.1286 -0.2310 -1.1041
 8363TIP3   OH246503   3.687   4.992  15.705  0.2727 -0.3021 -0.1185
 8363TIP3    H146504   3.761   5.045  15.675 -0.6663  1.1808  0.1054
 8363TIP3    H246505   3.620   5.004  15.637 -0.1152 -0.8585  0.1600
 8364TIP3   OH246506   0.800   0.098   5.857  0.2798 -0.2936 -0.2086
 8364TIP3    H146507   0.827   0.188   5.841  1.2049 -0.5164  0.0442
 8364TIP3    H246508   0.737   0.104   5.929  1.1349  0.0472  0.5224
 8365TIP3   OH246509   6.142   2.460   4.083 -0.3157  0.1355  0.1904
 8365TIP3    H146510   6.167   2.377   4.124  2.6221  1.2465  0.9399
 8365TIP3    H246511   6.159   2.526   4.150 -0.6184  1.5206 -1.0348
 8366TIP3   OH246512   6.221   4.057  14.201  0.1631 -0.1275 -0.4169
 8366TIP3    H146513   6.197   4.141  14.240  0.1566 -0.3959  0.1654
 8366TIP3    H246514   6.171   4.052  14.120 -0.6969 -0.0766  0.1083
 8367TIP3   OH246515   1.622   4.728   6.293 -0.0371 -0.1034  0.1865
 8367TIP3    H146516   1.644   4.789   6.363 -0.1484  0.1817 -0.0268
 8367TIP3    H246517   1.533   4.752   6.267  0.7129  1.1194 -1.4296
 8368TIP3   OH246518   3.220   0.677  14.608  1.0736  0.4602 -0.1226
 8368TIP3    H146519   3.222   0.686  14.513  2.6667  1.0437 -0.0542
 8368TIP3    H246520   3.127   0.686  14.630  0.8257  1.8000 -1.4865
 8369TIP3   OH246521   1.314   1.884  11.192  0.2075 -0.3779  0.4656
 8369TIP3    H146522   1.244   1.897  11.129 -0.1319  1.6639  1.1741
 8369TIP3    H246523   1.345   1.795  11.177 -2.4015 -1.2765  0.0135
 8370TIP3   OH246524   1.287   6.048  16.864  0.0019  0.4360  0.4614
 8370TIP3    H146525   1.194   6.065  16.878 -0.4810 -2.2349  0.9886
 8370TIP3    H246526   1.322   6.035  16.952  0.5377 -0.1299  0.1660
 8371TIP3   OH246527   3.892   5.416   1.475 -0.5065 -0.3448  0.2718
 8371TIP3    H146528   3.899   5.341   1.535 -0.3420 -1.8855 -1.5808
 8371TIP3    H246529   3.982   5.433   1.448 -0.8179 -2.3965 -2.6058
 8372TIP3   OH246530   4.294   3.713   6.101 -0.1280  0.2391  0.5542
 8372TIP3    H146531   4.332   3.625   6.102  2.5386  1.3007  1.9252
 8372TIP3    H246532   4.223   3.710   6.165 -0.4840 -1.0560  0.1196
 8373TIP3   OH246533   2.085   1.242  15.080  0.4932 -0.2416 -0.7300
 8373TIP3    H146534   2.167   1.224  15.125 -0.2981 -1.7144  0.2140
 8373TIP3    H246535   2.105   1.228  14.987  1.4338 -0.0449 -0.5638
 8374TIP3   OH246536   5.563   3.297   5.647 -0.5683 -0.1748 -0.0077
 8374TIP3    H146537   5.473   3.318   5.672 -0.2589  0.4670  0.6182
 8374TIP3    H246538   5.613   3.374   5.673 -0.1788  0.5214 -2.5567
 8375TIP3   OH246539   2.345   1.614  15.360 -0.3767  0.4681 -0.3864
 8375TIP3    H146540   2.342   1.606  15.265  2.1414  1.6523 -0.6491
 8375TIP3    H246541   2.317   1.703  15.378  1.1805  0.9481 -0.2343
 8376TIP3   OH246542   6.403   6.347  16.386 -0.0927  0.5076 -0.8022
 8376TIP3    H146543   6.467   6.275  16.388 -0.6094  0.0681  0.2233
 8376TIP3    H246544   6.423   6.399  16.463 -1.8949 -0.4634  0.3804
 8377TIP3   OH246545   5.613   0.575  12.613 -0.0258 -0.0450  0.3485
 8377TIP3    H146546   5.707   0.578  12.631  0.3671 -3.1654 -0.4979
 8377TIP3    H246547   5.583   0.497  12.659 -1.7283 -0.3710 -1.2258
 8378TIP3   OH246548   4.610   3.491   1.465  0.0676  0.6310  0.5372
 8378TIP3    H146549   4.543   3.470   1.399  1.1756  1.3646 -0.8668
 8378TIP3    H246550   4.566   3.551   1.525 -0.9240  0.0477  0.4348
 8379TIP3   OH246551   0.172   5.953   6.141 -0.2226 -0.6477  0.0400
 8379TIP3    H146552   0.237   6.020   6.121  0.9149 -1.6587  0.2583
 8379TIP3    H246553   0.159   5.960   6.236 -1.5804  0.5440 -0.2018
 8380TIP3   OH246554   0.385   0.162  11.047  0.6320 -0.2245  0.4321
 8380TIP3    H146555   0.450   0.136  11.111  0.6541 -0.3575  0.3564
 8380TIP3    H246556   0.315   0.202  11.098  1.5193  1.4919  0.3896
 8381TIP3   OH246557   3.059   6.430   0.534  0.0477 -0.2407 -0.2094
 8381TIP3    H146558   3.013   6.513   0.530 -0.6895 -0.6476 -0.2885
 8381TIP3    H246559   3.080   6.410   0.443  0.0463 -0.2433 -0.2092
 8382TIP3   OH246560   0.414   4.178  13.534 -0.0544  0.3207 -0.3049
 8382TIP3    H146561   0.500   4.172  13.575 -0.1918 -0.9030 -0.1660
 8382TIP3    H246562   0.400   4.093  13.494 -1.4710  0.2775  0.2153
 8383TIP3   OH246563   5.614   2.672  15.874 -0.6624  0.1542 -0.1122
 8383TIP3    H146564   5.705   2.701  15.883 -0.7353  0.9479 -1.5674
 8383TIP3    H246565   5.617   2.578  15.893  0.4974  0.1322 -0.3180
 8384TIP3   OH246566   1.239   6.283   3.022  0.4102 -0.6537 -0.1306
 8384TIP3    H146567   1.276   6.231   3.094 -1.1217 -1.5480  0.0725
 8384TIP3    H246568   1.299   6.356   3.012  2.8045 -2.5520 -0.5693
 8385TIP3   OH246569   6.397   2.824   6.264  0.1424  0.2568  0.5134
 8385TIP3    H146570   6.340   2.851   6.335 -0.4122 -0.6176  0.4214
 8385TIP3    H246571   6.341   2.827   6.186  0.8197  1.4823  0.0506
 8386TIP3   OH246572   1.513   3.650   4.758  0.1547 -0.7864 -0.0370
 8386TIP3    H146573   1.534   3.687   4.672 -0.0326 -1.6996 -0.4878
 8386TIP3    H246574   1.419   3.665   4.769  0.2164 -0.4860  0.1109
 8387TIP3   OH246575   5.813   5.744   2.027  0.2038  0.5545  0.5964
 8387TIP3    H146576   5.772   5.673   1.978  0.2677  0.8600  0.0969
 8387TIP3    H246577   5.899   5.709   2.051  0.4685  0.6846 -0.1657
 8388TIP3   OH246578   4.225   3.988   1.468  0.3980  0.3297 -0.0324
 8388TIP3    H146579   4.318   3.977   1.452  0.8996  1.0261  1.9979
 8388TIP3    H246580   4.197   3.907   1.510  0.1365  0.1855 -0.4867
 8389TIP3   OH246581   1.897   6.367   4.697 -0.3218 -0.1279 -0.2068
 8389TIP3    H146582   1.817   6.377   4.750 -0.8676  0.7243 -1.1319
 8389TIP3    H246583   1.864   6.354   4.608  0.5691  0.1479 -0.5839
 8390TIP3   OH246584   5.238   0.588   5.365 -0.1771  0.2626 -0.3678
 8390TIP3    H146585   5.153   0.620   5.396 -0.4004 -0.4782 -0.2078
 8390TIP3    H246586   5.244   0.498   5.397  1.6853  1.0163  1.6599
 8391TIP3   OH246587   3.567   4.511  14.039 -0.1323  0.3658 -0.6242
 8391TIP3    H146588   3.623   4.586  14.058  0.5621 -0.4682  0.7091
 8391TIP3    H246589   3.478   4.546  14.043  0.2151  1.3943 -1.3857
 8392TIP3   OH246590   4.528   5.949   6.437 -0.1085  0.0630  0.2706
 8392TIP3    H146591   4.553   5.857   6.424 -1.9342 -0.4569  0.1998
 8392TIP3    H246592   4.438   5.954   6.405 -0.2341  1.7618  0.8123
 8393TIP3   OH246593   0.403   0.122  15.891 -0.3204  0.4698 -0.2770
 8393TIP3    H146594   0.353   0.187  15.940  0.2709  0.7491 -0.0333
 8393TIP3    H246595   0.487   0.117  15.936  0.0664  0.3998 -0.9894
 8394TIP3   OH246596   4.773   3.516  13.434  0.0053  0.2417  0.1356
 8394TIP3    H146597   4.680   3.530  13.451 -0.0574 -0.0662  0.0614
 8394TIP3    H246598   4.807   3.601  13.408 -0.7499 -0.1142 -2.1697
 8395TIP3   OH246599   1.419   0.973  13.682  0.4674  0.0724  0.2836
 8395TIP3    H146600   1.442   0.881  13.690 -2.6119 -0.7290  1.3564
 8395TIP3    H246601   1.426   1.008  13.771 -0.0377  0.3922  0.2050
 8396TIP3   OH246602   5.827   6.653  15.676 -0.8046 -0.7120 -0.1455
 8396TIP3    H146603   5.807   6.583  15.613 -0.3426  0.8823 -2.1611
 8396TIP3    H246604   5.744   6.698  15.688 -0.6280 -0.2526 -0.6144
 8397TIP3   OH246605   2.090   1.092   1.557 -0.2322  0.2608 -0.0884
 8397TIP3    H146606   2.160   1.050   1.606 -1.4378 -0.4940  1.0476
 8397TIP3    H246607   2.044   1.146   1.621 -1.7676 -0.6510 -0.3673
 8398TIP3   OH246608   6.027   6.272   4.049  0.0018  0.1768 -0.0790
 8398TIP3    H146609   6.040   6.366   4.039  2.0287 -0.0362  0.1011
 8398TIP3    H246610   6.111   6.239   4.082 -1.4773 -1.3070  2.6110
 8399TIP3   OH246611   1.473   0.711  17.050 -0.4829  0.0517 -0.3367
 8399TIP3    H146612   1.451   0.737  17.140 -0.0419  0.9719 -0.4895
 8399TIP3    H246613   1.566   0.731  17.042  0.0225 -2.0303 -0.3145
 8400TIP3   OH246614   5.388   0.217  15.562  0.2834 -0.6403 -0.0752
 8400TIP3    H146615   5.393   0.122  15.555 -1.4580 -0.8634  1.2457
 8400TIP3    H246616   5.480   0.244  15.573  0.8740 -2.0712 -1.1419
 8401TIP3   OH246617   2.895   3.588  14.186 -0.1457  0.4875  0.3933
 8401TIP3    H146618   2.833   3.592  14.114  0.2741  1.3564  0.0648
 8401TIP3    H246619   2.936   3.502  14.178  0.2188  0.7449 -0.6949
 8402TIP3   OH246620   2.723   6.250  16.632  0.4017  0.1871  0.2186
 8402TIP3    H146621   2.636   6.230  16.596  0.2066  0.3407  0.5988
 8402TIP3    H246622   2.705   6.302  16.710  0.8431  0.3150  0.2380
 8403TIP3   OH246623   4.114   0.436  12.146  0.7097  0.0769  0.0461
 8403TIP3    H146624   4.163   0.401  12.071  1.0729 -1.0578  0.7923
 8403TIP3    H246625   4.122   0.531  12.136  1.4388 -0.0563 -0.9082
 8404TIP3   OH246626   3.887   6.483  12.100  0.4806 -0.0815  0.8278
 8404TIP3    H146627   3.910   6.548  12.166 -0.9815  0.2832  1.0140
 8404TIP3    H246628   3.813   6.522  12.053  1.1978 -0.5248 -0.7374
 8405TIP3   OH246629   3.619   6.763  15.274  0.3269 -0.3675  0.1382
 8405TIP3    H146630   3.678   6.747  15.348  0.8325 -2.4089 -0.6336
 8405TIP3    H246631   3.543   6.709  15.292 -0.4402  0.6694  0.1078
 8406TIP3   OH246632   3.640   2.633   2.933 -0.0960  0.3033  0.4576
 8406TIP3    H146633   3.722   2.652   2.978 -0.0851 -2.5991  1.8751
 8406TIP3    H246634   3.660   2.647   2.840  2.2088 -0.8376  0.7025
 8407TIP3   OH246635   4.359   5.566  12.054 -0.2331 -0.3032 -0.1325
 8407TIP3    H146636   4.309   5.498  12.097 -1.3342  0.6484  0.1396
 8407TIP3    H246637   4.451   5.543  12.070 -0.5938 -1.4336  0.3655
 8408TIP3   OH246638   3.423   6.518  13.792  0.2630  0.0149  0.2722
 8408TIP3    H146639   3.365   6.580  13.747 -1.4852 -1.7845 -0.0467
 8408TIP3    H246640   3.417   6.543  13.884 -3.4251 -1.8370  0.7144
 8409TIP3   OH246641   0.533   4.835   0.158 -0.1399  0.1113  0.3545
 8409TIP3    H146642   0.556   4.840   0.251  0.1292  1.7905  0.2281
 8409TIP3    H246643   0.547   4.923   0.125 -0.1946 -0.4611 -1.3081
 8410TIP3   OH246644   1.741   2.776  11.699  0.1994 -0.0503  0.1454
 8410TIP3    H146645   1.788   2.777  11.615  2.5671 -0.0535  1.4015
 8410TIP3    H246646   1.769   2.696  11.742  0.8620  1.0892  1.9181
 8411TIP3   OH246647   2.020   0.081  12.180 -0.3906  0.2343  0.3135
 8411TIP3    H146648   2.015  -0.014  12.189 -1.6296  0.1603 -0.8218
 8411TIP3    H246649   2.095   0.096  12.123  0.9938  0.0926  2.0113
 8412TIP3   OH246650   1.007   2.532   3.984 -0.2000  0.1305  0.3317
 8412TIP3    H146651   0.974   2.442   3.983 -0.8665  0.3657  0.6360
 8412TIP3    H246652   1.044   2.544   3.897 -0.3755 -0.3429  0.1832
 8413TIP3   OH246653   1.977   0.170  14.626  0.4777 -0.1716 -0.5095
 8413TIP3    H146654   1.952   0.125  14.544  1.0897 -1.6694  0.0949
 8413TIP3    H246655   1.900   0.223  14.648 -0.1308 -0.6205 -1.4679
 8414TIP3   OH246656   2.102   5.904  15.241  0.6404 -0.0735  0.4441
 8414TIP3    H146657   2.159   5.835  15.208  0.0235 -0.4002  0.0451
 8414TIP3    H246658   2.087   5.962  15.166 -0.3556 -0.5408  0.2693
 8415TIP3   OH246659   0.408   6.595  15.015  0.3056 -0.2498 -0.5140
 8415TIP3    H146660   0.327   6.599  14.965  0.2886  0.7757 -0.4299
 8415TIP3    H246661   0.381   6.566  15.102 -0.2087  1.4564 -0.0660
 8416TIP3   OH246662   5.818   2.489  11.846  0.0704 -0.2743 -0.1594
 8416TIP3    H146663   5.739   2.446  11.879 -2.5139  1.9392 -2.8644
 8416TIP3    H246664   5.872   2.418  11.812 -1.5207 -1.7750  0.3075
 8417TIP3   OH246665   0.156   4.493  12.359  0.5153 -0.1940 -0.0164
 8417TIP3    H146666   0.170   4.425  12.294  1.6166 -0.1792  0.1916
 8417TIP3    H246667   0.156   4.447  12.443  0.2704 -0.0603  0.0597
 8418TIP3   OH246668   3.081   2.216  13.787  0.0112  0.1881 -0.3297
 8418TIP3    H146669   3.147   2.255  13.730 -0.5802 -0.5707 -1.5733
 8418TIP3    H246670   3.017   2.178  13.727 -2.9493  3.0456  0.7345
 8419TIP3   OH246671   0.463   5.160   4.462 -0.1238 -0.5443 -0.1627
 8419TIP3    H146672   0.408   5.226   4.419 -0.8685 -0.3171  1.1003
 8419TIP3    H246673   0.401   5.102   4.506  0.6085  0.6628  2.6910
 8420TIP3   OH246674   0.344   5.625  16.213  0.0780  0.3856  0.5364
 8420TIP3    H146675   0.380   5.668  16.136  1.6874  0.2637  1.1766
 8420TIP3    H246676   0.380   5.537  16.211  1.1107  0.7226  1.9957
 8421TIP3   OH246677   0.691   0.790   2.752 -0.3347 -0.0498  0.2584
 8421TIP3    H146678   0.753   0.748   2.693  0.0177  2.4424 -1.2904
 8421TIP3    H246679   0.716   0.760   2.839  1.3636 -1.1092 -0.5436
 8422TIP3   OH246680   3.083   5.617   4.819 -0.2148 -0.0207  0.1469
 8422TIP3    H146681   3.072   5.522   4.816  0.2755 -0.1228  1.0282
 8422TIP3    H246682   2.999   5.650   4.850 -1.5262  0.1497 -3.2413
 8423TIP3   OH246683   3.703   3.227   0.246  0.3724  0.3459  0.7712
 8423TIP3    H146684   3.616   3.238   0.283  0.6246  0.7246  1.2626
 8423TIP3    H246685   3.717   3.132   0.247 -0.8340  0.0730 -1.2353
 8424TIP3   OH246686   5.373   1.066  13.520  0.0786  0.2077 -0.4800
 8424TIP3    H146687   5.433   1.019  13.579 -0.6576  0.1938  0.2803
 8424TIP3    H246688   5.424   1.079  13.440  0.6531 -0.9723 -0.3355
 8425TIP3   OH246689   2.616   1.866  13.893 -0.6806  0.1866  0.3983
 8425TIP3    H146690   2.533   1.896  13.929 -0.7483  0.1237  0.2965
 8425TIP3    H246691   2.621   1.773  13.917 -1.4855 -0.2817 -1.1078
 8426TIP3   OH246692   4.415   4.237   3.361  0.8047  0.1153 -0.0262
 8426TIP3    H146693   4.374   4.211   3.443 -1.3199  0.2407 -0.9819
 8426TIP3    H246694   4.410   4.159   3.306  1.8783  0.1402 -0.1795
 8427TIP3   OH246695   3.332   6.161  13.940 -0.0645  0.2311  0.7213
 8427TIP3    H146696   3.262   6.218  13.971 -1.8711 -1.9327  0.9381
 8427TIP3    H246697   3.322   6.159  13.845 -1.3480 -1.1849  0.8310
 8428TIP3   OH246698   4.439   2.029  13.242  0.3944  0.1715  0.5140
 8428TIP3    H146699   4.461   2.118  13.216  0.3955  0.1330  0.3815
 8428TIP3    H246700   4.500   1.974  13.192 -1.3088 -0.0696 -1.4280
 8429TIP3   OH246701   0.775   4.642   5.619  0.0482  0.8864  0.1242
 8429TIP3    H146702   0.827   4.722   5.627 -1.5084  1.9390  0.0660
 8429TIP3    H246703   0.789   4.612   5.529 -0.0454  1.5916 -0.1266
 8430TIP3   OH246704   0.220   6.439   1.372  0.0135 -0.8050  0.3286
 8430TIP3    H146705   0.139   6.392   1.355 -0.7487  0.2314  0.9879
 8430TIP3    H246706   0.235   6.492   1.294 -0.1885 -0.6717  0.3787
 8431TIP3   OH246707   6.166   2.778  15.640 -0.1694 -0.1412 -0.0048
 8431TIP3    H146708   6.222   2.833  15.694  0.8246  1.0783 -2.1665
 8431TIP3    H246709   6.209   2.777  15.554 -1.6543 -2.0195 -0.7914
 8432TIP3   OH246710   1.022   4.559  13.645  0.0575  0.0185 -0.3711
 8432TIP3    H146711   1.033   4.498  13.572  1.6894 -0.9377  0.5816
 8432TIP3    H246712   1.099   4.616  13.640  1.0910 -1.1002  1.4613
 8433TIP3   OH246713   0.441   4.726  15.307 -0.2494 -0.1200  0.0542
 8433TIP3    H146714   0.437   4.636  15.274 -0.2279 -0.2907  0.5161
 8433TIP3    H246715   0.424   4.780  15.230 -2.4614 -0.5777  0.1590
 8434TIP3   OH246716   0.797   3.110   5.801  0.4513  0.2215  0.1913
 8434TIP3    H146717   0.757   3.035   5.844 -1.1514  1.7011  1.4682
 8434TIP3    H246718   0.863   3.141   5.863  1.4989 -0.4186 -0.5730
 8435TIP3   OH246719   6.106   0.094   4.730 -0.3166  0.3840  0.3437
 8435TIP3    H146720   6.197   0.089   4.760 -0.1931 -0.1293 -0.1111
 8435TIP3    H246721   6.056   0.103   4.811  0.1518  0.9604  0.5826
 8436TIP3   OH246722   1.034   3.637  12.894 -0.3355  0.2673 -0.1052
 8436TIP3    H146723   1.067   3.548  12.905 -1.9908 -0.2323  1.3834
 8436TIP3    H246724   1.000   3.661  12.981 -1.7282  1.5727 -0.9423
 8437TIP3   OH246725   2.832   4.192   2.440 -0.6554 -0.2643 -0.0119
 8437TIP3    H146726   2.843   4.286   2.425 -0.1832 -0.2370  0.4821
 8437TIP3    H246727   2.878   4.151   2.366  1.5167 -0.1232  1.1620
 8438TIP3   OH246728   6.490   6.603   2.980 -0.2814 -0.2630  0.5039
 8438TIP3    H146729   6.413   6.578   3.031 -0.7280  0.8760  0.4161
 8438TIP3    H246730   6.498   6.698   2.993  0.7313 -0.2621 -0.0044
 8439TIP3   OH246731   6.282   1.008   1.768  0.5772  0.0363 -0.2410
 8439TIP3    H146732   6.261   1.076   1.831 -1.3455 -1.5545  0.9563
 8439TIP3    H246733   6.299   1.055   1.686 -0.2550  1.9708  0.6381
 8440TIP3   OH246734   5.380   5.889  16.411  0.6015  0.5344 -0.4489
 8440TIP3    H146735   5.413   5.908  16.323  3.0479  4.7416  1.1215
 8440TIP3    H246736   5.454   5.847  16.455 -0.5820 -1.4677 -0.2640
 8441TIP3   OH246737   6.813   0.206   5.223 -0.2110  0.6860 -0.1473
 8441TIP3    H146738   6.863   0.150   5.282  1.0681  1.0269 -0.8676
 8441TIP3    H246739   6.755   0.257   5.280  0.2232  0.2478  0.6971
 8442TIP3   OH246740   0.550   2.665   2.965 -0.0533 -0.5035  0.3668
 8442TIP3    H146741   0.466   2.632   2.998  1.0595 -2.3030  1.5489
 8442TIP3    H246742   0.605   2.587   2.958  0.6921  0.1707 -3.1384
 8443TIP3   OH246743   0.894   3.783  12.707 -0.1967 -0.1969 -0.3134
 8443TIP3    H146744   0.948   3.729  12.764 -0.0511  0.6983  0.4345
 8443TIP3    H246745   0.896   3.739  12.623  1.6018 -0.2637 -0.2749
 8444TIP3   OH246746   2.379   1.392  16.053  0.1256 -0.1621  0.6563
 8444TIP3    H146747   2.461   1.347  16.030  0.2525  0.2271  0.3354
 8444TIP3    H246748   2.408   1.475  16.091 -0.1139 -0.2161  0.9605
 8445TIP3   OH246749   3.548   3.244  11.432 -0.3569 -0.0981  0.5209
 8445TIP3    H146750   3.507   3.249  11.519  0.6508 -1.1680  1.0848
 8445TIP3    H246751   3.642   3.249  11.450 -0.1764  1.2411 -0.6598
 8446TIP3   OH246752   1.611   2.841   5.318  0.6158  0.9199  0.0101
 8446TIP3    H146753   1.538   2.795   5.277  1.5634  0.4926 -1.2697
 8446TIP3    H246754   1.570   2.902   5.379 -0.7055 -1.7704  2.0279
 8447TIP3   OH246755   6.680   5.843   3.050  0.2282  0.0281 -0.6311
 8447TIP3    H146756   6.689   5.915   3.112  0.9703  0.2276 -0.9639
 8447TIP3    H246757   6.683   5.764   3.104  0.0783  0.2244 -0.3352
 8448TIP3   OH246758   3.452   5.502  11.086  0.0938  0.3940 -0.1274
 8448TIP3    H146759   3.464   5.597  11.088  1.1579  0.2893  2.3563
 8448TIP3    H246760   3.506   5.473  11.012 -2.4531  1.8598 -2.7602
 8449TIP3   OH246761   3.129   0.015  11.503  0.0119 -0.0357  0.3830
 8449TIP3    H146762   3.205   0.044  11.453  1.6297 -1.6220  1.7890
 8449TIP3    H246763   3.090  -0.055  11.450 -0.1536  0.3965 -0.0750
 8450TIP3   OH246764   4.962   3.089  12.504  0.0051  0.5833  0.3302
 8450TIP3    H146765   4.958   3.072  12.598  0.1177  1.1028  0.4292
 8450TIP3    H246766   5.048   3.055  12.477  0.3821  1.3148  0.5950
 8451TIP3   OH246767   3.340   4.254   6.100  0.5418 -0.0327 -0.2831
 8451TIP3    H146768   3.401   4.321   6.132  0.3781  0.3757 -0.8187
 8451TIP3    H246769   3.301   4.218   6.180  0.3588  0.7729  0.0042
 8452TIP3   OH246770   4.454   6.549  12.931 -0.5152  0.4532  0.5379
 8452TIP3    H146771   4.434   6.495  13.008 -1.0768 -0.1073  0.0012
 8452TIP3    H246772   4.399   6.514  12.862 -0.0146  0.9656 -0.1289
 8453TIP3   OH246773   3.949   0.273   4.211 -0.2109 -0.1494 -0.3326
 8453TIP3    H146774   3.957   0.277   4.307  0.6147  1.2027 -0.4320
 8453TIP3    H246775   4.030   0.231   4.182  1.1087  2.4023 -0.5962
 8454TIP3   OH246776   1.409   4.722   1.789  0.1907 -0.1294 -0.5968
 8454TIP3    H146777   1.493   4.676   1.793 -0.0143 -0.5977 -1.3641
 8454TIP3    H246778   1.345   4.652   1.775 -0.2451  0.2877 -0.7105
 8455TIP3   OH246779   4.362   1.151   2.205 -0.4627  0.0830 -0.5357
 8455TIP3    H146780   4.294   1.129   2.141 -1.7851  2.3704 -0.0369
 8455TIP3    H246781   4.333   1.234   2.243  2.1431  0.6345  0.4355
 8456TIP3   OH246782   0.972   6.727   4.689 -1.0417 -0.5966  0.3861
 8456TIP3    H146783   0.990   6.720   4.595  0.8728  0.0727  0.6616
 8456TIP3    H246784   0.949   6.638   4.716 -0.7586 -0.9644 -0.5407
 8457TIP3   OH246785   3.539   1.828  17.064  0.2458 -0.3938  0.0131
 8457TIP3    H146786   3.581   1.823  17.150 -0.4971 -3.5485  0.3045
 8457TIP3    H246787   3.588   1.896  17.018  1.4537  0.5517  2.4793
 8458TIP3   OH246788   2.312   2.939  14.687  0.0873 -0.5214  0.6246
 8458TIP3    H146789   2.218   2.947  14.704  0.3154 -0.0040  1.7337
 8458TIP3    H246790   2.331   2.846  14.698 -0.4506 -0.7771 -0.5117
 8459TIP3   OH246791   0.104   6.378  15.678  0.0696  0.1308  0.4031
 8459TIP3    H146792   0.067   6.432  15.747 -0.4752  1.5460 -0.9503
 8459TIP3    H246793   0.101   6.289  15.713  1.1405  0.9533  2.7424
 8460TIP3   OH246794   1.516   1.632  14.509 -0.2956  0.3531 -0.4345
 8460TIP3    H146795   1.570   1.588  14.443  0.4846 -0.9023  0.9569
 8460TIP3    H246796   1.550   1.599  14.593 -0.8037  2.3711  0.6290
 8461TIP3   OH246797   6.459   1.792   2.923  0.4573  0.2046 -0.0619
 8461TIP3    H146798   6.420   1.869   2.882 -1.2041 -0.3070  0.4803
 8461TIP3    H246799   6.473   1.817   3.014 -0.8673 -0.3693  0.3219
 8462TIP3   OH246800   2.389   5.483   2.463  0.6639 -0.2037  0.1629
 8462TIP3    H146801   2.426   5.410   2.413  2.8468  0.8588  0.1152
 8462TIP3    H246802   2.431   5.561   2.428 -0.6816  0.9903  1.0552
 8463TIP3   OH246803   1.019   3.782   5.702 -0.3446  0.1517  0.2457
 8463TIP3    H146804   1.062   3.752   5.782  1.3649  0.6308 -0.4504
 8463TIP3    H246805   1.059   3.729   5.632  0.8582  2.1670 -0.6914
 8464TIP3   OH246806   0.670   3.279   1.868 -0.0564 -0.5638  0.0396
 8464TIP3    H146807   0.575   3.265   1.876 -0.4272  1.2525 -0.6610
 8464TIP3    H246808   0.689   3.346   1.933  0.6131 -0.4134 -0.3081
 8465TIP3   OH246809   1.017   2.221   5.671  0.3943  0.1249  0.2297
 8465TIP3    H146810   0.975   2.192   5.752  0.4990 -0.1997  0.1661
 8465TIP3    H246811   1.107   2.190   5.679  0.0172 -1.2419 -0.7030
 8466TIP3   OH246812   3.443   1.126   0.020  0.0811  0.0748  0.0267
 8466TIP3    H146813   3.509   1.135  -0.049 -1.2075 -2.3755 -1.6407
 8466TIP3    H246814   3.455   1.038   0.054 -3.5168 -1.3363 -1.7965
 8467TIP3   OH246815   0.163   4.601  15.598 -0.1667  0.3166 -0.2749
 8467TIP3    H146816   0.174   4.566  15.686 -0.0182  1.7805  0.3220
 8467TIP3    H246817   0.112   4.681  15.610 -0.3430  0.4224 -1.5564
 8468TIP3   OH246818   0.860   2.754   3.937 -0.0074 -0.0909  0.9096
 8468TIP3    H146819   0.924   2.793   3.877  0.0596 -0.6551  0.6075
 8468TIP3    H246820   0.898   2.669   3.960 -0.7128 -0.4903  0.6172
 8469TIP3   OH246821   3.086   2.533  14.004  0.6946 -0.6016  0.5311
 8469TIP3    H146822   3.056   2.496  14.087 -0.1578  0.0962  0.5475
 8469TIP3    H246823   3.015   2.516  13.942 -0.0391  1.5205  0.6921
 8470TIP3   OH246824   4.143   6.076   2.831 -0.3527  0.4344 -0.7322
 8470TIP3    H146825   4.193   6.154   2.851 -0.5065  0.1277  1.0032
 8470TIP3    H246826   4.174   6.011   2.894 -1.0244 -0.5653 -1.4028
 8471TIP3   OH246827   1.016   1.174   0.357  0.2089 -0.3823 -0.1703
 8471TIP3    H146828   1.066   1.098   0.389  0.6642 -0.4929 -1.0872
 8471TIP3    H246829   1.082   1.244   0.351 -0.4413  0.4654  1.8166
 8472TIP3   OH246830   4.799   4.183  13.332 -0.3467 -0.0195  0.9921
 8472TIP3    H146831   4.826   4.226  13.414  0.5797  0.3589  0.5030
 8472TIP3    H246832   4.880   4.171  13.283 -0.5910 -2.1889  1.0152
 8473TIP3   OH246833   0.692   4.764   5.943  0.1066 -0.2367  0.2624
 8473TIP3    H146834   0.768   4.744   5.998  0.3004  0.7785  0.3850
 8473TIP3    H246835   0.723   4.834   5.885  0.1814 -1.8514 -1.7565
 8474TIP3   OH246836   5.906   6.234   6.444 -0.1514 -0.5326 -0.1364
 8474TIP3    H146837   5.917   6.192   6.528 -1.2840  0.7507  0.7085
 8474TIP3    H246838   5.897   6.162   6.381  0.7266 -1.4980  0.8245
 8475TIP3   OH246839   0.214   4.381   3.289 -0.2676 -0.4562  0.1472
 8475TIP3    H146840   0.289   4.349   3.339 -0.8162 -1.4677  0.3547
 8475TIP3    H246841   0.242   4.375   3.197 -0.0338 -0.6707  0.2321
 8476TIP3   OH246842   1.945   5.965   3.696  0.2017  0.2731 -0.5871
 8476TIP3    H146843   1.972   5.910   3.770  0.1474  0.3410 -0.5181
 8476TIP3    H246844   2.019   6.024   3.683  0.6050 -0.3432 -1.1719
 8477TIP3   OH246845   2.933   6.328   3.386 -0.0776  1.1832 -0.2845
 8477TIP3    H146846   2.901   6.418   3.379  0.2334  1.2075 -1.5783
 8477TIP3    H246847   2.917   6.290   3.300  1.0889  0.4282 -0.1838
 8478TIP3   OH246848   3.995   4.545   1.735 -0.1476 -0.3361  0.0040
 8478TIP3    H146849   4.061   4.479   1.712  0.8891  0.3402  0.9439
 8478TIP3    H246850   4.010   4.616   1.672  1.3223  0.6247  1.3477
 8479TIP3   OH246851   4.885   3.399   4.988  0.3453  0.9317 -0.3450
 8479TIP3    H146852   4.876   3.379   5.081  0.7253  0.1114 -0.4792
 8479TIP3    H246853   4.840   3.483   4.978  0.8472  1.3459  0.6917
 8480TIP3   OH246854   4.402   1.000   6.341 -0.5841  0.8644 -0.5283
 8480TIP3    H146855   4.402   0.928   6.405  0.0369 -0.9452 -2.4596
 8480TIP3    H246856   4.494   1.027   6.335 -0.3060 -0.2824 -1.9836
 8481TIP3   OH246857   6.190   5.955  11.321  0.0450  0.5929 -0.0414
 8481TIP3    H146858   6.149   5.869  11.313  1.4454 -0.1971  0.8146
 8481TIP3    H246859   6.180   5.978  11.413  1.4570  0.3597  0.2088
 8482TIP3   OH246860   3.790   5.591   4.763  0.0905  0.2023  0.5480
 8482TIP3    H146861   3.806   5.498   4.751  0.0828  0.1622  0.8512
 8482TIP3    H246862   3.808   5.608   4.855  0.8327  0.6536  0.3339
 8483TIP3   OH246863   2.240   3.163   2.109 -0.3538  0.0540  0.5709
 8483TIP3    H146864   2.280   3.167   2.022 -0.9896  1.1563  0.3147
 8483TIP3    H246865   2.298   3.216   2.164 -0.4536  0.1256  0.6078
 8484TIP3   OH246866   4.279   5.562   0.815 -0.3236  0.7615 -0.0726
 8484TIP3    H146867   4.322   5.590   0.735  1.2227 -0.6496  0.2023
 8484TIP3    H246868   4.233   5.640   0.847 -1.1117  1.3140 -2.3575
 8485TIP3   OH246869   4.248   1.679   0.588 -0.2477 -0.4252  0.0133
 8485TIP3    H146870   4.290   1.707   0.507 -0.7301  0.4790  0.0704
 8485TIP3    H246871   4.295   1.725   0.658  1.0541 -2.2074  0.4000
 8486TIP3   OH246872   4.625   3.379   6.041 -0.6291 -0.2412  0.2151
 8486TIP3    H146873   4.649   3.324   5.966 -0.6167 -1.2414  0.9314
 8486TIP3    H246874   4.706   3.426   6.063  0.3727 -2.4668  1.6671
 8487TIP3   OH246875   4.873   0.947  16.285  0.1849 -0.1482 -0.2804
 8487TIP3    H146876   4.906   1.006  16.353  1.8251 -1.2999 -0.0251
 8487TIP3    H246877   4.904   0.987  16.203  0.1667  0.0299 -0.2021
 8488TIP3   OH246878   0.462   3.569  16.070 -0.3060 -0.5531 -0.0107
 8488TIP3    H146879   0.523   3.552  15.998 -1.8298  0.1970 -1.5405
 8488TIP3    H246880   0.399   3.497  16.066 -0.9375 -0.0090 -0.0455
 8489TIP3   OH246881   3.994   0.888  14.302 -0.3008  0.2312 -0.2600
 8489TIP3    H146882   3.992   0.892  14.206 -1.3475  2.1534 -0.2084
 8489TIP3    H246883   3.903   0.896  14.328  0.0730  0.8415  0.9231
 8490TIP3   OH246884   1.654   2.295  13.415 -0.8183 -0.3568 -0.1624
 8490TIP3    H146885   1.733   2.246  13.392 -0.5061 -0.7249  1.5022
 8490TIP3    H246886   1.641   2.276  13.508 -2.5252  0.1975 -0.2504
 8491TIP3   OH246887   5.600   6.523   3.570 -0.0912 -1.0648 -0.0622
 8491TIP3    H146888   5.544   6.587   3.527 -0.1181 -0.2999  1.0596
 8491TIP3    H246889   5.579   6.531   3.663  1.5006 -1.1246  0.3331
 8492TIP3   OH246890   2.112   5.127   5.068  0.3994 -0.4798  0.1377
 8492TIP3    H146891   2.096   5.136   5.162  0.9024 -1.7111  0.3518
 8492TIP3    H246892   2.058   5.054   5.040 -0.0978  0.1629 -0.6373
 8493TIP3   OH246893   2.680   5.723   0.501 -0.0698 -0.8266  0.1848
 8493TIP3    H146894   2.734   5.717   0.422 -0.6797  0.3105 -0.3520
 8493TIP3    H246895   2.594   5.690   0.473 -0.0874 -1.1134  0.5802
 8494TIP3   OH246896   2.966   0.102   2.253  0.2839  0.4704  0.4056
 8494TIP3    H146897   2.989   0.193   2.236  1.4421 -0.1640 -1.8147
 8494TIP3    H246898   2.995   0.055   2.175 -0.4732 -1.7823  1.3967
 8495TIP3   OH246899   6.816   1.044  13.040 -0.0907 -1.0983  0.1641
 8495TIP3    H146900   6.788   1.016  13.127  0.8160 -3.8409 -0.3134
 8495TIP3    H246901   6.737   1.040  12.986 -0.4244 -0.5378  0.6090
 8496TIP3   OH246902   4.800   1.728   1.198 -0.5773 -0.5104  0.1781
 8496TIP3    H146903   4.830   1.637   1.202 -1.3410 -0.7344  3.1345
 8496TIP3    H246904   4.802   1.758   1.289 -0.4324  2.4370 -0.6895
 8497TIP3   OH246905   6.717   6.629   1.691  0.1541  0.3081  0.2365
 8497TIP3    H146906   6.806   6.608   1.720  0.4016  2.2094  0.9999
 8497TIP3    H246907   6.717   6.610   1.597  1.8326  1.6103 -0.0696
 8498TIP3   OH246908   0.683   6.522   4.134  0.5487  0.6201  0.3901
 8498TIP3    H146909   0.622   6.568   4.076  0.2831  0.5667  0.6231
 8498TIP3    H246910   0.638   6.521   4.219  0.6443  0.1144  0.4355
 8499TIP3   OH246911   3.393   4.808   1.295 -0.9865 -0.0066  0.3185
 8499TIP3    H146912   3.337   4.865   1.243 -0.6425 -1.3451 -1.5999
 8499TIP3    H246913   3.453   4.768   1.232  1.1769  0.2549  2.1038
 8500TIP3   OH246914   0.107   6.346   4.354  0.2948  0.3138 -0.0858
 8500TIP3    H146915   0.068   6.430   4.330 -0.4150 -0.0894 -0.3528
 8500TIP3    H246916   0.161   6.365   4.431 -1.7884  0.5503  1.3787
 8501TIP3   OH246917   3.249   5.982   5.332 -0.2853  0.1167  0.7553
 8501TIP3    H146918   3.341   5.983   5.309  0.2844  1.2295  2.7771
 8501TIP3    H246919   3.209   6.050   5.278  0.1106 -0.2432  0.0092
 8502TIP3   OH246920   0.116   1.023   5.173  0.2062 -0.3383  0.1616
 8502TIP3    H146921   0.146   1.114   5.171  2.6116 -1.0628 -1.5794
 8502TIP3    H246922   0.153   0.987   5.253 -1.6639  0.4127  1.4323
 8503TIP3   OH246923   4.499   4.384  12.527  0.3572  0.2022  0.0981
 8503TIP3    H146924   4.504   4.294  12.559  1.0634  0.5958  1.1285
 8503TIP3    H246925   4.487   4.437  12.605 -0.5325  0.9914 -0.5375
 8504TIP3   OH246926   6.118   5.680   0.850  0.0196 -0.4596 -0.0977
 8504TIP3    H146927   6.112   5.655   0.943  0.5054 -0.9660 -0.1972
 8504TIP3    H246928   6.110   5.598   0.802  0.0025 -0.2270 -0.4997
 8505TIP3   OH246929   5.095   0.142   5.118 -0.3558 -0.4518  0.5615
 8505TIP3    H146930   5.144   0.102   5.045  0.5967  1.0108  0.3525
 8505TIP3    H246931   5.045   0.213   5.077  1.3070  1.3450  1.4601
 8506TIP3   OH246932   4.058   0.466  14.530  0.5055 -0.6511  0.2565
 8506TIP3    H146933   3.996   0.511  14.587  1.7049  0.2299  0.9268
 8506TIP3    H246934   4.005   0.429  14.461 -0.6109  1.6660 -0.2369
 8507TIP3   OH246935   1.645   3.393   3.454  0.2759 -0.6093 -0.5271
 8507TIP3    H146936   1.725   3.363   3.497  1.2064  0.4891 -1.4132
 8507TIP3    H246937   1.668   3.398   3.361 -0.9460 -0.6291 -0.8540
 8508TIP3   OH246938   3.277   3.300   3.407  0.0027  0.0977  0.3008
 8508TIP3    H146939   3.194   3.324   3.446  0.2306 -0.0957  0.9154
 8508TIP3    H246940   3.342   3.315   3.476  0.5475  0.7427 -0.3366
 8509TIP3   OH246941   2.617   0.323   2.196 -0.0312  0.6802  0.0389
 8509TIP3    H146942   2.536   0.288   2.160 -0.1954 -0.3756  1.3336
 8509TIP3    H246943   2.613   0.301   2.289  1.6854  0.7172  0.1528
 8510TIP3   OH246944   1.901   3.331  16.967  0.4796  0.7667 -0.2642
 8510TIP3    H146945   1.810   3.354  16.989  0.7768  0.8071  1.0173
 8510TIP3    H246946   1.895   3.292  16.880 -0.7871  0.6964 -0.1732
 8511TIP3   OH246947   3.919   6.397   5.602 -0.3149 -0.4123  0.6217
 8511TIP3    H146948   3.882   6.310   5.619  0.7660 -0.7953  1.0569
 8511TIP3    H246949   3.990   6.406   5.666  0.4780  0.2288 -0.3256
 8512TIP3   OH246950   6.777   6.039  15.129  0.8153 -0.1110 -0.2643
 8512TIP3    H146951   6.749   6.059  15.218  1.5078 -2.3602  0.5168
 8512TIP3    H246952   6.702   5.994  15.090  0.8117  0.1354 -0.5471
 8513TIP3   OH246953   5.964   3.779   1.362 -0.4024  0.4917 -0.5241
 8513TIP3    H146954   5.962   3.849   1.297  0.4792  2.6733  1.6141
 8513TIP3    H246955   6.048   3.791   1.407 -1.9403  0.6885  2.5723
 8514TIP3   OH246956   6.290   1.325  13.773  0.5676 -0.2138 -0.8022
 8514TIP3    H146957   6.310   1.231  13.768  0.7817 -0.1350 -1.6311
 8514TIP3    H246958   6.353   1.359  13.837  2.6457 -0.1257 -2.7425
 8515TIP3   OH246959   2.056   0.462   3.319  0.3346 -0.0446  0.3389
 8515TIP3    H146960   2.067   0.379   3.365  1.2369  0.3548  0.8613
 8515TIP3    H246961   1.983   0.504   3.363 -2.2230 -1.8471 -1.8687
 8516TIP3   OH246962   0.772   6.783  12.970 -0.6523  0.1054  0.4050
 8516TIP3    H146963   0.761   6.834  12.890  0.1814  2.8243  1.9061
 8516TIP3    H246964   0.863   6.753  12.968 -0.2962  1.1107  0.7952
 8517TIP3   OH246965   1.250   5.215   1.945 -0.2824  0.4111  0.3799
 8517TIP3    H146966   1.244   5.297   1.994  1.7789  1.0129 -0.2595
 8517TIP3    H246967   1.336   5.179   1.969 -0.0662 -0.2592 -1.2599
 8518TIP3   OH246968   3.481   0.763   2.580  0.3149  0.2936 -0.3942
 8518TIP3    H146969   3.522   0.678   2.562  0.7832  0.9980 -3.0364
 8518TIP3    H246970   3.491   0.774   2.675  1.9189 -1.7412 -0.2464
 8519TIP3   OH246971   2.660   0.527   3.429  0.1148  0.9241  0.1895
 8519TIP3    H146972   2.612   0.452   3.394  1.5117 -1.2926  2.6356
 8519TIP3    H246973   2.729   0.543   3.364 -0.2739  0.1927 -0.4225
 8520TIP3   OH246974   1.609   2.462  14.746  0.1663 -0.2257 -0.4932
 8520TIP3    H146975   1.575   2.397  14.685  0.1951 -0.7522  0.0478
 8520TIP3    H246976   1.690   2.424  14.780 -1.8096 -1.8421  2.9507
 8521TIP3   OH246977   1.622   2.764  13.529 -0.0541 -0.2962  0.1978
 8521TIP3    H146978   1.587   2.675  13.523  0.5935 -0.5224 -0.3434
 8521TIP3    H246979   1.709   2.752  13.567 -0.5205  0.2525  1.4853
 8522TIP3   OH246980   0.397   5.804  16.726  0.1040 -0.2776 -0.4285
 8522TIP3    H146981   0.302   5.807  16.734  0.2100  1.1916  0.8591
 8522TIP3    H246982   0.416   5.854  16.647 -0.1866 -0.7347 -0.7939
 8523TIP3   OH246983   1.060   2.491   5.661  0.7797  0.3209  0.2200
 8523TIP3    H146984   1.047   2.396   5.665  1.0096  0.2387 -0.6340
 8523TIP3    H246985   0.973   2.528   5.672  0.5302 -0.0345 -0.4663
 8524TIP3   OH246986   3.107   6.506   5.169 -0.3873 -0.4566 -0.0185
 8524TIP3    H146987   3.160   6.570   5.121 -0.1515 -0.8597 -0.3005
 8524TIP3    H246988   3.022   6.507   5.124 -1.0290  1.0376  1.1461
 8525TIP3   OH246989   6.407   3.513  12.967 -0.1007  0.1128  0.0055
 8525TIP3    H146990   6.473   3.548  13.027 -0.3131  0.6554 -0.0786
 8525TIP3    H246991   6.350   3.587  12.948 -1.5610 -0.6585  1.1446
 8526TIP3   OH246992   0.868   1.469  10.778 -0.0104  0.1556 -0.3176
 8526TIP3    H146993   0.936   1.403  10.761  0.7201  0.8661 -0.2139
 8526TIP3    H246994   0.814   1.430  10.847 -0.3441 -0.8608 -1.1331
 8527TIP3   OH246995   2.606   5.614  11.339 -0.6878  0.0288  0.3788
 8527TIP3    H146996   2.565   5.593  11.255  1.4044 -2.2176 -0.1900
 8527TIP3    H246997   2.623   5.708  11.334  0.8677 -0.2775 -2.4987
 8528TIP3   OH246998   0.437   5.912  16.025 -0.1015 -0.5807 -0.1910
 8528TIP3    H146999   0.417   5.979  16.091  1.6137  0.0568 -0.2701
 8528TIP3    H247000   0.533   5.914  16.017 -0.1206 -2.0891 -1.2122
 8529TIP3   OH247001   1.333   0.378  15.707 -0.4948  0.4162 -0.6395
 8529TIP3    H147002   1.256   0.345  15.660 -2.0500  1.1111  1.2434
 8529TIP3    H247003   1.335   0.326  15.788  0.2578  1.2633 -0.0934
 8530TIP3   OH247004   4.525   1.375  13.243  0.1813 -0.4639  0.1290
 8530TIP3    H147005   4.464   1.302  13.231 -0.0172 -0.1348 -0.9769
 8530TIP3    H247006   4.498   1.439  13.178  0.1634  0.7430  1.2828
 8531TIP3   OH247007   2.287   2.144   1.922 -0.0978  0.5772 -0.7312
 8531TIP3    H147008   2.371   2.116   1.959  0.1341 -0.8200 -2.2279
 8531TIP3    H247009   2.246   2.193   1.993  2.5446  2.5405 -0.3735
 8532TIP3   OH247010   1.592   0.846  13.093 -0.7506 -0.0104 -0.2706
 8532TIP3    H147011   1.516   0.897  13.064 -0.9954  0.4917  1.1446
 8532TIP3    H247012   1.581   0.840  13.188  0.0831 -1.4206 -0.2342
 8533TIP3   OH247013   4.142   3.423   4.102  0.1295 -0.7563  0.6617
 8533TIP3    H147014   4.142   3.512   4.137  2.0688 -0.8565  0.9927
 8533TIP3    H247015   4.145   3.434   4.007  0.2240 -0.4702  0.6981
 8534TIP3   OH247016   2.790   3.793  15.664  0.7466 -0.4780 -0.6143
 8534TIP3    H147017   2.824   3.743  15.738 -3.6299 -1.3155  1.1371
 8534TIP3    H247018   2.775   3.881  15.699 -0.4082 -0.6093 -0.7165
 8535TIP3   OH247019   0.233   1.230  16.159  0.7529 -0.2911  0.7164
 8535TIP3    H147020   0.252   1.274  16.076  1.6611  0.9166  1.5233
 8535TIP3    H247021   0.138   1.225  16.163  0.5735  2.2305  0.8600
 8536TIP3   OH247022   3.975   3.637   1.048 -0.7685 -0.0988 -0.1530
 8536TIP3    H147023   4.005   3.586   1.123  0.5549  0.8974  0.0256
 8536TIP3    H247024   4.003   3.587   0.971  0.7926  0.4688  0.0163
 8537TIP3   OH247025   0.724   5.917   2.758  0.7741  0.5935 -0.3091
 8537TIP3    H147026   0.711   5.908   2.663 -0.3081  0.4913 -0.1619
 8537TIP3    H247027   0.651   5.869   2.797  0.3274  1.9289  0.5607
 8538TIP3   OH247028   2.320   5.554   5.639  0.2286  0.8071  0.3270
 8538TIP3    H147029   2.303   5.522   5.728 -2.4140  0.4394 -0.2534
 8538TIP3    H247030   2.318   5.650   5.648 -0.2909  0.7718  0.6171
 8539TIP3   OH247031   0.726   5.845   4.460 -0.1674  0.0521  0.2373
 8539TIP3    H147032   0.669   5.769   4.464  0.6447 -0.5970 -0.1529
 8539TIP3    H247033   0.671   5.915   4.425 -0.3175 -0.9825 -1.7247
 8540TIP3   OH247034   5.187   2.434  14.883  0.5441  0.0440 -0.1322
 8540TIP3    H147035   5.173   2.428  14.978  1.7540 -0.3955  0.0315
 8540TIP3    H247036   5.173   2.527  14.863  0.2374  0.1349  0.4606
 8541TIP3   OH247037   6.310   3.040  11.637  0.3090  0.0749 -0.1421
 8541TIP3    H147038   6.220   3.011  11.621 -0.1209  0.8874  0.7202
 8541TIP3    H247039   6.303   3.095  11.715  1.0646  2.6804 -1.8035
 8542TIP3   OH247040   4.758   5.417  11.767  0.0824  0.4881 -0.0869
 8542TIP3    H147041   4.752   5.371  11.683  0.3007  2.3364 -1.1752
 8542TIP3    H247042   4.800   5.354  11.826 -0.0653 -0.8490 -1.3550
 8543TIP3   OH247043   0.954   0.009  15.773  0.2198  0.0675 -0.0832
 8543TIP3    H147044   0.933   0.039  15.685 -0.8931 -1.5491 -0.3866
 8543TIP3    H247045   1.019  -0.060  15.761 -1.9170 -2.0742  0.1112
 8544TIP3   OH247046   5.296   3.187  14.880 -0.2120  0.3690  0.1937
 8544TIP3    H147047   5.227   3.149  14.826  0.0019  1.6992 -1.0863
 8544TIP3    H247048   5.349   3.238  14.819 -0.1721  2.2517  1.7167
 8545TIP3   OH247049   3.472   2.205  13.344  0.0965 -0.3404  0.3414
 8545TIP3    H147050   3.528   2.128  13.350  1.1547  0.3152 -0.5648
 8545TIP3    H247051   3.505   2.264  13.412  0.2047 -0.1543  0.1323
 8546TIP3   OH247052   0.139   4.713   1.442  0.3856 -0.4397  0.3315
 8546TIP3    H147053   0.208   4.760   1.395  0.8209  0.3891  1.7273
 8546TIP3    H247054   0.078   4.685   1.374  1.1762  0.3674 -0.7467
 8547TIP3   OH247055   4.119   4.212  10.449  0.2145  0.3635 -0.3296
 8547TIP3    H147056   4.118   4.183  10.540 -0.4773  0.3356 -0.3456
 8547TIP3    H247057   4.040   4.175  10.411  0.6236  0.1696 -1.0140
 8548TIP3   OH247058   0.122   3.605   2.671  0.0352  0.5367 -1.0635
 8548TIP3    H147059   0.090   3.645   2.752  0.0548  0.6646 -1.1183
 8548TIP3    H247060   0.049   3.614   2.610 -0.1815 -0.0575 -0.8967
 8549TIP3   OH247061   4.922   3.633  15.166 -0.1552  0.4585 -0.1476
 8549TIP3    H147062   4.929   3.585  15.084  0.2357 -0.2598  0.2968
 8549TIP3    H247063   4.850   3.592  15.214  0.0459  0.4426  0.1474
 8550TIP3   OH247064   3.069   3.764   0.567  0.5229  0.3616 -0.3349
 8550TIP3    H147065   3.014   3.713   0.507  1.0210 -0.6880  0.0661
 8550TIP3    H247066   3.009   3.798   0.633  0.4696 -1.8971  0.8720
 8551TIP3   OH247067   1.922   0.828  12.289 -0.1885  0.5340  0.1308
 8551TIP3    H147068   1.911   0.802  12.198 -1.3512  0.9912  0.1342
 8551TIP3    H247069   2.017   0.827  12.302 -0.0121  0.3377 -1.0350
 8552TIP3   OH247070   6.316   3.700   3.621  0.0384  0.7466 -0.4207
 8552TIP3    H147071   6.236   3.676   3.668  1.2388  1.9601  2.5015
 8552TIP3    H247072   6.356   3.617   3.598 -1.3465  0.1106 -0.6676
 8553TIP3   OH247073   5.035   1.900   1.463  0.0484  0.4169 -0.1898
 8553TIP3    H147074   4.959   1.841   1.474  1.4068 -1.5163 -0.6358
 8553TIP3    H247075   5.001   1.973   1.412 -1.0107 -1.6624 -2.7379
 8554TIP3   OH247076   0.523   6.157  11.291 -0.2558  0.0006 -0.1937
 8554TIP3    H147077   0.617   6.145  11.306  0.2084 -0.5107 -2.9496
 8554TIP3    H247078   0.488   6.068  11.284 -0.9447  0.1884  0.6797
 8555TIP3   OH247079   6.215   3.015  14.168  0.3357  0.5813  0.0297
 8555TIP3    H147080   6.279   2.946  14.155 -0.0139  0.1317  0.6271
 8555TIP3    H247081   6.184   3.002  14.258 -1.0028  0.4395 -0.4270
 8556TIP3   OH247082   2.221   1.124  12.315 -0.1050  0.2414  0.3295
 8556TIP3    H147083   2.126   1.133  12.310 -0.8070 -4.0994  1.6673
 8556TIP3    H247084   2.238   1.098  12.405  2.1617 -0.4877 -0.2445
 8557TIP3   OH247085   4.646   2.464   2.661  0.3190 -0.4856  0.3155
 8557TIP3    H147086   4.575   2.472   2.726 -0.5229 -1.8513 -0.3928
 8557TIP3    H247087   4.726   2.479   2.712 -0.4270  0.8205  1.1878
 8558TIP3   OH247088   4.771   1.700   1.798 -0.3618  0.0249 -0.1942
 8558TIP3    H147089   4.755   1.790   1.768  1.5325 -0.1332 -1.9352
 8558TIP3    H247090   4.705   1.685   1.866 -1.7782  2.1483 -0.9954
 8559TIP3   OH247091   4.765   3.350  11.144  0.1885 -0.3923  0.4178
 8559TIP3    H147092   4.835   3.380  11.202  0.9375 -0.6376 -0.3424
 8559TIP3    H247093   4.730   3.431  11.105  0.4849 -0.3154  0.3094
 8560TIP3   OH247094   2.714   4.545  13.124 -0.2502  0.4268 -0.0466
 8560TIP3    H147095   2.715   4.620  13.065 -0.3913 -0.4294 -1.1664
 8560TIP3    H247096   2.651   4.569  13.192  0.6264  1.8125  0.2982
 8561TIP3   OH247097   0.083   4.814   1.669 -0.3195  0.0415 -0.0582
 8561TIP3    H147098   0.152   4.880   1.677  1.0941 -1.4506  0.6636
 8561TIP3    H247099   0.106   4.763   1.591  1.4793 -2.6440  2.0517
 8562TIP3   OH247100   0.370   6.652   4.282  0.4413 -0.4259 -0.1476
 8562TIP3    H147101   0.277   6.630   4.276  0.7332 -1.6008 -0.4605
 8562TIP3    H247102   0.384   6.715   4.211  0.0144 -0.7335 -0.5109
 8563TIP3   OH247103   1.858   1.519  14.041 -0.3878  0.1263 -0.5177
 8563TIP3    H147104   1.776   1.559  14.071 -1.0051 -0.9030 -0.7690
 8563TIP3    H247105   1.914   1.518  14.118 -0.1456  1.9198 -0.6250
 8564TIP3   OH247106   2.764   6.208   2.245 -0.5683  0.3384  0.6023
 8564TIP3    H147107   2.844   6.165   2.215 -2.3171 -1.8270 -1.3557
 8564TIP3    H247108   2.742   6.165   2.328  0.3433  1.0754  1.2447
 8565TIP3   OH247109   0.101   3.209   2.862  0.6966 -0.0127  0.0725
 8565TIP3    H147110   0.121   3.205   2.769 -1.6009  1.2380 -0.5393
 8565TIP3    H247111   0.053   3.128   2.880  1.4419 -0.4213  0.2888
 8566TIP3   OH247112   0.044   6.709   1.977  0.0350  0.1242  0.2416
 8566TIP3    H147113   0.037   6.619   2.007 -0.2053  0.3130  0.7780
 8566TIP3    H247114   0.124   6.742   2.017  0.7505 -0.1929 -0.8986
 8567TIP3   OH247115   1.324   1.377   1.783 -0.2520 -0.6402 -0.6999
 8567TIP3    H147116   1.244   1.363   1.834 -0.4498 -0.6254 -1.0016
 8567TIP3    H247117   1.323   1.470   1.763  1.5986  0.1606  2.2072
 8568TIP3   OH247118   5.086   1.937  13.099  0.1559  0.4865 -0.3298
 8568TIP3    H147119   5.006   1.956  13.149 -0.3035 -1.2362 -0.3572
 8568TIP3    H247120   5.146   1.899  13.163 -0.5788 -2.1131 -1.0539
 8569TIP3   OH247121   2.520   4.618  14.898 -0.1192  0.2406  0.1513
 8569TIP3    H147122   2.480   4.586  14.817 -0.6489  2.4531 -0.5091
 8569TIP3    H247123   2.597   4.666  14.871 -0.3779  1.1303  0.9287
 8570TIP3   OH247124   6.248   5.175  14.543 -0.2229  0.4883 -0.6787
 8570TIP3    H147125   6.178   5.109  14.545  0.3976 -0.1868 -0.8809
 8570TIP3    H247126   6.237   5.223  14.625  0.1821 -0.8111  0.1805
 8571TIP3   OH247127   1.824   1.820  14.456  0.1012  0.2596  0.0096
 8571TIP3    H147128   1.784   1.907  14.459 -1.3175 -0.3558 -0.4586
 8571TIP3    H247129   1.834   1.801  14.363 -0.3688 -0.4276  0.0987
 8572TIP3   OH247130   4.209   5.071  12.769 -0.3210 -0.7327 -0.6444
 8572TIP3    H147131   4.189   5.062  12.862  0.9467 -0.2539 -0.3020
 8572TIP3    H247132   4.248   4.987  12.744  2.4096  0.2071  0.1188
 8573TIP3   OH247133   2.528   6.461  11.342 -0.0051 -0.0235  0.8714
 8573TIP3    H147134   2.484   6.392  11.293 -0.9152  0.6828  0.6618
 8573TIP3    H247135   2.461   6.528  11.355  1.3728  1.7908 -0.8114
 8574TIP3   OH247136   4.613   6.020  13.509  0.0133 -0.5250  0.0651
 8574TIP3    H147137   4.554   5.945  13.519 -0.9646  0.3853  1.3625
 8574TIP3    H247138   4.691   5.983  13.467 -0.6739 -2.1466  0.1328
 8575TIP3   OH247139   4.408   0.532  16.522 -0.1469 -0.3800 -0.1056
 8575TIP3    H147140   4.350   0.499  16.453 -0.8170 -1.4343  0.9283
 8575TIP3    H247141   4.366   0.612  16.553 -1.3886 -1.4113  0.9939
 8576TIP3   OH247142   0.621   3.943  15.687 -0.4123 -0.8055 -0.0968
 8576TIP3    H147143   0.549   4.002  15.664 -0.2748 -0.0522  1.2866
 8576TIP3    H247144   0.585   3.887  15.756 -0.0338 -1.2537 -0.2583
 8577TIP3   OH247145   0.171   1.478  16.744  0.0699  0.2655  0.1809
 8577TIP3    H147146   0.239   1.436  16.797 -1.0679 -0.7897  0.8585
 8577TIP3    H247147   0.165   1.425  16.665 -0.0313  0.2937  0.1684
 8578TIP3   OH247148   0.714   6.089   1.800  0.1019  0.3099 -0.0497
 8578TIP3    H147149   0.660   6.159   1.763 -1.4274 -0.9784 -0.3570
 8578TIP3    H247150   0.652   6.020   1.822  1.4881 -0.6858  0.9152
 8579TIP3   OH247151   6.587   2.450  11.105 -0.1806 -0.1036  0.0920
 8579TIP3    H147152   6.629   2.430  11.188  0.3281 -0.5054 -0.2519
 8579TIP3    H247153   6.657   2.485  11.050  0.0881 -2.1531 -0.9829
 8580TIP3   OH247154   4.971   0.252   0.875 -0.3302 -0.5804  0.3076
 8580TIP3    H147155   4.959   0.227   0.967  0.0372 -0.4220  0.3980
 8580TIP3    H247156   5.064   0.241   0.858 -0.3655 -0.4360  0.0026
 8581TIP3   OH247157   3.252   0.292  14.537 -0.0234  0.4753 -0.2601
 8581TIP3    H147158   3.344   0.306  14.513  0.2550  0.7340  0.8821
 8581TIP3    H247159   3.256   0.238  14.617 -0.9405 -1.3193 -1.3684
 8582TIP3   OH247160   6.491   5.808   2.852 -0.1037 -0.0869  0.0715
 8582TIP3    H147161   6.559   5.782   2.790  0.1347  0.3366  0.1472
 8582TIP3    H247162   6.532   5.801   2.938 -0.1869  0.0615  0.1250
 8583TIP3   OH247163   4.632   5.710  11.360  0.0323  0.0328  0.0814
 8583TIP3    H147164   4.564   5.688  11.296  0.0681  1.0571 -0.3213
 8583TIP3    H247165   4.586   5.710  11.444 -0.1273 -0.7931  0.0018
 8584TIP3   OH247166   3.069   0.779  11.409  0.1226 -0.0005  0.1487
 8584TIP3    H147167   3.133   0.708  11.420 -0.5714 -0.6755 -0.0546
 8584TIP3    H247168   2.990   0.747  11.455 -0.2832  0.5220 -0.1733
 8585TIP3   OH247169   3.921   4.501   2.004  0.0281 -0.2251 -0.1723
 8585TIP3    H147170   3.841   4.553   2.006 -0.1989 -0.4989 -1.5755
 8585TIP3    H247171   3.967   4.530   1.925  1.4698  0.1448  0.7660
 8586TIP3   OH247172   1.152   1.805  13.583 -0.2214  0.0101 -0.3377
 8586TIP3    H147173   1.202   1.878  13.618 -1.2673  0.2582  0.7089
 8586TIP3    H247174   1.097   1.845  13.515 -0.0458 -0.0012 -0.4882
 8587TIP3   OH247175   4.563   5.990  15.444  0.3927 -0.0509 -0.0655
 8587TIP3    H147176   4.534   5.943  15.522 -2.4205 -0.1855 -1.0634
 8587TIP3    H247177   4.616   6.063  15.477 -1.5336  0.4789  2.0819
 8588TIP3   OH247178   1.137   0.403  14.378  0.8414 -0.7777 -0.3185
 8588TIP3    H147179   1.064   0.343  14.359 -1.5462  1.4075  1.2634
 8588TIP3    H247180   1.139   0.408  14.473  0.6425  1.9033 -0.3805
 8589TIP3   OH247181   2.772   0.355   3.988 -0.2148  0.3159  0.5876
 8589TIP3    H147182   2.731   0.442   3.985 -1.6196 -0.2670  1.7430
 8589TIP3    H247183   2.862   0.371   3.960 -1.2641  1.5750 -2.5645
 8590TIP3   OH247184   3.697   5.073  11.696  0.1977  0.0614  0.2185
 8590TIP3    H147185   3.729   5.020  11.624 -1.6303 -1.8082  0.6951
 8590TIP3    H247186   3.632   5.131  11.656  0.6893  0.5207  0.0592
 8591TIP3   OH247187   4.579   4.207  16.222  0.5294  0.1683 -0.1180
 8591TIP3    H147188   4.640   4.135  16.237 -1.7844 -1.2984  3.2971
 8591TIP3    H247189   4.498   4.166  16.194 -0.6902  1.4291  1.3720
 8592TIP3   OH247190   4.567   3.080   5.081  0.5369  1.2491 -0.8722
 8592TIP3    H147191   4.662   3.071   5.071  0.5960 -2.1762  1.0217
 8592TIP3    H247192   4.556   3.136   5.158  1.2491 -0.9095  0.9039
 8593TIP3   OH247193   0.837   1.728   1.249  0.2326 -0.5857  0.0347
 8593TIP3    H147194   0.814   1.635   1.254 -0.1928 -0.4670  0.4221
 8593TIP3    H247195   0.814   1.754   1.159  2.1799 -1.3015 -0.7106
 8594TIP3   OH247196   4.527   5.694   0.157 -0.0638 -0.1305  0.0334
 8594TIP3    H147197   4.527   5.742   0.074  0.9867  0.7674  0.5257
 8594TIP3    H247198   4.488   5.609   0.136 -0.4369  0.3305 -1.2202
 8595TIP3   OH247199   0.373   5.974   0.639 -0.2395  0.0820 -0.1411
 8595TIP3    H147200   0.380   5.944   0.730 -0.1923 -1.2753 -0.5756
 8595TIP3    H247201   0.295   5.929   0.606  0.2825 -0.1681 -1.0431
 8596TIP3   OH247202   5.272   4.245   5.731 -0.4474  0.4430 -0.6085
 8596TIP3    H147203   5.210   4.181   5.765 -1.7066  0.8119 -2.0769
 8596TIP3    H247204   5.354   4.227   5.777 -1.4805 -0.4310  0.9815
 8597TIP3   OH247205   5.515   6.077  11.601 -0.3588  0.1940  0.7612
 8597TIP3    H147206   5.610   6.064  11.606 -0.7097 -2.4843  2.5007
 8597TIP3    H247207   5.496   6.139  11.671  0.0652  0.5866  0.5368
 8598TIP3   OH247208   3.772   1.543  15.344 -0.4889 -0.1116 -0.0450
 8598TIP3    H147209   3.755   1.547  15.250  1.1029 -2.6610 -0.5323
 8598TIP3    H247210   3.862   1.574  15.354 -0.5368 -0.1617  0.6171
 8599TIP3   OH247211   5.907   2.217   5.097  0.0880 -0.0580 -0.2447
 8599TIP3    H147212   5.987   2.225   5.044  1.2506  2.1968  1.6334
 8599TIP3    H247213   5.929   2.150   5.162 -0.6381 -1.4295 -1.3477
 8600TIP3   OH247214   0.584   5.809   1.824 -0.0450 -0.3876 -0.2909
 8600TIP3    H147215   0.491   5.790   1.830 -0.4885  1.9160  2.3404
 8600TIP3    H247216   0.618   5.792   1.912  1.7423  0.1030 -0.8379
 8601TIP3   OH247217   3.096   2.061   3.226  0.6229 -0.0450  0.3946
 8601TIP3    H147218   3.115   2.064   3.320  1.7511 -0.3771  0.1925
 8601TIP3    H247219   3.031   2.131   3.213  0.4936  0.0505  1.3980
 8602TIP3   OH247220   4.510   4.530  13.174  0.4409 -0.1771 -0.6442
 8602TIP3    H147221   4.593   4.517  13.128  2.0949  1.1334  1.7485
 8602TIP3    H247222   4.491   4.624  13.165  0.2212 -0.1085  0.3556
 8603TIP3   OH247223   4.827   5.979  11.473 -0.1802 -0.0723 -0.5547
 8603TIP3    H147224   4.732   5.980  11.491 -0.3470 -2.5271 -0.9858
 8603TIP3    H247225   4.859   5.902  11.520  1.3674 -0.0747 -1.5551
 8604TIP3   OH247226   2.701   0.007  11.812 -0.1723  0.1349 -0.1052
 8604TIP3    H147227   2.699  -0.084  11.839 -1.8659  0.0898 -0.2779
 8604TIP3    H247228   2.781   0.016  11.760  0.4811 -1.0120  0.6900
 8605TIP3   OH247229   4.431   6.165   4.406  0.4119 -0.1734  0.4200
 8605TIP3    H147230   4.383   6.245   4.429 -0.3074  0.1338 -1.8617
 8605TIP3    H247231   4.523   6.190   4.409  0.2424  0.4210  0.8329
 8606TIP3   OH247232   4.518   3.031   3.028 -0.0635  0.0903 -0.0019
 8606TIP3    H147233   4.572   3.053   3.104 -0.1571  1.2854 -0.2508
 8606TIP3    H247234   4.461   2.960   3.058  0.1281  0.3261  0.9466
 8607TIP3   OH247235   2.961   1.033  15.480 -0.6371  0.7644 -0.4601
 8607TIP3    H147236   2.977   1.030  15.574 -0.4757 -2.6776 -0.4610
 8607TIP3    H247237   2.867   1.020  15.470 -0.5292  0.1360 -0.7523
 8608TIP3   OH247238   1.535   3.655  13.050 -0.1614  0.3279 -0.0310
 8608TIP3    H147239   1.536   3.567  13.011  1.3941  0.2610  0.0979
 8608TIP3    H247240   1.503   3.641  13.139  2.3572 -0.5508  0.8310
 8609TIP3   OH247241   1.714   0.674   5.675  0.1327 -0.2147 -0.0571
 8609TIP3    H147242   1.640   0.682   5.736  1.2181 -1.9125  1.5864
 8609TIP3    H247243   1.705   0.586   5.638  1.2632 -0.3897  0.0650
 8610TIP3   OH247244   1.323   6.603   2.534  0.1412 -0.0384  0.0819
 8610TIP3    H147245   1.358   6.571   2.618  1.4309  1.2045  0.0650
 8610TIP3    H247246   1.233   6.628   2.554  0.5463  0.5875  1.2079
 8611TIP3   OH247247   6.512   4.139   5.462 -0.3166 -0.1212 -0.0958
 8611TIP3    H147248   6.482   4.116   5.550 -0.8385 -0.2082 -0.2896
 8611TIP3    H247249   6.512   4.235   5.461  0.7053 -0.0994  0.3276
 8612TIP3   OH247250   3.400   5.205  13.451 -0.2166  0.4429 -0.8981
 8612TIP3    H147251   3.392   5.281  13.393 -0.2299  1.5280  0.4595
 8612TIP3    H247252   3.446   5.239  13.528 -0.2493 -0.9290 -0.2437
 8613TIP3   OH247253   2.247   4.451   5.537 -0.0772 -0.2810  0.2288
 8613TIP3    H147254   2.259   4.429   5.630 -0.1726  1.4589  0.6938
 8613TIP3    H247255   2.203   4.375   5.500  1.4655 -1.7442  1.2095
 8614TIP3   OH247256   1.946   5.271   5.523  0.8014  0.0275  0.1145
 8614TIP3    H147257   1.985   5.273   5.610  2.5473 -0.2582 -0.6369
 8614TIP3    H247258   1.984   5.194   5.481 -0.7590 -0.4009 -0.5845
 8615TIP3   OH247259   2.554   5.843   4.891 -0.1239 -0.9769  0.3133
 8615TIP3    H147260   2.522   5.794   4.967  1.1857  0.1778  1.6685
 8615TIP3    H247261   2.490   5.913   4.879  0.1279 -0.6424  0.9096
 8616TIP3   OH247262   6.744   4.657  15.375  0.2395  0.2544  0.8119
 8616TIP3    H147263   6.708   4.619  15.455  0.0366 -1.5711 -0.0898
 8616TIP3    H247264   6.822   4.605  15.357 -0.8227 -0.7706 -1.2335
 8617TIP3   OH247265   4.771   1.313   2.293  0.0470  0.2974  0.2964
 8617TIP3    H147266   4.802   1.335   2.381  1.1657  1.4683 -0.3531
 8617TIP3    H247267   4.737   1.396   2.259 -3.2242 -0.7480  0.6781
 8618TIP3   OH247268   3.227   2.742   1.672 -0.2650  0.5359 -0.1451
 8618TIP3    H147269   3.322   2.742   1.659  0.1682  0.7050  2.4183
 8618TIP3    H247270   3.203   2.650   1.675  0.2827  0.4129  1.6332
 8619TIP3   OH247271   1.731   0.294   3.625 -0.6586  0.5101 -0.2192
 8619TIP3    H147272   1.745   0.270   3.717 -0.9820  1.3292  0.0503
 8619TIP3    H247273   1.684   0.219   3.588  0.8938 -0.5540 -0.1438
 8620TIP3   OH247274   4.601   5.449  12.170  0.0858  0.1661  0.1875
 8620TIP3    H147275   4.678   5.497  12.142 -0.2563 -0.1305 -1.3791
 8620TIP3    H247276   4.620   5.357  12.150 -0.2552 -0.0418  0.7766
 8621TIP3   OH247277   1.203   6.764   3.125  0.5020 -0.2290  0.2930
 8621TIP3    H147278   1.139   6.714   3.074  2.2152 -2.8064  0.4967
 8621TIP3    H247279   1.167   6.768   3.213  0.6807 -1.8762  0.4652
 8622TIP3   OH247280   1.226   6.048  14.245 -0.0093  0.2610  0.4899
 8622TIP3    H147281   1.237   6.092  14.161  0.9459 -1.0906 -0.1155
 8622TIP3    H247282   1.132   6.034  14.252 -0.2538  1.6333  0.3254
 8623TIP3   OH247283   5.825   3.917   0.355  0.2019 -0.3301  0.2287
 8623TIP3    H147284   5.789   3.906   0.267  2.2084  0.7718 -0.8113
 8623TIP3    H247285   5.749   3.921   0.412 -1.1415 -2.9799 -1.1701
 8624TIP3   OH247286   3.566   2.980  12.458 -0.5627 -0.0359 -0.8962
 8624TIP3    H147287   3.656   2.990  12.489 -0.9418 -0.8010  0.5805
 8624TIP3    H247288   3.546   2.888  12.474 -2.3664  0.6182  1.1337
 8625TIP3   OH247289   2.767   2.093   2.621 -0.2549 -0.0537  0.1296
 8625TIP3    H147290   2.749   2.186   2.612 -0.2135 -0.1659 -1.2402
 8625TIP3    H247291   2.812   2.086   2.706  0.2502  1.2419 -0.0105
 8626TIP3   OH247292   3.576   6.176  11.003  0.6408 -0.4334 -0.3461
 8626TIP3    H147293   3.631   6.115  11.052  0.5714 -0.4246 -0.2571
 8626TIP3    H247294   3.516   6.119  10.954  0.1510 -0.4318  0.2302
 8627TIP3   OH247295   3.016   4.946  16.578  0.1716 -0.0033  0.2794
 8627TIP3    H147296   3.096   4.893  16.581 -0.6190 -1.2661 -0.0130
 8627TIP3    H247297   2.952   4.889  16.536 -0.9000  0.9696  0.5557
 8628TIP3   OH247298   5.444   3.801   1.519  0.1709  0.2813  0.9754
 8628TIP3    H147299   5.408   3.890   1.524  3.9812  1.9795  3.9686
 8628TIP3    H247300   5.521   3.809   1.463 -0.3443 -1.6160 -0.0855
 8629TIP3   OH247301   3.092   2.978  11.512  0.2353 -0.2286 -0.2897
 8629TIP3    H147302   3.039   2.984  11.432  1.9817 -0.6145 -1.5603
 8629TIP3    H247303   3.149   3.055  11.508 -0.1682  0.1450  0.9988
 8630TIP3   OH247304   5.205   1.819   4.987 -1.0026  0.2440  0.0380
 8630TIP3    H147305   5.149   1.891   4.956  0.2377  2.6274  2.8757
 8630TIP3    H247306   5.143   1.756   5.024 -2.0378  1.7685  1.0786
 8631TIP3   OH247307   6.542   5.048  12.439  0.0790  0.4456 -0.6622
 8631TIP3    H147308   6.591   5.070  12.518  2.3444 -1.5164 -1.3695
 8631TIP3    H247309   6.601   5.072  12.367 -0.7574 -0.2967 -1.6355
 8632TIP3   OH247310   3.067   5.526  14.632 -0.1382  0.3760 -0.6030
 8632TIP3    H147311   3.011   5.521  14.554  0.2083 -1.6111 -0.7716
 8632TIP3    H247312   3.155   5.510  14.599  0.0352 -0.2570  0.1707
 8633TIP3   OH247313   1.238   1.271   1.336 -0.0768  0.2797 -0.4822
 8633TIP3    H147314   1.236   1.360   1.370  2.5942  0.4461 -0.5411
 8633TIP3    H247315   1.189   1.219   1.400  1.3678  1.2354  1.4980
 8634TIP3   OH247316   6.599   2.353   3.161 -0.7789  0.5764  0.2186
 8634TIP3    H147317   6.572   2.308   3.081 -0.6011  0.3854  0.2633
 8634TIP3    H247318   6.564   2.442   3.152 -0.0132  0.8251 -0.4764
 8635TIP3   OH247319   6.577   1.399   3.081 -0.2419 -0.6780 -0.2332
 8635TIP3    H147320   6.551   1.473   3.027 -1.4407 -2.7049 -2.6409
 8635TIP3    H247321   6.639   1.350   3.026  1.7207 -0.7276  1.8897
 8636TIP3   OH247322   3.801   2.476  16.198 -0.0774 -0.0840 -0.1433
 8636TIP3    H147323   3.776   2.567  16.181  0.6892  0.8138  2.9986
 8636TIP3    H247324   3.719   2.427  16.187 -0.6216  1.0164 -1.3276
 8637TIP3   OH247325   2.987   4.253  15.787 -0.0544 -0.7062  0.5472
 8637TIP3    H147326   3.005   4.310  15.862  0.8287 -0.4089  0.1284
 8637TIP3    H247327   3.074   4.231  15.752 -0.4385 -1.0818 -0.2063
 8638TIP3   OH247328   4.664   4.927   6.357  0.2198 -0.5387 -0.2974
 8638TIP3    H147329   4.742   4.966   6.318  0.5821 -0.8992  0.0557
 8638TIP3    H247330   4.695   4.845   6.396 -0.4793 -1.0500 -0.7962
 8639TIP3   OH247331   3.519   2.591  14.956  0.1368 -0.0215  0.0407
 8639TIP3    H147332   3.602   2.615  14.916 -0.2003 -0.0667 -0.6955
 8639TIP3    H247333   3.475   2.674  14.972  0.1577 -0.0183  0.0833
 8640TIP3   OH247334   3.037   1.523  14.722  0.3100 -0.0578  0.0598
 8640TIP3    H147335   3.110   1.582  14.704 -0.9697  1.6379  0.1410
 8640TIP3    H247336   3.017   1.536  14.814 -0.9163  0.5213 -0.2636
 8641TIP3   OH247337   6.299   2.676   4.903 -0.8410  0.4752  0.2325
 8641TIP3    H147338   6.318   2.701   4.993 -0.5172 -1.5167  0.7754
 8641TIP3    H247339   6.384   2.661   4.863 -1.0115  0.4818 -0.1376
 8642TIP3   OH247340   0.815   1.558   4.216 -0.4675  0.3537 -0.1456
 8642TIP3    H147341   0.724   1.567   4.244 -0.3366  1.1950  0.0460
 8642TIP3    H247342   0.820   1.609   4.135  0.0767  1.1910  0.4077
 8643TIP3   OH247343   2.922   0.650  13.092 -0.2125 -0.1532  0.7423
 8643TIP3    H147344   2.888   0.727  13.047  1.0421  0.7188  1.2393
 8643TIP3    H247345   3.006   0.632  13.050 -0.2045 -0.8806  1.0501
 8644TIP3   OH247346   2.666   1.742   1.254 -0.3528  0.1719 -0.2618
 8644TIP3    H147347   2.729   1.744   1.182  1.1054  1.1219  0.9868
 8644TIP3    H247348   2.716   1.711   1.329 -1.9547 -1.2420  0.2768
 8645TIP3   OH247349   6.789   5.640   0.400 -0.2867 -0.1064  0.4342
 8645TIP3    H147350   6.743   5.556   0.390 -0.8530  0.3123 -0.6250
 8645TIP3    H247351   6.869   5.629   0.350 -1.5594  0.8362 -1.9358
 8646TIP3   OH247352   4.362   5.157  16.273  0.6409 -0.1240  0.0828
 8646TIP3    H147353   4.290   5.097  16.296  0.0042  0.2012 -0.9670
 8646TIP3    H247354   4.441   5.108  16.291  0.1543 -0.5502  1.1320
 8647TIP3   OH247355   0.117   0.808   0.309  0.0234  0.3804 -0.2947
 8647TIP3    H147356   0.199   0.788   0.265  1.3542  0.3044  2.0654
 8647TIP3    H247357   0.090   0.892   0.271  1.4049  0.6237 -0.8119
 8648TIP3   OH247358   4.610   5.273   4.395 -0.0858  0.1654  0.2721
 8648TIP3    H147359   4.650   5.360   4.391  0.6042 -0.1842 -1.5221
 8648TIP3    H247360   4.659   5.222   4.331  0.1079 -1.8169  1.9093
 8649TIP3   OH247361   5.273   4.685  15.724  0.4117 -0.2615  0.0350
 8649TIP3    H147362   5.290   4.631  15.801  0.6243  1.2719  1.1186
 8649TIP3    H247363   5.187   4.655  15.692 -0.2555 -0.1347  1.6023
 8650TIP3   OH247364   4.501   3.837  13.968 -0.3969  0.0326  0.1805
 8650TIP3    H147365   4.461   3.897  14.031  0.9962  0.7621  0.3883
 8650TIP3    H247366   4.426   3.801  13.920 -1.4106  0.2824  1.4983
 8651TIP3   OH247367   2.152   2.476   2.403 -0.0020 -0.8498  0.0007
 8651TIP3    H147368   2.177   2.556   2.449 -1.0347 -0.0528 -0.8056
 8651TIP3    H247369   2.152   2.500   2.311  0.6887 -2.0655 -0.3366
 8652TIP3   OH247370   3.719   1.358   0.983 -0.0828 -0.1047  0.3254
 8652TIP3    H147371   3.723   1.454   0.980  2.8727 -0.0982  0.9166
 8652TIP3    H247372   3.730   1.331   0.892 -2.5016  0.0613 -0.0670
 8653TIP3   OH247373   4.178   6.422   1.367  0.4931  0.2235 -0.8287
 8653TIP3    H147374   4.152   6.375   1.447  1.1346 -0.1557 -0.8361
 8653TIP3    H247375   4.200   6.510   1.397 -0.9075  0.6011 -0.8426
 8654TIP3   OH247376   3.915   0.316  14.341  0.4037 -0.7146 -0.0206
 8654TIP3    H147377   3.839   0.359  14.302  1.4109 -0.9990 -2.5019
 8654TIP3    H247378   3.878   0.256  14.406 -1.1281  2.9069  2.8881
 8655TIP3   OH247379   2.457   2.725  16.485  0.7760 -0.2391 -0.3059
 8655TIP3    H147380   2.440   2.814  16.454  2.6892  0.4128  0.4086
 8655TIP3    H247381   2.533   2.696  16.435  2.4105 -0.0802  1.9754
 8656TIP3   OH247382   0.815   0.210   2.720 -0.3953 -0.6591  0.2372
 8656TIP3    H147383   0.763   0.289   2.734 -0.5762 -0.5504 -0.9177
 8656TIP3    H247384   0.863   0.198   2.801 -1.2114  0.0052  0.8323
 8657TIP3   OH247385   1.112   2.847  11.073 -0.0561  0.0713 -0.1628
 8657TIP3    H147386   1.028   2.873  11.036 -0.4495  0.4126  0.9399
 8657TIP3    H247387   1.097   2.757  11.103 -0.1607  0.2818  0.4203
 8658TIP3   OH247388   3.202   6.124   2.746  0.3000  0.2955  0.0018
 8658TIP3    H147389   3.232   6.171   2.824  0.0309  0.5226 -0.0319
 8658TIP3    H247390   3.240   6.173   2.673 -1.9779  1.9556 -0.1590
 8659TIP3   OH247391   5.787   6.309   2.447 -0.4418 -0.3168 -0.6152
 8659TIP3    H147392   5.807   6.396   2.412 -0.3619  0.0426  0.2698
 8659TIP3    H247393   5.722   6.325   2.516 -0.0025 -0.8746 -0.0493
 8660TIP3   OH247394   5.340   4.634  15.081 -0.1348 -0.1677 -0.2811
 8660TIP3    H147395   5.350   4.658  14.989  2.1773 -0.0290 -0.0644
 8660TIP3    H247396   5.372   4.711  15.129 -2.3491  0.2149  0.7336
 8661TIP3   OH247397   5.128   0.202  14.917  0.0596 -0.2729 -0.8368
 8661TIP3    H147398   5.129   0.295  14.896 -0.6596 -0.0255  0.1337
 8661TIP3    H247399   5.050   0.168  14.872  0.2848 -0.3974 -1.1368
 8662TIP3   OH247400   2.980   4.403   0.710 -0.7097  0.2743 -0.3040
 8662TIP3    H147401   3.013   4.329   0.761 -2.4167 -0.1174  0.3009
 8662TIP3    H247402   2.885   4.395   0.715 -0.9575  2.5995 -0.0932
 8663TIP3   OH247403   5.595   4.716  16.316 -0.2141 -0.3183  0.7909
 8663TIP3    H147404   5.514   4.715  16.265  0.6222 -1.1762 -0.5785
 8663TIP3    H247405   5.649   4.648  16.277  2.5484  2.4192 -0.5892
 8664TIP3   OH247406   3.654   5.502   6.033 -0.3334 -0.7417 -0.1778
 8664TIP3    H147407   3.652   5.558   5.955 -1.3086 -0.0741  0.3107
 8664TIP3    H247408   3.622   5.558   6.104 -0.9307 -1.7912  0.4033
 8665TIP3   OH247409   1.994   3.358  15.837 -0.3955 -0.1003 -0.1728
 8665TIP3    H147410   2.069   3.406  15.872 -1.2647  1.6589 -0.6417
 8665TIP3    H247411   2.028   3.270  15.820  2.6184  1.4598 -3.7012
 8666TIP3   OH247412   3.556   6.598   3.661  0.5756  0.4943 -0.5011
 8666TIP3    H147413   3.607   6.521   3.687 -0.1119 -0.4595 -1.8107
 8666TIP3    H247414   3.514   6.571   3.579 -1.9584  1.2461  0.4649
 8667TIP3   OH247415   5.327   3.723  16.075  0.6810 -0.4444  0.2069
 8667TIP3    H147416   5.326   3.627  16.071 -1.8672 -0.5712  1.8710
 8667TIP3    H247417   5.265   3.745  16.145  2.5284  2.4001  1.1291
 8668TIP3   OH247418   1.144   0.024  14.144  0.0142 -0.2641 -0.2047
 8668TIP3    H147419   1.087   0.094  14.113 -1.0267 -0.5585  0.9871
 8668TIP3    H247420   1.224   0.069  14.171  0.0305  0.2505 -1.0768
 8669TIP3   OH247421   0.360   2.199  11.929 -0.1326 -0.0505 -0.3088
 8669TIP3    H147422   0.455   2.191  11.942 -0.3980 -1.3078  1.0313
 8669TIP3    H247423   0.324   2.116  11.961 -1.9782  1.6301  2.3459
 8670TIP3   OH247424   1.230   5.383  11.343 -0.4734 -0.1657  0.0034
 8670TIP3    H147425   1.310   5.425  11.312 -0.8803  0.1172 -0.6991
 8670TIP3    H247426   1.237   5.385  11.438  1.4470 -2.2632 -0.0067
 8671TIP3   OH247427   1.788   0.552   1.242  0.2152 -0.1504  0.0518
 8671TIP3    H147428   1.739   0.616   1.293  1.8326  1.0546  0.1520
 8671TIP3    H247429   1.734   0.473   1.246 -0.8189  0.5783  1.6851
 8672TIP3   OH247430   0.879   5.157  11.427 -1.0117  0.2020  0.3490
 8672TIP3    H147431   0.952   5.119  11.379 -0.8952  0.0448  0.6509
 8672TIP3    H247432   0.912   5.242  11.457 -1.2021  0.4508 -0.1467
 8673TIP3   OH247433   3.456   5.236   2.784  0.0868 -0.0282 -0.2601
 8673TIP3    H147434   3.395   5.237   2.858  1.6434  1.8540  1.1052
 8673TIP3    H247435   3.418   5.297   2.721 -0.8959 -1.1280 -0.7928
 8674TIP3   OH247436   6.148   1.257  14.037 -0.1426  0.4322  0.1358
 8674TIP3    H147437   6.170   1.305  14.116  0.6755 -0.5238  0.5208
 8674TIP3    H247438   6.228   1.259  13.984  0.8596 -2.6074  1.2981
 8675TIP3   OH247439   5.164   0.120  11.929  0.4601  0.2349  0.3505
 8675TIP3    H147440   5.240   0.125  11.871  0.4581  3.0958  0.4695
 8675TIP3    H247441   5.114   0.045  11.896  1.1609  0.9125 -2.5016
 8676TIP3   OH247442   2.583   0.999  15.779 -0.3868 -0.0962  0.1966
 8676TIP3    H147443   2.589   1.027  15.688 -0.1868 -0.1788  0.1826
 8676TIP3    H247444   2.554   0.908  15.775  0.5788 -0.4157  0.1703
 8677TIP3   OH247445   3.219   1.579  13.842 -0.1829 -0.0428 -0.2643
 8677TIP3    H147446   3.283   1.648  13.860 -1.0761  0.2971  2.0517
 8677TIP3    H247447   3.153   1.620  13.787  1.5585 -0.4398 -2.8292
 8678TIP3   OH247448   0.106   2.290   4.857  0.4682  0.6070  0.3836
 8678TIP3    H147449   0.104   2.231   4.933  0.5510 -0.0080 -0.0850
 8678TIP3    H247450   0.199   2.309   4.844  0.4794  0.4627  0.2490
 8679TIP3   OH247451   6.295   6.757  16.039  0.3021  0.1677  0.0586
 8679TIP3    H147452   6.370   6.814  16.060  1.3081 -1.7209  1.9882
 8679TIP3    H247453   6.334   6.671  16.025 -1.3481 -0.4490 -0.9582
 8680TIP3   OH247454   4.408   3.497  10.884  0.0528 -0.1056  0.2621
 8680TIP3    H147455   4.489   3.538  10.852 -0.5815  1.0839  0.1386
 8680TIP3    H247456   4.384   3.548  10.961 -0.4017 -0.6859  0.5136
 8681TIP3   OH247457   0.263   1.150   0.041 -0.2276 -0.1755 -0.0262
 8681TIP3    H147458   0.292   1.142   0.132 -0.2429 -0.5663 -0.0514
 8681TIP3    H247459   0.318   1.087  -0.007 -0.8861 -0.6838 -0.1327
 8682TIP3   OH247460   4.277   0.760  11.249 -0.1379 -0.2331  0.2119
 8682TIP3    H147461   4.208   0.816  11.213 -0.9321 -0.3549  1.5102
 8682TIP3    H247462   4.345   0.821  11.279 -0.2890 -0.0472  0.1780
 8683TIP3   OH247463   3.779   4.049  15.263 -0.7936  0.4119  0.3163
 8683TIP3    H147464   3.737   4.094  15.190 -1.0224  0.8049  0.6828
 8683TIP3    H247465   3.738   3.962  15.264 -2.0906  0.9993  1.0615
 8684TIP3   OH247466   0.121   1.704   3.788 -0.0416 -0.0884 -0.3278
 8684TIP3    H147467   0.171   1.652   3.725  0.2953 -2.6239  1.8481
 8684TIP3    H247468   0.064   1.641   3.831 -0.2719  1.5105  1.8495
 8685TIP3   OH247469   4.381   5.121   3.557  0.0387  0.1694 -0.5585
 8685TIP3    H147470   4.296   5.105   3.599 -0.0373  1.6284 -0.0991
 8685TIP3    H247471   4.442   5.067   3.607 -0.5514 -0.6196 -0.6641
 8686TIP3   OH247472   4.376   2.725  10.633  0.7031 -0.1776  0.5922
 8686TIP3    H147473   4.350   2.793  10.572  0.1310 -0.2105  0.7961
 8686TIP3    H247474   4.335   2.750  10.716  3.4045  1.2116  1.6633
 8687TIP3   OH247475   1.667   3.429   4.116 -0.2498  0.6510 -0.0018
 8687TIP3    H147476   1.674   3.355   4.057  0.7771  0.6144  0.1483
 8687TIP3    H247477   1.690   3.394   4.202  0.5262  1.1810  0.0254
 8688TIP3   OH247478   0.742   0.042  16.110  0.0635 -0.5543  0.1219
 8688TIP3    H147479   0.833   0.035  16.140 -0.0191 -0.2024  0.4611
 8688TIP3    H247480   0.748   0.028  16.015  0.6663  0.7903 -0.0711
 8689TIP3   OH247481   4.694   4.692  13.594  0.0259  0.4405  0.2313
 8689TIP3    H147482   4.681   4.723  13.684 -0.1041  0.7001  0.1240
 8689TIP3    H247483   4.611   4.710  13.551 -0.4709 -1.1262  0.4691
 8690TIP3   OH247484   1.524   2.073  16.645  0.3320  0.5892 -0.9513
 8690TIP3    H147485   1.523   1.995  16.701  0.3882  0.4393 -1.1593
 8690TIP3    H247486   1.496   2.042  16.559 -0.7165  1.0011 -0.7749
 8691TIP3   OH247487   4.106   4.757  12.730  0.0938  0.0155 -0.4814
 8691TIP3    H147488   4.120   4.781  12.822  0.1896 -1.3592 -0.1211
 8691TIP3    H247489   4.178   4.800  12.683 -1.7625  3.5221 -0.4632
 8692TIP3   OH247490   1.687   3.413   3.096 -0.8246 -0.5307  0.6561
 8692TIP3    H147491   1.770   3.450   3.126 -0.9012 -0.6512  1.0223
 8692TIP3    H247492   1.706   3.379   3.008 -0.4505 -0.6960  0.7996
 8693TIP3   OH247493   0.654   3.135  13.489  0.3423 -0.8001 -0.0467
 8693TIP3    H147494   0.688   3.222  13.508 -0.5792 -0.7764  1.7117
 8693TIP3    H247495   0.579   3.125  13.548 -1.1422 -1.8157 -1.9960
 8694TIP3   OH247496   6.660   0.412   1.764 -0.6632 -0.1880  0.4582
 8694TIP3    H147497   6.661   0.455   1.849 -1.0108 -2.1423  1.5147
 8694TIP3    H247498   6.617   0.474   1.705  0.5578  1.6468  1.4231
 8695TIP3   OH247499   2.402   2.363  12.199 -0.3104 -0.3020 -0.0757
 8695TIP3    H147500   2.355   2.287  12.166  0.0751 -0.1312 -1.0374
 8695TIP3    H247501   2.479   2.370  12.143 -1.1868  1.8040 -1.1219
 8696TIP3   OH247502   3.629   0.016   0.106  0.3293 -0.1395  0.1328
 8696TIP3    H147503   3.625   0.084   0.039  0.1432 -1.1803 -0.9385
 8696TIP3    H247504   3.553   0.032   0.161 -0.7045 -0.5358 -1.1514
 8697TIP3   OH247505   5.847   2.660  15.103  0.1040 -0.4732  0.3939
 8697TIP3    H147506   5.886   2.646  15.017 -1.4464 -0.0275 -0.4166
 8697TIP3    H247507   5.910   2.623  15.165  1.8148  0.2813 -0.8343
 8698TIP3   OH247508   5.318   1.002   4.380 -0.6728 -0.2961 -0.4014
 8698TIP3    H147509   5.295   1.081   4.429 -0.3343 -0.2947 -0.2470
 8698TIP3    H247510   5.267   1.009   4.299 -0.9884 -0.1411 -0.1937
 8699TIP3   OH247511   0.164   3.176   6.033  0.6982 -0.1326  0.0423
 8699TIP3    H147512   0.257   3.166   6.012  0.9281 -1.0397  1.3145
 8699TIP3    H247513   0.121   3.108   5.982  0.8656 -0.3437  0.1766
 8700TIP3   OH247514   0.410   2.582  12.531  0.4449 -0.1667  0.2886
 8700TIP3    H147515   0.356   2.623  12.599  0.7732 -2.3632  1.9961
 8700TIP3    H247516   0.492   2.631  12.532  0.4112 -0.1025  1.4405
 8701TIP3   OH247517   0.974   0.108  13.213  0.0639  0.1909 -0.0834
 8701TIP3    H147518   1.064   0.093  13.184 -0.1273  1.0104 -1.1682
 8701TIP3    H247519   0.959   0.201  13.200 -0.4959  0.3476  1.4426
 8702TIP3   OH247520   2.316   6.563  14.388  0.6111 -0.3770 -0.2044
 8702TIP3    H147521   2.281   6.604  14.467  0.0646 -3.7514  1.4726
 8702TIP3    H247522   2.267   6.604  14.316 -1.0393  0.6910  1.4506
 8703TIP3   OH247523   1.529   2.591  14.399 -0.3078  0.4546 -0.0734
 8703TIP3    H147524   1.608   2.542  14.377 -0.3252 -0.6354  2.0017
 8703TIP3    H247525   1.551   2.637  14.480 -1.9566 -0.4823  0.9934
 8704TIP3   OH247526   2.689   3.667  14.009 -0.0371  0.4940  0.5665
 8704TIP3    H147527   2.598   3.652  13.986  0.4758 -0.8225 -0.7888
 8704TIP3    H247528   2.687   3.742  14.068 -2.0972 -0.2271  1.5130
 8705TIP3   OH247529   3.918   2.344   3.540 -0.6486  0.2645 -0.6354
 8705TIP3    H147530   3.940   2.279   3.607 -1.1124 -1.2194 -1.8711
 8705TIP3    H247531   3.904   2.425   3.590  0.2328 -0.4888  0.9215
 8706TIP3   OH247532   3.393   4.305  13.705 -0.8118 -0.1947  0.2574
 8706TIP3    H147533   3.298   4.316  13.706 -1.1216 -1.9514 -2.0731
 8706TIP3    H247534   3.426   4.383  13.661 -1.4378 -0.7119 -1.1749
 8707TIP3   OH247535   2.611   6.285   5.877  0.1987 -0.1775  0.4065
 8707TIP3    H147536   2.583   6.327   5.958  0.5610 -0.7825  0.8502
 8707TIP3    H247537   2.700   6.254   5.894  0.2535 -0.3809 -0.1915
 8708TIP3   OH247538   1.227   3.099  16.755  0.3181 -0.5163 -0.0056
 8708TIP3    H147539   1.154   3.114  16.815  0.3407  0.8516 -0.2900
 8708TIP3    H247540   1.280   3.031  16.798  0.2574  0.3291  1.4672
 8709TIP3   OH247541   3.873   1.448  12.214 -1.0079 -0.0983  0.6334
 8709TIP3    H147542   3.793   1.396  12.226 -0.0790 -1.7079  0.0818
 8709TIP3    H247543   3.890   1.447  12.120 -0.9823  1.2775  0.5969
 8710TIP3   OH247544   0.337   2.916   6.190  0.5255  0.4280  0.2499
 8710TIP3    H147545   0.425   2.952   6.196  2.1219 -2.3815 -3.0176
 8710TIP3    H247546   0.321   2.876   6.276  2.6987  0.4229  0.6896
 8711TIP3   OH247547   5.554   5.884   1.658 -0.2003  0.3126  0.1459
 8711TIP3    H147548   5.629   5.941   1.676 -0.5810  0.8779 -0.0386
 8711TIP3    H247549   5.589   5.795   1.665  0.1813  0.5520  1.3791
 8712TIP3   OH247550   2.141   3.627  15.822  0.0908 -0.8018  0.0991
 8712TIP3    H147551   2.063   3.682  15.824  2.1518  2.4246  0.6396
 8712TIP3    H247552   2.194   3.663  15.750  1.4530 -2.3146  0.2691
 8713TIP3   OH247553   2.116   0.147   3.224 -0.0340 -0.1353  0.3194
 8713TIP3    H147554   2.124   0.241   3.207  0.5313  0.3719  3.0254
 8713TIP3    H247555   2.031   0.137   3.266 -0.2121 -0.9201 -0.1967
 8714TIP3   OH247556   1.991   0.067   3.846  0.4388 -0.0756  0.2709
 8714TIP3    H147557   2.013  -0.005   3.905  0.3799  0.8189  1.4370
 8714TIP3    H247558   1.911   0.105   3.884 -1.0611 -0.9901 -1.8004
 8715TIP3   OH247559   3.897   2.644  16.898  0.7730 -0.5921 -0.2121
 8715TIP3    H147560   3.819   2.689  16.863  0.4756  0.3064  1.4801
 8715TIP3    H247561   3.922   2.582  16.829 -1.8347 -1.3857 -0.5575
 8716TIP3   OH247562   5.189   4.823   2.924  0.4783  0.3293  0.2509
 8716TIP3    H147563   5.187   4.738   2.968  2.2385 -0.4358 -1.0132
 8716TIP3    H247564   5.100   4.858   2.933 -0.4263 -1.8731  0.3663
 8717TIP3   OH247565   5.240   5.873  12.456  0.0289  0.1505 -0.4722
 8717TIP3    H147566   5.203   5.813  12.392 -0.9030  0.1444  0.0532
 8717TIP3    H247567   5.165   5.907  12.504  0.7738 -2.5017  3.0157
 8718TIP3   OH247568   1.590   6.704  15.184  0.3392 -0.3431 -0.6678
 8718TIP3    H147569   1.678   6.694  15.221  1.0073  1.7347 -1.5187
 8718TIP3    H247570   1.582   6.633  15.121  1.2059 -0.8784 -0.1988
 8719TIP3   OH247571   0.233   0.832  13.593 -0.2629 -0.0208  0.5845
 8719TIP3    H147572   0.185   0.769  13.539  2.2014  0.1543 -2.0283
 8719TIP3    H247573   0.205   0.917  13.560  1.0186  0.0927 -0.2657
 8720TIP3   OH247574   1.290   0.152   2.958 -0.8755 -0.0402 -0.5693
 8720TIP3    H147575   1.262   0.075   3.007  0.6736  0.2191  0.8003
 8720TIP3    H247576   1.319   0.118   2.873 -0.5475 -0.9236 -0.1103
 8721TIP3   OH247577   4.205   5.355  16.337 -0.6388  1.1002  0.1190
 8721TIP3    H147578   4.287   5.307  16.323  0.1293  1.8660  1.6569
 8721TIP3    H247579   4.138   5.288  16.342 -0.1297  0.4526 -1.2061
 8722TIP3   OH247580   4.676   4.330   4.145  0.0581  0.2148  0.3632
 8722TIP3    H147581   4.688   4.322   4.239  2.1620  0.4360  0.1610
 8722TIP3    H247582   4.738   4.398   4.118 -0.2223 -0.1190 -1.2368
 8723TIP3   OH247583   4.695   2.957  16.595 -0.2105  0.0776 -0.2623
 8723TIP3    H147584   4.723   2.947  16.504  0.4633  0.4510 -0.1012
 8723TIP3    H247585   4.604   2.987  16.589 -0.5772 -1.1167 -0.7933
 8724TIP3   OH247586   3.268   1.153   4.535  0.6964  0.6530 -0.4765
 8724TIP3    H147587   3.253   1.088   4.467 -0.4541  0.2680  0.1126
 8724TIP3    H247588   3.200   1.219   4.520  1.0068  1.0284 -0.2507
 8725TIP3   OH247589   0.181   6.629  12.038 -0.1059 -0.7103 -0.5430
 8725TIP3    H147590   0.128   6.681  12.099  1.8612  0.7808  0.0168
 8725TIP3    H247591   0.187   6.684  11.959  0.8009 -0.7223 -0.4894
 8726TIP3   OH247592   4.337   6.281   1.168 -0.2355 -0.7795  0.0989
 8726TIP3    H147593   4.268   6.308   1.229  0.9691  1.7190  0.4863
 8726TIP3    H247594   4.391   6.221   1.218 -0.3270 -0.2268  0.8845
 8727TIP3   OH247595   6.141   2.044   3.754  0.0751 -0.4360 -0.0964
 8727TIP3    H147596   6.118   1.951   3.761 -0.8713 -0.2752 -0.8463
 8727TIP3    H247597   6.140   2.076   3.845  0.0986 -1.0853  0.1375
 8728TIP3   OH247598   3.204   2.601   4.063  0.6142 -0.4928 -0.3864
 8728TIP3    H147599   3.240   2.615   3.976  0.1704 -1.6096 -0.7729
 8728TIP3    H247600   3.217   2.684   4.108  1.6714 -0.1840 -1.2161
 8729TIP3   OH247601   3.901   2.250   2.105  0.0026  0.1504 -0.0585
 8729TIP3    H147602   3.912   2.156   2.122  1.4676  0.6654  2.1596
 8729TIP3    H247603   3.941   2.263   2.019 -0.1655 -1.2291 -0.3701
 8730TIP3   OH247604   3.683   1.293  15.590  0.0124 -0.0956  0.4120
 8730TIP3    H147605   3.739   1.312  15.515  0.7268  0.0436  0.9714
 8730TIP3    H247606   3.629   1.220  15.562  0.5719 -0.3186 -0.0943
 8731TIP3   OH247607   0.865   3.702  11.800 -0.2362 -0.1538 -0.1595
 8731TIP3    H147608   0.811   3.662  11.868  0.4714  0.3964  0.7534
 8731TIP3    H247609   0.935   3.638  11.783  0.5120  0.3772  0.8186
 8732TIP3   OH247610   0.601   3.608   4.838 -0.2137 -0.1087 -0.0731
 8732TIP3    H147611   0.558   3.687   4.804 -2.3781 -1.2018 -0.0486
 8732TIP3    H247612   0.575   3.604   4.930  0.3879 -0.5192  0.0804
 8733TIP3   OH247613   3.740   6.549   2.781  0.3824 -0.0032  0.1928
 8733TIP3    H147614   3.758   6.619   2.718 -0.2965 -0.4631 -0.5439
 8733TIP3    H247615   3.649   6.524   2.763 -0.2422  0.6726  2.1974
 8734TIP3   OH247616   0.696   2.955   0.423  0.0631 -0.3027  0.4486
 8734TIP3    H147617   0.608   2.917   0.421 -0.9354  1.8450  0.4810
 8734TIP3    H247618   0.681   3.049   0.426  2.3834  0.2000 -1.1026
 8735TIP3   OH247619   6.384   3.967   0.922 -0.4594  0.0033 -0.7184
 8735TIP3    H147620   6.346   3.932   0.841 -0.5709 -0.8292 -0.3110
 8735TIP3    H247621   6.380   4.062   0.910 -1.9378 -0.0626 -1.0402
 8736TIP3   OH247622   2.856   4.674  14.365  0.0029 -0.1052  0.5671
 8736TIP3    H147623   2.886   4.759  14.396  0.3387  0.2291 -0.6111
 8736TIP3    H247624   2.812   4.693  14.282 -1.1804 -0.9156  0.9804
 8737TIP3   OH247625   0.715   2.124   4.336  0.4574  0.4254  0.6077
 8737TIP3    H147626   0.730   2.115   4.242  1.2403  1.7789  0.5731
 8737TIP3    H247627   0.674   2.042   4.362 -0.0323  0.1358 -0.9653
 8738TIP3   OH247628   4.776   5.741  15.997 -0.3183  0.3373  0.5373
 8738TIP3    H147629   4.861   5.780  16.018 -0.7487  1.1491  0.8300
 8738TIP3    H247630   4.715   5.783  16.057 -1.3950  1.8552 -1.4651
 8739TIP3   OH247631   4.126   5.233  14.807  0.0517  0.1248 -0.2493
 8739TIP3    H147632   4.110   5.321  14.772  0.9737 -0.0674 -1.2105
 8739TIP3    H247633   4.195   5.198  14.751  0.0686 -1.0140  0.4677
 8740TIP3   OH247634   4.223   6.662  14.121  0.0374 -0.2780 -0.0193
 8740TIP3    H147635   4.218   6.743  14.172 -0.7113  0.2517 -0.8868
 8740TIP3    H247636   4.266   6.599  14.178  1.3161  0.9359  0.4026
 8741TIP3   OH247637   4.622   0.743  10.570 -0.4393  0.1031  0.4776
 8741TIP3    H147638   4.592   0.725  10.481  0.3314 -0.7877  0.3870
 8741TIP3    H247639   4.712   0.711  10.573 -0.6993 -0.5864  1.7971
 8742TIP3   OH247640   0.087   2.734  13.898 -0.1527 -0.4917  0.1014
 8742TIP3    H147641   0.031   2.780  13.836 -0.8198  2.3867  2.5905
 8742TIP3    H247642   0.174   2.739  13.860 -0.8301 -0.8825 -1.6246
 8743TIP3   OH247643   3.248   3.330   5.317  0.1218 -0.3573  0.0114
 8743TIP3    H147644   3.236   3.419   5.282 -0.5211  0.2187  1.5860
 8743TIP3    H247645   3.342   3.318   5.319  0.2576  0.6739  0.6262
 8744TIP3   OH247646   3.984   2.352   2.368 -0.8479 -0.4228  0.5394
 8744TIP3    H147647   3.927   2.423   2.399  0.8540  0.7556  1.1302
 8744TIP3    H247648   3.992   2.367   2.274 -0.9215 -0.1464  0.5758
 8745TIP3   OH247649   6.638   3.314  10.605 -0.3490  0.8371 -0.0916
 8745TIP3    H147650   6.550   3.298  10.640  1.0402  1.2688  4.1115
 8745TIP3    H247651   6.690   3.241  10.637  2.1248  3.8268  3.4469
 8746TIP3   OH247652   1.436   2.585   4.013 -0.1678 -0.5392 -0.6988
 8746TIP3    H147653   1.412   2.571   3.921  0.0677 -0.8511 -0.7138
 8746TIP3    H247654   1.374   2.651   4.044  1.4920  1.7358 -1.8670
 8747TIP3   OH247655   4.051   2.352   6.360  0.2103  0.1361 -0.2978
 8747TIP3    H147656   4.134   2.376   6.319  0.5057  0.6413  0.5534
 8747TIP3    H247657   4.014   2.436   6.389  0.2539 -0.2225  0.8755
 8748TIP3   OH247658   4.694   0.498   4.124  0.0548  0.1167  0.3798
 8748TIP3    H147659   4.614   0.490   4.175 -0.9393  3.0715 -0.5430
 8748TIP3    H247660   4.688   0.429   4.058 -1.6182  0.1550  0.4608
 8749TIP3   OH247661   0.610   2.651   4.322 -0.0051  0.1291  0.4186
 8749TIP3    H147662   0.580   2.708   4.251 -1.4592  0.5227  1.3058
 8749TIP3    H247663   0.648   2.575   4.277 -0.2045  0.7149 -0.7727
 8750TIP3   OH247664   2.780   1.984   3.852 -0.3042 -0.0693  0.4668
 8750TIP3    H147665   2.721   1.988   3.927  0.6471  2.9960  1.2216
 8750TIP3    H247666   2.759   2.062   3.801  1.4002 -0.2315 -0.5786
 8751TIP3   OH247667   4.141   0.215   5.538 -0.4715 -0.4056  0.2277
 8751TIP3    H147668   4.107   0.126   5.552 -0.4729 -0.1360  2.3102
 8751TIP3    H247669   4.148   0.223   5.443  0.3888 -2.9604 -0.0090
 8752TIP3   OH247670   2.092   0.401  14.472  0.1240 -0.5776  0.1724
 8752TIP3    H147671   2.087   0.360  14.559 -1.3637  0.0751  0.4150
 8752TIP3    H247672   2.173   0.366  14.434  1.3136 -0.1638  2.1832
 8753TIP3   OH247673   5.566   2.298  16.804 -0.3263 -0.7539 -0.0021
 8753TIP3    H147674   5.474   2.324  16.798 -0.2534 -0.7690 -1.6398
 8753TIP3    H247675   5.590   2.316  16.895 -1.1407  2.0492 -0.2368
 8754TIP3   OH247676   0.781   5.175   2.680  0.2282  0.1538  0.1677
 8754TIP3    H147677   0.797   5.235   2.752  1.0057  0.7831 -0.5129
 8754TIP3    H247678   0.826   5.214   2.605  1.0050 -1.4107 -0.2347
 8755TIP3   OH247679   5.175   2.888   2.177 -0.7606 -0.1083 -0.2927
 8755TIP3    H147680   5.234   2.958   2.150  1.5135 -1.4412  1.0074
 8755TIP3    H247681   5.090   2.914   2.140  0.3892  2.3237 -1.4745
 8756TIP3   OH247682   6.693   3.312   5.928 -0.0706  0.2627  0.0047
 8756TIP3    H147683   6.635   3.353   5.992  0.6732  1.1879  0.1036
 8756TIP3    H247684   6.636   3.293   5.854 -0.8273 -0.3222  0.7218
 8757TIP3   OH247685   5.522   1.822   3.450  0.7295  0.0911 -0.1401
 8757TIP3    H147686   5.574   1.833   3.370  1.7597 -0.5728  0.4303
 8757TIP3    H247687   5.585   1.798   3.517 -0.4757 -2.2411  0.2510
 8758TIP3   OH247688   5.123   4.492   4.866  0.4208 -0.0680  0.3917
 8758TIP3    H147689   5.211   4.455   4.873  0.3248 -0.3258  0.2731
 8758TIP3    H247690   5.079   4.435   4.802  0.0296 -0.2158  0.7897
 8759TIP3   OH247691   1.171   4.626   2.300  0.1142  0.3277  0.1567
 8759TIP3    H147692   1.167   4.566   2.225  1.4776 -0.3809  0.6174
 8759TIP3    H247693   1.245   4.596   2.351  0.0121  1.6118  1.1223
 8760TIP3   OH247694   0.486   5.893   2.235  0.1310  0.7633  0.7200
 8760TIP3    H147695   0.451   5.951   2.167  0.8736  1.0123  0.5440
 8760TIP3    H247696   0.408   5.856   2.277 -0.3777 -0.8301 -1.4381
 8761TIP3   OH247697   2.730   1.242   4.452 -0.8288 -0.7673  0.7103
 8761TIP3    H147698   2.636   1.257   4.441 -0.7128 -0.5264  0.0221
 8761TIP3    H247699   2.735   1.164   4.506 -1.4292 -1.3941 -0.1158
 8762TIP3   OH247700   0.369   1.545  14.662  0.2517 -0.0807  0.0736
 8762TIP3    H147701   0.404   1.603  14.729 -1.9585  2.6177 -0.9417
 8762TIP3    H247702   0.342   1.467  14.711 -0.2656  1.3122  2.1767
 8763TIP3   OH247703   1.782   2.958  12.680 -0.3056 -0.0958  0.1278
 8763TIP3    H147704   1.749   2.947  12.591 -0.7473  0.8377  0.1671
 8763TIP3    H247705   1.858   2.900  12.684 -1.1946 -1.3463 -0.3574
 8764TIP3   OH247706   5.531   2.720   5.803 -0.0176 -0.4438  0.2206
 8764TIP3    H147707   5.456   2.752   5.854 -0.1871  0.3011 -0.4710
 8764TIP3    H247708   5.604   2.718   5.865 -0.2009  0.5424  0.4850
 8765TIP3   OH247709   1.909   3.299  14.792  0.1419 -0.2042 -0.0111
 8765TIP3    H147710   1.893   3.246  14.713  0.0933  0.2012 -0.2771
 8765TIP3    H247711   1.864   3.381  14.775  0.9399  0.2510  0.0291
 8766TIP3   OH247712   2.149   3.340  16.199 -0.0937 -0.1653  0.6632
 8766TIP3    H147713   2.238   3.366  16.222  0.6736 -1.0335 -1.1660
 8766TIP3    H247714   2.159   3.253  16.160 -1.5558  0.3298 -0.8901
 8767TIP3   OH247715   3.098   3.157  15.143 -0.0781 -0.2114 -0.1468
 8767TIP3    H147716   3.090   3.240  15.097  0.7651 -0.2594 -0.4018
 8767TIP3    H247717   3.013   3.144  15.184 -0.5016  0.3437 -0.8252
 8768TIP3   OH247718   3.969   2.970  15.997  0.6225  0.2195 -0.5200
 8768TIP3    H147719   3.920   3.019  15.930 -0.9606 -0.3781  0.1442
 8768TIP3    H247720   4.041   2.929  15.949  0.1106  0.6261 -1.6760
 8769TIP3   OH247721   3.926   5.711   6.372 -0.0961  0.2041 -0.5826
 8769TIP3    H147722   3.899   5.789   6.421 -1.1523  0.7561 -1.9969
 8769TIP3    H247723   3.984   5.665   6.433 -1.7985  0.5453  1.4395
 8770TIP3   OH247724   5.416   0.264  14.646  0.1879 -0.0518  0.4458
 8770TIP3    H147725   5.330   0.303  14.632  0.0779 -0.9594 -1.8021
 8770TIP3    H247726   5.399   0.172  14.666  0.6054  0.0814  1.4896
 8771TIP3   OH247727   2.212   4.027   4.721 -0.0287 -0.1799 -0.1354
 8771TIP3    H147728   2.221   4.001   4.629 -1.2267 -0.1485 -0.2794
 8771TIP3    H247729   2.161   3.957   4.761  2.2658 -1.2738  1.0500
 8772TIP3   OH247730   0.965   3.792  15.152  0.2351 -0.7132 -0.0771
 8772TIP3    H147731   1.046   3.775  15.105  1.4835 -0.4586  1.8802
 8772TIP3    H247732   0.931   3.705  15.173 -0.5569 -0.8446 -1.6897
 8773TIP3   OH247733   5.999   0.909  13.675 -0.5379 -0.2676 -0.1934
 8773TIP3    H147734   5.969   0.937  13.761  0.4575 -0.1292  0.1282
 8773TIP3    H247735   5.963   0.973  13.614 -0.0416  0.4869  0.2927
 8774TIP3   OH247736   2.935   1.216   0.246 -0.1552  0.4263  1.0443
 8774TIP3    H147737   3.029   1.199   0.238  0.2486  2.6787  0.1709
 8774TIP3    H247738   2.902   1.143   0.297  1.9443 -0.8046  0.7749
 8775TIP3   OH247739   6.793   1.546  15.910  0.0256  0.4464 -0.3360
 8775TIP3    H147740   6.773   1.528  15.818 -0.7465 -0.2676 -0.0450
 8775TIP3    H247741   6.712   1.580  15.946  0.3093  0.6628  0.1003
 8776TIP3   OH247742   6.770   4.879   3.662 -0.2101 -0.0132  0.4815
 8776TIP3    H147743   6.754   4.959   3.712 -0.4849  0.0650  0.2730
 8776TIP3    H247744   6.684   4.838   3.653  0.0508 -0.7787  1.3244
 8777TIP3   OH247745   4.722   3.398  14.016  0.1488 -0.1118 -0.5234
 8777TIP3    H147746   4.802   3.361  14.054  0.0885 -1.0068 -1.2318
 8777TIP3    H247747   4.696   3.335  13.949  0.0981  1.2839 -1.8712
 8778TIP3   OH247748   3.069   5.281   2.213 -0.0060 -0.1034  0.2994
 8778TIP3    H147749   3.112   5.203   2.178 -0.3559 -0.4047  0.5302
 8778TIP3    H247750   3.003   5.247   2.274 -2.1552  0.1992 -1.6927
 8779TIP3   OH247751   4.681   5.987  11.926 -0.0990  0.3926 -0.0230
 8779TIP3    H147752   4.601   5.962  11.972 -1.1070 -0.5184 -2.1213
 8779TIP3    H247753   4.751   5.938  11.970 -1.0126 -0.4795  0.4965
 8780TIP3   OH247754   5.685   5.507  13.662  0.0133  0.3856 -0.3107
 8780TIP3    H147755   5.599   5.466  13.668 -0.3000  1.1714  0.8817
 8780TIP3    H247756   5.672   5.586  13.610 -0.2712  1.1476  0.8690
 8781TIP3   OH247757   0.962   1.138  15.949 -0.2410  0.2394  0.3074
 8781TIP3    H147758   1.025   1.209  15.938 -1.2275  0.9491 -1.0337
 8781TIP3    H247759   0.906   1.167  16.022 -0.4924  0.7456 -0.0780
 8782TIP3   OH247760   3.288   4.000   2.195  0.3240  0.7643 -0.1563
 8782TIP3    H147761   3.356   3.933   2.204  1.1679  1.6817  0.5778
 8782TIP3    H247762   3.263   3.998   2.103 -1.4916 -2.2606  0.2384
 8783TIP3   OH247763   5.915   1.576  14.842  0.8021  0.5337 -0.3573
 8783TIP3    H147764   5.944   1.570  14.933 -1.4984 -2.0699  0.3581
 8783TIP3    H247765   5.858   1.652  14.840  1.7740  1.2973  0.0526
 8784TIP3   OH247766   4.600   4.086  14.323  0.0740  0.9091 -0.4935
 8784TIP3    H147767   4.676   4.029  14.310 -1.1857 -0.7253 -0.9759
 8784TIP3    H247768   4.530   4.045  14.273 -1.9992  0.6368  2.3971
 8785TIP3   OH247769   1.974   3.205   5.625  0.2444  0.1123  0.2889
 8785TIP3    H147770   2.047   3.266   5.624 -0.6786  1.2853 -1.5599
 8785TIP3    H247771   1.961   3.183   5.717  2.8003 -0.0411  0.6811
 8786TIP3   OH247772   4.662   5.037  15.319  0.2340 -0.1122  0.0482
 8786TIP3    H147773   4.656   5.121  15.274 -0.8658  0.6770  1.5711
 8786TIP3    H247774   4.732   5.049  15.383  2.6337 -1.6196 -2.1022
 8787TIP3   OH247775   2.422   2.028   0.955 -0.4983 -0.0906 -0.1467
 8787TIP3    H147776   2.420   2.056   0.864  0.0272 -0.0790 -0.1613
 8787TIP3    H247777   2.515   2.010   0.972 -0.6430 -0.4740  0.2668
 8788TIP3   OH247778   1.076   2.104  16.098 -0.4898  0.4941 -0.3426
 8788TIP3    H147779   1.075   2.099  16.003  2.7332  2.4087 -0.6418
 8788TIP3    H247780   1.169   2.110  16.121 -1.1845  1.3612  2.8459
 8789TIP3   OH247781   6.794   4.842  15.637 -0.0908 -0.4493 -0.3723
 8789TIP3    H147782   6.721   4.845  15.575  0.3809  0.1673 -0.9108
 8789TIP3    H247783   6.783   4.922  15.689  0.7667  0.1783 -1.1283
 8790TIP3   OH247784   4.030   3.282  15.644  0.7260  0.0403 -0.3112
 8790TIP3    H147785   4.047   3.287  15.550 -1.8008  0.4853 -0.8131
 8790TIP3    H247786   4.031   3.373  15.674  0.6200 -0.0340 -0.0766
 8791TIP3   OH247787   5.696   3.577  12.856 -0.2341 -0.1078  0.7438
 8791TIP3    H147788   5.776   3.630  12.848 -0.2837 -0.2025 -0.5575
 8791TIP3    H247789   5.728   3.490  12.883  0.0866 -0.0896  0.4326
 8792TIP3   OH247790   6.431   2.679   5.431 -0.2004  0.1101 -0.4506
 8792TIP3    H147791   6.474   2.594   5.425  1.6820  0.8983  1.0554
 8792TIP3    H247792   6.343   2.659   5.464  0.5571 -1.1904  0.8870
 8793TIP3   OH247793   2.325   2.026  16.670  0.3389  0.1167  0.5222
 8793TIP3    H147794   2.326   1.945  16.618 -1.1103  0.0760  0.5047
 8793TIP3    H247795   2.257   2.011  16.736  2.6969 -0.1733  3.0507
 8794TIP3   OH247796   5.069   2.688  15.757 -0.1186  0.0451  0.1873
 8794TIP3    H147797   5.040   2.723  15.673 -0.3497 -0.4676  0.0489
 8794TIP3    H247798   5.163   2.705  15.760  0.2334 -1.5369 -0.9718
 8795TIP3   OH247799   4.162   1.334   2.037 -0.0131 -0.0261  0.0383
 8795TIP3    H147800   4.152   1.370   1.949  0.1080 -0.5529 -0.1949
 8795TIP3    H247801   4.172   1.411   2.093  2.9473  0.3280 -0.7653
 8796TIP3   OH247802   1.550   1.279   0.160  0.2094  0.0680  0.0257
 8796TIP3    H147803   1.541   1.343   0.231 -1.5457 -0.3112  0.2024
 8796TIP3    H247804   1.631   1.304   0.115  0.0348  1.8821  0.6146
 8797TIP3   OH247805   2.393   4.483  16.504  0.5537  0.1149  0.0091
 8797TIP3    H147806   2.471   4.447  16.547 -0.5470 -1.2407  0.9765
 8797TIP3    H247807   2.336   4.510  16.576  0.3904  1.7439 -0.6881
 8798TIP3   OH247808   3.011   4.344  10.928  0.3045 -0.1307  0.5854
 8798TIP3    H147809   2.971   4.267  10.970  0.1900 -1.1859 -1.3418
 8798TIP3    H247810   3.094   4.312  10.893  1.5372  1.3249  2.0075
 8799TIP3   OH247811   6.773   1.001  13.310 -0.3217 -0.5319 -0.5891
 8799TIP3    H147812   6.711   1.048  13.366  0.1360 -0.5675 -0.0394
 8799TIP3    H247813   6.761   0.909  13.334  0.3567 -0.4890 -0.0428
 8800TIP3   OH247814   1.829   1.430   2.243  0.3855  0.0764 -0.5414
 8800TIP3    H147815   1.857   1.495   2.307 -0.3453 -0.4588  0.3596
 8800TIP3    H247816   1.870   1.348   2.273  1.6070  0.1661 -1.8759
 8801TIP3   OH247817   6.112   2.574   0.261 -0.1537 -0.4858 -0.7663
 8801TIP3    H147818   6.082   2.483   0.261  2.1821 -1.3421  0.8510
 8801TIP3    H247819   6.062   2.615   0.332 -1.1756 -0.4858 -1.4644
 8802TIP3   OH247820   2.464   5.223   3.638 -0.0499  0.1865 -0.4266
 8802TIP3    H147821   2.516   5.180   3.706 -2.0824 -0.5596  0.7387
 8802TIP3    H247822   2.470   5.164   3.563 -0.0871 -0.4508  0.0584
 8803TIP3   OH247823   3.847   5.715  11.612 -0.0200 -0.1877  0.3265
 8803TIP3    H147824   3.796   5.646  11.654 -1.6095 -0.4587 -1.8855
 8803TIP3    H247825   3.808   5.796  11.645 -1.0279 -0.3957 -0.2958
 8804TIP3   OH247826   2.646   2.551   0.816  0.0942  0.4303 -0.2079
 8804TIP3    H147827   2.688   2.586   0.895  2.5228 -1.2710 -0.6293
 8804TIP3    H247828   2.718   2.511   0.767 -1.6189  0.0016 -2.5045
 8805TIP3   OH247829   4.207   3.741  12.482 -0.5092 -0.4286  0.8172
 8805TIP3    H147830   4.188   3.826  12.442  0.6500 -1.0874 -1.2406
 8805TIP3    H247831   4.154   3.679  12.432  3.4148 -1.7301 -2.2147
 8806TIP3   OH247832   2.029   4.809   6.082 -0.8495 -0.3642  0.2578
 8806TIP3    H147833   2.085   4.766   6.147 -0.7154 -0.3577  0.1459
 8806TIP3    H247834   1.953   4.752   6.075 -0.6511 -0.6079  0.0778
 8807TIP3   OH247835   6.492   4.223   1.580 -0.1925  0.3522  0.5951
 8807TIP3    H147836   6.503   4.299   1.522 -0.7865  0.7627  1.0053
 8807TIP3    H247837   6.417   4.246   1.634 -0.3496 -0.5225  0.7513
 8808TIP3   OH247838   5.253   0.019   2.824  0.4537  0.3012 -0.1736
 8808TIP3    H147839   5.310  -0.034   2.768 -1.6830 -0.5123 -1.7196
 8808TIP3    H247840   5.198  -0.045   2.870  0.2608  1.0799  0.7184
 8809TIP3   OH247841   5.916   1.330  14.720  0.3693 -0.1274  0.1362
 8809TIP3    H147842   5.888   1.404  14.774 -2.1618  0.1338 -1.3566
 8809TIP3    H247843   5.978   1.368  14.658 -1.5255  1.0260 -1.1521
 8810TIP3   OH247844   2.557   3.476  14.266  0.2193 -0.4952  0.0605
 8810TIP3    H147845   2.604   3.480  14.349  0.9939 -0.4066 -0.3718
 8810TIP3    H247846   2.560   3.565  14.231 -0.7103 -0.3758  0.2538
 8811TIP3   OH247847   0.306   0.198  12.530 -0.1226  0.2616 -0.5095
 8811TIP3    H147848   0.294   0.290  12.553  0.5843 -0.1212  1.6132
 8811TIP3    H247849   0.398   0.180  12.550 -0.3733 -1.0221 -0.4183
 8812TIP3   OH247850   6.019   5.561  12.455  0.6397 -0.4931 -0.1415
 8812TIP3    H147851   6.048   5.499  12.522  2.1393 -0.0801 -0.3788
 8812TIP3    H247852   5.968   5.626  12.502  0.8953 -0.7140  0.4489
 8813TIP3   OH247853   1.974   0.111   0.352  0.1728 -0.7568  0.6132
 8813TIP3    H147854   2.049   0.073   0.305 -0.0846  0.0334 -0.4811
 8813TIP3    H247855   1.907   0.123   0.284  0.0900  1.2393  0.9874
 8814TIP3   OH247856   3.128   6.630  11.721 -0.0635  0.5781 -0.7959
 8814TIP3    H147857   3.075   6.674  11.654 -1.2436 -0.1255 -0.3689
 8814TIP3    H247858   3.216   6.628  11.685 -0.0349  2.9543 -0.9806
 8815TIP3   OH247859   6.589   0.783  13.815 -0.1773 -0.1077 -0.4775
 8815TIP3    H147860   6.555   0.733  13.889  0.7140  0.6977  0.4948
 8815TIP3    H247861   6.590   0.719  13.743 -0.9245 -0.9412  0.2142
 8816TIP3   OH247862   3.214   6.734   2.136 -0.0983  0.4129 -0.5962
 8816TIP3    H147863   3.307   6.735   2.111  0.6499 -4.9632  0.7944
 8816TIP3    H247864   3.215   6.734   2.231 -1.5315  0.0323 -0.5642
 8817TIP3   OH247865   6.449   1.214  12.957  0.2504  0.0426 -0.2483
 8817TIP3    H147866   6.506   1.269  13.011  0.3235 -0.6512  0.3999
 8817TIP3    H247867   6.408   1.275  12.896  1.7536  0.5453 -0.8025
 8818TIP3   OH247868   2.842   6.041   1.517 -0.6093  0.2071 -0.1502
 8818TIP3    H147869   2.792   6.117   1.548  0.5667  0.5162  1.0862
 8818TIP3    H247870   2.898   6.075   1.447  1.0811  0.8927  1.4688
 8819TIP3   OH247871   1.073   2.604  15.841 -0.7081  0.3284 -0.1078
 8819TIP3    H147872   0.999   2.544  15.839  0.7840 -1.8264  2.0496
 8819TIP3    H247873   1.095   2.611  15.934  2.3862 -0.0256 -0.6955
 8820TIP3   OH247874   1.121   2.676   2.789  0.3333 -0.3074 -0.1264
 8820TIP3    H147875   1.133   2.586   2.817  0.0832  0.0273  1.1131
 8820TIP3    H247876   1.036   2.702   2.825  0.3443  0.3800 -0.5724
 8821TIP3   OH247877   1.716   4.601   1.820 -0.4087  0.3134 -0.0717
 8821TIP3    H147878   1.767   4.556   1.887  2.2102  2.6884 -0.2900
 8821TIP3    H247879   1.730   4.548   1.741 -0.1567 -0.3157  0.3842
 8822TIP3   OH247880   4.178   3.789   0.571 -0.2558  0.2338  0.4233
 8822TIP3    H147881   4.248   3.812   0.632  0.0174  0.9322 -0.1282
 8822TIP3    H247882   4.099   3.829   0.607  0.2012  2.0402 -0.4853
 8823TIP3   OH247883   0.261   2.109   6.190  0.3817 -0.1276  0.2172
 8823TIP3    H147884   0.309   2.189   6.213  2.2340 -1.1523  0.1488
 8823TIP3    H247885   0.233   2.073   6.273  0.9197 -0.2015  0.3716
 8824TIP3   OH247886   1.774   2.556   0.707 -1.0306  0.4450 -0.9530
 8824TIP3    H147887   1.783   2.636   0.759  0.8709  0.0791 -0.6473
 8824TIP3    H247888   1.706   2.577   0.644 -0.3817  2.4341 -1.0824
 8825TIP3   OH247889   3.041   6.789   0.844  0.9481  0.1111 -0.6251
 8825TIP3    H147890   2.967   6.787   0.783  1.3237 -0.2522 -1.0771
 8825TIP3    H247891   3.021   6.860   0.904  0.2547  0.0485 -0.7762
 8826TIP3   OH247892   5.162   1.084  13.902 -0.5911  0.2476 -0.8718
 8826TIP3    H147893   5.102   1.066  13.974  1.0898 -1.2334  0.2546
 8826TIP3    H247894   5.171   1.001  13.856 -0.2034  0.7154 -1.6692
 8827TIP3   OH247895   4.306   4.847  15.946 -0.0797  0.0535 -0.1081
 8827TIP3    H147896   4.292   4.832  15.852 -0.7703  0.8347 -0.1384
 8827TIP3    H247897   4.400   4.833  15.959 -0.0324 -0.3724 -0.8495
 8828TIP3   OH247898   2.913   0.614  11.752 -0.2366  0.2221 -1.0549
 8828TIP3    H147899   2.966   0.595  11.829 -1.6008  0.5405  0.0011
 8828TIP3    H247900   2.904   0.709  11.751  0.3663  0.2866 -2.0447
 8829TIP3   OH247901   5.325   5.070   4.072  0.1988  0.1868  0.9021
 8829TIP3    H147902   5.229   5.070   4.074  0.1075 -0.8854 -1.1271
 8829TIP3    H247903   5.350   4.988   4.114  0.0938 -0.6198 -0.5374
 8830TIP3   OH247904   3.063   0.114  14.850 -0.2965  0.7671 -0.0393
 8830TIP3    H147905   2.998   0.048  14.825 -1.3244  1.2852  1.1703
 8830TIP3    H247906   3.148   0.072  14.832 -0.9334 -0.6709  0.1541
 8831TIP3   OH247907   6.667   4.909   1.748  0.0021 -0.0210  0.0604
 8831TIP3    H147908   6.678   4.949   1.834 -1.6560  1.0813 -0.1837
 8831TIP3    H247909   6.752   4.870   1.728  1.3547  2.2967  0.8750
 8832TIP3   OH247910   3.937   2.298  16.051  0.1549 -0.0616 -0.1173
 8832TIP3    H147911   3.888   2.352  16.113 -0.9584 -0.5484 -0.5357
 8832TIP3    H247912   3.982   2.234  16.105  1.2052  1.0289  0.3589
 8833TIP3   OH247913   3.874   5.713   0.506 -0.2096  0.8193  0.2216
 8833TIP3    H147914   3.844   5.637   0.455  0.3536  1.0785 -0.5083
 8833TIP3    H247915   3.941   5.753   0.452 -0.4227  1.7870  0.6591
 8834TIP3   OH247916   2.772   4.069  15.754 -0.2423  0.5925  0.6122
 8834TIP3    H147917   2.708   4.112  15.810 -1.0019  0.9571 -0.5086
 8834TIP3    H247918   2.852   4.122  15.762 -0.0261  0.0885  2.0792
 8835TIP3   OH247919   6.593   1.176  13.421 -0.1969  0.1032  0.0401
 8835TIP3    H147920   6.504   1.180  13.456 -0.6838  0.4300 -1.1855
 8835TIP3    H247921   6.592   1.236  13.347  1.7739  2.1250  1.5111
 8836TIP3   OH247922   3.764   1.848   5.028  0.4252 -0.1909  0.0141
 8836TIP3    H147923   3.781   1.864   5.121 -2.2917 -0.1591  0.5971
 8836TIP3    H247924   3.780   1.755   5.016  2.0769  0.0441  0.1481
 8837TIP3   OH247925   0.246   1.437   4.746  0.5256 -0.3032 -0.5579
 8837TIP3    H147926   0.321   1.455   4.802  1.3828 -2.2203 -1.0202
 8837TIP3    H247927   0.248   1.506   4.679  2.2708 -0.7076 -0.9608
 8838TIP3   OH247928   4.552   5.367   0.779 -0.3426 -0.6520 -1.0492
 8838TIP3    H147929   4.512   5.313   0.711 -1.5686 -0.7021 -0.3235
 8838TIP3    H247930   4.575   5.448   0.734 -3.0590  0.1560 -1.1731
 8839TIP3   OH247931   3.300   4.956  15.926  0.6246  0.1032 -0.1389
 8839TIP3    H147932   3.269   4.960  16.016 -2.5256  0.9922 -1.1136
 8839TIP3    H247933   3.364   5.027  15.919  0.3975  0.4668  1.2144
 8840TIP3   OH247934   4.734   1.134  14.745  0.7220  0.2897 -0.2826
 8840TIP3    H147935   4.826   1.122  14.719  0.3207 -0.1344 -1.5770
 8840TIP3    H247936   4.686   1.067  14.696 -0.1743 -0.1778  1.1646
 8841TIP3   OH247937   1.187   0.099  16.382 -0.4422  0.1132 -0.3050
 8841TIP3    H147938   1.226   0.088  16.295  0.2658 -0.6711  0.0902
 8841TIP3    H247939   1.225   0.180  16.415 -2.1820  1.4535 -1.4594
 8842TIP3   OH247940   0.638   4.162  12.402 -0.5000 -0.2079  0.7412
 8842TIP3    H147941   0.696   4.187  12.473 -0.1261 -0.6836  0.6098
 8842TIP3    H247942   0.635   4.066  12.406 -1.5300 -0.1812  0.9473
 8843TIP3   OH247943   4.947   2.671   5.797 -0.2237  0.5517  0.4356
 8843TIP3    H147944   5.031   2.716   5.810  0.1352  0.1073 -0.2502
 8843TIP3    H247945   4.935   2.671   5.702 -1.7074  1.8630  0.5679
 8844TIP3   OH247946   0.624   2.455  16.010 -0.0858  0.0056 -0.0627
 8844TIP3    H147947   0.569   2.384  16.043 -0.3448 -0.2728 -1.0384
 8844TIP3    H247948   0.702   2.454  16.066 -0.0476 -1.1173 -0.1076
 8845TIP3   OH247949   5.405   5.176  15.342 -0.3119 -0.3308  0.2943
 8845TIP3    H147950   5.476   5.229  15.306 -1.4740  0.3875 -1.0468
 8845TIP3    H247951   5.422   5.173  15.436  1.0180  0.5054  0.1082
 8846TIP3   OH247952   3.878   1.599   0.372 -0.1601 -0.2671 -0.2152
 8846TIP3    H147953   3.966   1.563   0.382  1.1171  2.3365 -1.1865
 8846TIP3    H247954   3.879   1.678   0.426 -1.4832  0.4676 -1.2350
 8847TIP3   OH247955   1.096   0.776  15.485  0.1316 -0.2099  0.2468
 8847TIP3    H147956   1.030   0.770  15.416 -0.6659  0.8976  0.8670
 8847TIP3    H247957   1.159   0.840  15.452 -0.8288  1.1500  0.9568
 8848TIP3   OH247958   5.529   4.006  14.166 -0.3784  0.2189 -0.3209
 8848TIP3    H147959   5.615   3.982  14.200 -0.6741 -1.1417 -0.5031
 8848TIP3    H247960   5.505   4.085  14.216  0.1690 -0.4574  1.0694
 8849TIP3   OH247961   0.391   3.151  16.237 -0.5320 -0.1247 -0.0393
 8849TIP3    H147962   0.442   3.139  16.317 -0.2646  1.8843  0.1250
 8849TIP3    H247963   0.431   3.091  16.174 -1.7768 -3.0393  1.6887
 8850TIP3   OH247964   5.129   4.010  15.872 -0.1252 -0.3446 -0.9279
 8850TIP3    H147965   5.098   4.060  15.797 -0.9042 -1.0837 -1.1141
 8850TIP3    H247966   5.050   3.989  15.922  0.0063 -2.4380 -1.5231
 8851TIP3   OH247967   5.123   5.648  15.501  0.2165 -0.4011 -0.4622
 8851TIP3    H147968   5.068   5.679  15.428  1.1395  0.6774 -0.7248
 8851TIP3    H247969   5.126   5.553  15.490  1.4292 -0.1722 -2.6541
 8852TIP3   OH247970   4.615   2.457   3.896 -0.0603 -0.1546  0.2059
 8852TIP3    H147971   4.610   2.540   3.944  1.1828 -0.3325  0.6555
 8852TIP3    H247972   4.688   2.410   3.935  1.6002  0.0603 -2.4321
 8853TIP3   OH247973   6.300   2.157  15.051  0.0618 -0.0142 -0.5878
 8853TIP3    H147974   6.338   2.088  15.104 -0.2192  0.8078  0.7171
 8853TIP3    H247975   6.225   2.188  15.102  0.6645  1.8031 -0.7481
 8854TIP3   OH247976   1.325   1.430  13.993  0.7786  0.5317  0.1438
 8854TIP3    H147977   1.292   1.512  13.957  0.1567  0.3713  0.3359
 8854TIP3    H247978   1.397   1.405  13.935  0.5878  0.9097 -0.2577
 8855TIP3   OH247979   2.057   0.983  13.767 -0.0920 -0.7570 -0.2698
 8855TIP3    H147980   2.077   0.901  13.724  0.3139 -0.6506 -0.2895
 8855TIP3    H247981   2.052   0.961  13.860  0.1976 -0.7712 -0.2568
 8856TIP3   OH247982   3.567   4.560  15.211 -0.3523  0.4534  0.0126
 8856TIP3    H147983   3.491   4.593  15.163  0.0859  0.7162 -0.5107
 8856TIP3    H247984   3.618   4.639  15.232  1.0673  0.0971 -1.8591
 8857TIP3   OH247985   2.469   5.598  16.906  0.6292  0.5361 -0.5971
 8857TIP3    H147986   2.418   5.664  16.859  1.2952  1.4309 -0.1039
 8857TIP3    H247987   2.502   5.539  16.838 -1.4727 -0.4046 -0.8928
 8858TIP3   OH247988   2.813   1.293   1.966 -0.2233 -0.1920  0.0824
 8858TIP3    H147989   2.841   1.360   2.028 -1.8612  0.0211  0.6206
 8858TIP3    H247990   2.787   1.343   1.888 -0.8891 -0.2372  0.2726
 8859TIP3   OH247991   0.407   1.802   5.796 -0.1159 -0.1618  0.0324
 8859TIP3    H147992   0.500   1.800   5.817  0.2805  0.4102 -1.5232
 8859TIP3    H247993   0.388   1.894   5.779 -1.1444 -0.1723  1.0091
 8860TIP3   OH247994   1.861   1.832   2.618  0.3997 -0.0431 -0.4777
 8860TIP3    H147995   1.777   1.796   2.645 -0.0746 -2.0750 -3.9920
 8860TIP3    H247996   1.839   1.918   2.581  0.3054  0.5275  0.8605
 8861TIP3   OH247997   4.268   2.559   4.968  0.1201  0.0229 -0.2989
 8861TIP3    H147998   4.286   2.481   4.915  0.6607  0.6522 -1.0559
 8861TIP3    H247999   4.338   2.561   5.032 -1.1879 -1.4091  1.2699
 8862TIP3   OH248000   0.386   2.084   5.770 -0.4603 -0.3195  0.1126
 8862TIP3    H148001   0.421   2.157   5.821 -3.2432 -0.3160  2.2885
 8862TIP3    H248002   0.353   2.125   5.691  0.4360  0.3252  0.0511
 8863TIP3   OH248003   6.311   0.841  14.897  0.3918  0.2519 -0.2409
 8863TIP3    H148004   6.293   0.750  14.874  1.2424  0.3045 -1.1747
 8863TIP3    H248005   6.404   0.853  14.877 -0.1712  1.8975 -2.1745
 8864TIP3   OH248006   5.051   3.394  12.151 -0.1531  0.0073 -0.0972
 8864TIP3    H148007   5.117   3.417  12.085  0.0911  0.6707  0.3681
 8864TIP3    H248008   4.993   3.469  12.154 -0.6829 -0.3948 -0.1881
 8865TIP3   OH248009   0.450   0.480   1.541  0.6064 -0.0811 -0.3269
 8865TIP3    H148010   0.369   0.508   1.497  0.6069  1.3812  0.5168
 8865TIP3    H248011   0.496   0.427   1.476  0.2362  1.3415 -1.8122
 8866TIP3   OH248012   6.815   2.194  15.917 -0.6606 -0.6053  0.5917
 8866TIP3    H148013   6.887   2.132  15.929 -1.0026 -1.2277 -0.5181
 8866TIP3    H248014   6.821   2.252  15.993  1.8740  0.2196 -0.1404
 8867TIP3   OH248015   0.653   1.302  13.784 -0.3477 -0.0442  0.1132
 8867TIP3    H148016   0.701   1.326  13.864 -0.1786  0.5905 -0.1728
 8867TIP3    H248017   0.597   1.377  13.765  1.0455  0.6773 -1.4480
 8868TIP3   OH248018   2.452   2.407   2.162  0.0772 -0.2444 -0.2180
 8868TIP3    H148019   2.494   2.327   2.132 -0.5931 -0.5972 -0.2460
 8868TIP3    H248020   2.461   2.405   2.257 -0.7156 -0.8146 -0.1430
 8869TIP3   OH248021   5.812   2.970   0.602  0.1167  0.6200 -0.0951
 8869TIP3    H148022   5.772   2.981   0.689  0.7784 -1.4292  0.5140
 8869TIP3    H248023   5.774   3.041   0.550 -2.4361  0.2573  1.0995
 8870TIP3   OH248024   0.491   6.106  15.796  0.4449 -0.0035  0.5177
 8870TIP3    H148025   0.457   6.018  15.779  1.0838 -0.0005 -0.9330
 8870TIP3    H248026   0.435   6.140  15.865 -0.8552 -0.9579 -0.0209
 8871TIP3   OH248027   4.169   1.728  13.009 -0.8957  0.2514  0.4705
 8871TIP3    H148028   4.201   1.817  12.994 -0.9118  0.1053 -0.4867
 8871TIP3    H248029   4.146   1.695  12.922  1.3550 -1.5575  0.4558
 8872TIP3   OH248030   6.812   0.845  12.534  0.0821 -0.3501 -0.3077
 8872TIP3    H148031   6.871   0.911  12.499 -1.0234  0.1659 -1.2516
 8872TIP3    H248032   6.869   0.769  12.551  1.6233  1.1644  1.9854
 8873TIP3   OH248033   3.908   6.142   5.713 -0.2070  0.0798 -0.2975
 8873TIP3    H148034   3.942   6.101   5.633  0.4672  0.7737 -0.3707
 8873TIP3    H248035   3.986   6.169   5.762 -0.5756 -1.2529  1.0985
 8874TIP3   OH248036   1.122   2.709  14.250 -0.0407  0.1386  0.4874
 8874TIP3    H148037   1.199   2.760  14.275  0.7361 -1.5661  1.7994
 8874TIP3    H248038   1.154   2.647  14.184 -0.1701 -0.8419  1.3242
 8875TIP3   OH248039   6.746   5.057  17.073  0.0014 -0.2983 -0.2088
 8875TIP3    H148040   6.717   5.068  17.164 -0.3281  1.3224 -0.4871
 8875TIP3    H248041   6.834   5.020  17.081  0.5987  1.2214  0.8433
 8876TIP3   OH248042   3.765   2.014   1.740 -0.0147  0.4219  0.0005
 8876TIP3    H148043   3.822   2.082   1.777  0.4493  0.1627 -0.2269
 8876TIP3    H248044   3.803   1.932   1.771 -0.3634  0.2479 -0.0236
 8877TIP3   OH248045   0.743   3.387  13.219  0.2792  0.2166 -0.3001
 8877TIP3    H148046   0.736   3.306  13.269  1.1328  0.7442  0.7177
 8877TIP3    H248047   0.663   3.390  13.166  1.4080 -2.6385 -2.4476
 8878TIP3   OH248048   5.123   2.400  15.168 -0.3312 -0.3141 -0.0536
 8878TIP3    H148049   5.127   2.336  15.240  2.2202  1.2175  1.3121
 8878TIP3    H248050   5.083   2.477  15.207  1.4445  0.6710 -0.0877
 8879TIP3   OH248051   4.173   0.238   2.528 -1.1706  0.3862 -0.6348
 8879TIP3    H148052   4.219   0.159   2.497 -0.3896  1.3236 -1.9647
 8879TIP3    H248053   4.203   0.307   2.469 -1.9315  1.6646  0.4410
 8880TIP3   OH248054   4.611   4.045   2.055  0.0622  0.2343 -0.0574
 8880TIP3    H148055   4.531   4.028   2.104  1.0103  0.3314  1.5767
 8880TIP3    H248056   4.665   4.097   2.114  1.6605 -0.4997 -0.8336
 8881TIP3   OH248057   0.808   6.778  13.403 -0.4976  0.5898 -0.2504
 8881TIP3    H148058   0.863   6.822  13.339 -0.9576  2.3877  0.5144
 8881TIP3    H248059   0.866   6.758  13.476 -0.5046  1.0289 -0.1176
 8882TIP3   OH248060   2.806   1.357  13.487  0.0733 -0.3558 -0.0221
 8882TIP3    H148061   2.716   1.331  13.467 -0.0944  1.0062 -1.2350
 8882TIP3    H248062   2.860   1.288  13.448 -0.4005  0.0324 -1.4440
 8883TIP3   OH248063   1.156   3.283   2.754 -0.0287 -0.0770  0.5152
 8883TIP3    H148064   1.070   3.286   2.794  0.3645  0.8442  1.3485
 8883TIP3    H248065   1.174   3.374   2.730  0.8823 -0.1895  0.7338
 8884TIP3   OH248066   4.263   5.660   2.784 -0.6448  0.5705 -0.2217
 8884TIP3    H148067   4.270   5.580   2.732  0.2928  0.2857  0.3143
 8884TIP3    H248068   4.321   5.722   2.739 -0.4550  0.5722  0.0209
 8885TIP3   OH248069   3.524   5.038  14.677  0.5828  0.4142 -0.1707
 8885TIP3    H148070   3.545   5.071  14.764 -1.8242  2.5777 -0.2847
 8885TIP3    H248071   3.432   5.013  14.682 -0.1276  2.2288 -2.4793
 8886TIP3   OH248072   0.700   5.375   3.694  0.4451 -0.0282 -0.7766
 8886TIP3    H148073   0.699   5.350   3.602 -0.0250  0.3086 -0.8634
 8886TIP3    H248074   0.694   5.470   3.694  2.4292  0.1519 -0.4567
 8887TIP3   OH248075   0.111   1.379  17.106  0.4036  0.0591  0.1279
 8887TIP3    H148076   0.168   1.303  17.112  0.3223  0.0109  0.2862
 8887TIP3    H248077   0.033   1.347  17.060 -0.5659 -0.5092  2.0719
 8888TIP3   OH248078   5.650   0.020   3.191  0.8480 -0.2140  0.3874
 8888TIP3    H148079   5.694  -0.014   3.113 -0.3458  2.2425 -1.4900
 8888TIP3    H248080   5.718   0.067   3.238  1.1257  0.1672 -0.3729
 8889TIP3   OH248081   6.302   3.726   6.696 -0.6299 -0.4778 -0.0921
 8889TIP3    H148082   6.280   3.815   6.666 -0.4476 -0.4628 -0.1785
 8889TIP3    H248083   6.295   3.732   6.791 -0.4004 -0.3119 -0.0842
 8890TIP3   OH248084   1.219   2.139   2.915 -0.0161 -0.2563  0.1688
 8890TIP3    H148085   1.232   2.135   3.009 -1.5805 -1.2601  0.3699
 8890TIP3    H248086   1.204   2.048   2.889  0.9115 -0.0676 -1.1509
 8891TIP3   OH248087   6.670   5.735  14.027 -0.2584  0.1730 -0.4058
 8891TIP3    H148088   6.613   5.735  14.104  1.1647 -1.3808  0.7183
 8891TIP3    H248089   6.610   5.749  13.953 -2.0417 -0.9107  0.7517
 8892TIP3   OH248090   5.096   2.072   0.183  0.1925 -0.2957  0.1100
 8892TIP3    H148091   5.142   2.150   0.152  1.2492 -1.9950 -3.0455
 8892TIP3    H248092   5.151   1.999   0.156 -3.4900 -2.4276 -2.5543
 8893TIP3   OH248093   1.360   5.541  15.723  0.4939  0.7037  0.3994
 8893TIP3    H148094   1.282   5.595  15.708 -1.2372 -1.4246  1.0364
 8893TIP3    H248095   1.433   5.601  15.717 -1.2887  3.0982  1.1571
 8894TIP3   OH248096   4.159   3.097   0.684 -0.1064 -0.2771 -0.6730
 8894TIP3    H148097   4.203   3.180   0.665 -0.1625  0.0789  0.6147
 8894TIP3    H248098   4.230   3.036   0.703 -0.1093 -0.1284 -0.1754
 8895TIP3   OH248099   4.333   2.994   3.635  0.4614  0.0006 -0.5184
 8895TIP3    H148100   4.274   3.069   3.627  1.2680  0.7177  0.1282
 8895TIP3    H248101   4.419   3.033   3.651  0.6116 -1.0818  1.5784
 8896TIP3   OH248102   3.635   6.226  14.673 -0.2074  0.2045  0.3461
 8896TIP3    H148103   3.661   6.175  14.597 -1.9091 -0.0367 -0.1110
 8896TIP3    H248104   3.621   6.315  14.639  0.6638  0.4911  0.7185
 8897TIP3   OH248105   5.816   1.646  14.561  0.4269 -0.5534  0.4545
 8897TIP3    H148106   5.864   1.708  14.505  0.2951 -0.9484 -0.1076
 8897TIP3    H248107   5.728   1.643  14.523  0.4406 -1.1043  0.4585
 8898TIP3   OH248108   2.533   5.556  11.800  0.2727 -0.1952 -0.0666
 8898TIP3    H148109   2.562   5.547  11.709 -0.0082  0.0341 -0.1800
 8898TIP3    H248110   2.609   5.592  11.845  0.4869 -0.5138 -0.1625
 8899TIP3   OH248111   3.283   5.052   5.703 -0.4179 -0.1935 -0.0389
 8899TIP3    H148112   3.257   5.033   5.613 -2.2556  0.2733  0.3372
 8899TIP3    H248113   3.327   4.973   5.733 -1.8237 -1.2469 -0.6443
 8900TIP3   OH248114   4.437   0.367   5.476 -0.1866 -0.2089  0.2534
 8900TIP3    H148115   4.452   0.408   5.561 -1.0665  0.6061  0.0203
 8900TIP3    H248116   4.503   0.406   5.418 -0.0868 -0.1982  0.3738
 8901TIP3   OH248117   2.318   0.034  11.630 -0.3542  0.0432  0.7360
 8901TIP3    H148118   2.322   0.099  11.559 -0.5690  1.1199  1.6896
 8901TIP3    H248119   2.246   0.064  11.686  1.1188  0.3827  2.5228
 8902TIP3   OH248120   3.535   0.726   5.352 -0.2651  0.6183  0.3257
 8902TIP3    H148121   3.537   0.638   5.314 -1.2957  0.6960  0.0573
 8902TIP3    H248122   3.624   0.759   5.341  0.0191 -0.2237  0.0246
 8903TIP3   OH248123   6.043   5.046   0.928  0.4452  0.0996 -0.5139
 8903TIP3    H148124   6.048   5.058   1.023  1.1652 -2.0344 -0.2391
 8903TIP3    H248125   5.949   5.036   0.910  0.1597  1.9513 -0.2805
 8904TIP3   OH248126   1.348   3.808  14.351  0.0824  0.1014  0.2035
 8904TIP3    H148127   1.307   3.746  14.291  0.3842 -0.0832  0.1860
 8904TIP3    H248128   1.298   3.889  14.340  0.0316  0.0199 -0.1737
 8905TIP3   OH248129   5.476   0.416  16.770 -0.5305  0.2929  0.3512
 8905TIP3    H148130   5.416   0.490  16.761 -0.2949  0.5177  0.6211
 8905TIP3    H248131   5.452   0.357  16.699 -0.2611  0.9425 -0.2915
 8906TIP3   OH248132   4.078   4.252  15.575 -0.4285 -0.1642 -0.2122
 8906TIP3    H148133   4.079   4.209  15.661 -2.6811  1.0330  0.5028
 8906TIP3    H248134   4.169   4.276  15.558 -0.2501  2.5377  3.4534
 8907TIP3   OH248135   4.620   3.909  11.788  0.0903  0.1870  0.0855
 8907TIP3    H148136   4.698   3.877  11.743 -1.5826 -3.6303 -0.4500
 8907TIP3    H248137   4.588   3.834  11.838 -3.7976  1.2033 -0.5602
 8908TIP3   OH248138   2.462   2.661  11.620 -0.7677  0.1185  0.2481
 8908TIP3    H148139   2.374   2.676  11.587 -0.6914  1.4401  0.5665
 8908TIP3    H248140   2.452   2.593  11.687 -1.2448 -1.0526 -0.9838
 8909TIP3   OH248141   1.164   5.756   3.657  0.3024  0.4344  0.2268
 8909TIP3    H148142   1.231   5.738   3.723  0.0796  1.5671  0.7828
 8909TIP3    H248143   1.105   5.681   3.661 -0.0224  0.7525  1.7125
 8910TIP3   OH248144   0.579   0.968  12.928 -0.5865  0.0956 -0.2222
 8910TIP3    H148145   0.501   0.969  12.985 -1.5093 -0.8682 -1.4173
 8910TIP3    H248146   0.586   1.058  12.896  0.2595  0.7981  1.7720
 8911TIP3   OH248147   6.440   0.965  17.062  0.0547  0.4890  0.0885
 8911TIP3    H148148   6.386   0.914  17.001  1.0334  0.9426 -1.2190
 8911TIP3    H248149   6.378   1.010  17.118 -0.9325  0.6506 -1.0912
 8912TIP3   OH248150   6.089   1.941  16.889  0.0721 -0.6158 -0.5498
 8912TIP3    H148151   6.031   1.865  16.885  0.2601 -0.8899  1.1331
 8912TIP3    H248152   6.031   2.015  16.903  0.0586 -0.8469  0.7754
 8913TIP3   OH248153   6.124   0.999   5.298  0.5520 -0.2868  0.1722
 8913TIP3    H148154   6.095   1.076   5.347 -1.0882 -0.8276  0.1360
 8913TIP3    H248155   6.137   1.031   5.208  2.0865  0.3887  0.6056
 8914TIP3   OH248156   0.493   3.787  12.131 -0.1156  0.3235  0.1895
 8914TIP3    H148157   0.465   3.765  12.220  1.2899 -1.5492  0.2250
 8914TIP3    H248158   0.519   3.704  12.092 -0.9424  1.0555 -2.1042
 8915TIP3   OH248159   6.491   4.890  16.497 -0.8398  0.5720 -0.0043
 8915TIP3    H148160   6.505   4.867  16.406 -1.5013  0.8383 -0.1805
 8915TIP3    H248161   6.410   4.846  16.522 -0.8124  0.7247  0.3716
 8916TIP3   OH248162   3.954   4.929  12.043  0.3393 -0.2461 -0.1782
 8916TIP3    H148163   3.906   4.875  11.980 -0.7141  0.8272 -0.3259
 8916TIP3    H248164   3.935   4.890  12.128 -1.1276  0.3722 -0.1975
 8917TIP3   OH248165   4.672   3.570   2.188 -0.1685  0.3636 -0.5423
 8917TIP3    H148166   4.657   3.479   2.214  0.1198  0.4017 -0.2193
 8917TIP3    H248167   4.652   3.573   2.095 -0.3414  0.0061 -0.5169
 8918TIP3   OH248168   5.866   4.329  16.317  0.4801  0.0450  0.4226
 8918TIP3    H148169   5.890   4.408  16.366  0.4237  0.0042  0.5153
 8918TIP3    H248170   5.915   4.259  16.359  0.3396 -0.0089  0.4959
 8919TIP3   OH248171   3.593   5.621  12.179 -0.1738 -0.2883 -0.2970
 8919TIP3    H148172   3.544   5.611  12.261 -0.3199 -0.1691 -0.3682
 8919TIP3    H248173   3.642   5.703  12.190 -0.7388  0.0991 -0.6021
 8920TIP3   OH248174   0.890   1.209   2.331  0.7180 -0.0200  0.3832
 8920TIP3    H148175   0.867   1.128   2.286 -0.3741 -0.5198  1.7642
 8920TIP3    H248176   0.974   1.191   2.372  1.1993  0.0772 -0.5343
 8921TIP3   OH248177   1.079   4.431  17.124  0.7517 -0.3300  0.4270
 8921TIP3    H148178   1.118   4.346  17.104 -1.9245 -1.8382  1.1227
 8921TIP3    H248179   1.061   4.469  17.038  1.2447 -0.8112  0.1013
 8922TIP3   OH248180   5.401   5.815  11.543 -0.0792  0.3950 -0.1875
 8922TIP3    H148181   5.331   5.876  11.566  0.0241  0.3408  0.2755
 8922TIP3    H248182   5.481   5.865  11.554 -0.1169  1.2450 -3.1032
 8923TIP3   OH248183   5.495   3.231  15.268  0.1946  0.3170  0.5090
 8923TIP3    H148184   5.407   3.222  15.233  0.0886  0.7578  0.6687
 8923TIP3    H248185   5.485   3.280  15.349  0.6968  1.1875  0.0564
 8924TIP3   OH248186   0.111   4.092  10.636 -0.2375  0.2453  0.0839
 8924TIP3    H148187   0.127   4.085  10.730 -1.0856 -2.2750  0.0952
 8924TIP3    H248188   0.109   4.187  10.620 -0.0923  0.7503  2.5838
 8925TIP3   OH248189   5.581   0.339  13.945  0.1148 -0.0829  0.3454
 8925TIP3    H148190   5.620   0.337  13.858 -0.4284 -0.4147  0.1058
 8925TIP3    H248191   5.487   0.334  13.930  0.0533 -1.4422  0.9953
 8926TIP3   OH248192   2.769   3.490   2.242 -0.6740  0.3357  0.3088
 8926TIP3    H148193   2.801   3.478   2.153  1.0086 -1.2980  1.0781
 8926TIP3    H248194   2.763   3.402   2.278 -0.1510  1.0208  2.1959
 8927TIP3   OH248195   0.674   4.773  16.564  0.1783 -0.3692 -0.3603
 8927TIP3    H148196   0.675   4.793  16.657  0.4930 -2.3071  0.0873
 8927TIP3    H248197   0.730   4.840  16.525  3.3963 -1.8211  1.4088
 8928TIP3   OH248198   6.798   0.652   3.031 -0.2716  0.4176  0.0792
 8928TIP3    H148199   6.761   0.737   3.053  0.1539  0.8534 -0.8588
 8928TIP3    H248200   6.734   0.589   3.064 -0.6289  1.0948  0.7064
 8929TIP3   OH248201   1.427   1.080  13.937  0.0176 -0.0763  0.0487
 8929TIP3    H148202   1.492   1.127  13.990  0.2062  0.0455 -0.2926
 8929TIP3    H248203   1.345   1.128  13.952 -0.3824 -1.1788  1.7896
 8930TIP3   OH248204   4.494   1.289  15.608  0.1771 -0.2062 -0.4093
 8930TIP3    H148205   4.400   1.304  15.603 -0.1093 -1.8760 -0.6933
 8930TIP3    H248206   4.524   1.292  15.517  0.5034  0.8211 -0.2809
 8931TIP3   OH248207   0.100   0.942  12.307 -0.2645  0.3562  0.9284
 8931TIP3    H148208   0.045   1.016  12.282 -1.1529  0.3750  2.7524
 8931TIP3    H248209   0.184   0.958  12.264 -1.3048  0.9374 -0.9670
 8932TIP3   OH248210   1.192   1.276  10.959  0.0632 -0.0826 -0.5417
 8932TIP3    H148211   1.114   1.270  10.905  0.5948  0.5883 -1.4115
 8932TIP3    H248212   1.239   1.352  10.925  1.1456 -0.5336 -0.1045
 8933TIP3   OH248213   2.278   3.193  11.528  0.1315  0.6505  0.0346
 8933TIP3    H148214   2.352   3.248  11.554  1.2992 -0.1635 -1.3996
 8933TIP3    H248215   2.210   3.255  11.501  1.8331  1.5149 -2.6938
 8934TIP3   OH248216   5.180   2.074  16.952  0.2174 -0.2748 -0.5117
 8934TIP3    H148217   5.116   2.146  16.953  0.8282  0.2778 -0.0344
 8934TIP3    H248218   5.208   2.068  16.860  0.8196  0.7195 -0.4183
 8935TIP3   OH248219   4.735   4.848   0.280 -0.1656 -0.0463 -0.5784
 8935TIP3    H148220   4.690   4.889   0.206  1.4006 -0.8696 -2.0500
 8935TIP3    H248221   4.807   4.799   0.241  1.9471  1.0535  1.6373
 8936TIP3   OH248222   4.783   0.070  14.508  0.5275 -0.1260 -0.3696
 8936TIP3    H148223   4.832  -0.012  14.500  0.6180  0.0294 -1.5491
 8936TIP3    H248224   4.847   0.133  14.539  0.4410 -0.4998  0.6178
 8937TIP3   OH248225   4.948   2.773  15.491  0.3819 -0.3768 -0.1616
 8937TIP3    H148226   5.003   2.728  15.427  1.9099 -1.2381  1.6722
 8937TIP3    H248227   4.860   2.770  15.453  1.0697 -1.6360 -1.7873
 8938TIP3   OH248228   3.245   0.830  13.135 -0.2098 -0.3933 -0.2319
 8938TIP3    H148229   3.266   0.810  13.044 -0.8630 -0.8224 -0.2965
 8938TIP3    H248230   3.308   0.897  13.160 -1.1427  1.0577 -1.5658
 8939TIP3   OH248231   1.517   3.774   4.236  0.2045 -0.0945 -0.6683
 8939TIP3    H148232   1.581   3.738   4.174 -2.0232 -0.5247 -2.8959
 8939TIP3    H248233   1.517   3.868   4.218 -0.1431 -0.1650 -1.0580
 8940TIP3   OH248234   4.320   2.569  12.447 -0.1567  1.0195 -0.4001
 8940TIP3    H148235   4.259   2.622  12.499 -0.4328  0.4986 -0.1860
 8940TIP3    H248236   4.277   2.559  12.362 -0.6709  0.1191 -0.0436
 8941TIP3   OH248237   5.790   4.389   0.147  0.9079 -0.3259 -0.6986
 8941TIP3    H148238   5.791   4.322   0.079  1.0987 -0.2558 -0.7645
 8941TIP3    H248239   5.756   4.467   0.104  1.6873 -0.0907 -0.8915
 8942TIP3   OH248240   2.452   6.097  15.502 -0.5591 -0.3261  0.4580
 8942TIP3    H148241   2.517   6.114  15.570  1.0081 -0.0083 -1.0510
 8942TIP3    H248242   2.443   6.180  15.455  0.0197 -1.0739 -1.0499
 8943TIP3   OH248243   1.557   3.035  15.543 -0.2228  0.2460  0.0114
 8943TIP3    H148244   1.574   2.945  15.570  1.1627 -0.1189 -1.8872
 8943TIP3    H248245   1.630   3.086  15.578  1.0895 -0.0802 -2.0447
 8944TIP3   OH248246   6.320   2.572  14.950 -0.0756 -0.0533 -0.0045
 8944TIP3    H148247   6.266   2.610  14.881 -0.6385 -0.1934  0.3440
 8944TIP3    H248248   6.360   2.647  14.993  2.4653 -0.0432 -2.1443
 8945TIP3   OH248249   3.805   3.029  12.700 -0.1858  0.0463 -0.0077
 8945TIP3    H148250   3.829   3.113  12.663 -0.3332 -0.3066 -0.9227
 8945TIP3    H248251   3.887   2.992  12.733 -0.4040  1.4283  2.3209
 8946TIP3   OH248252   3.720   2.351  12.211 -0.4497 -0.6447 -0.0140
 8946TIP3    H148253   3.775   2.353  12.133 -1.4101 -1.0679 -0.7090
 8946TIP3    H248254   3.774   2.394  12.279  0.7400 -1.0745 -0.6568
 8947TIP3   OH248255   0.189   4.394  11.333 -0.4593 -0.7877 -0.2821
 8947TIP3    H148256   0.122   4.443  11.380 -0.1435  1.0677 -1.6303
 8947TIP3    H248257   0.145   4.363  11.254  0.1868  0.3287 -1.1085
 8948TIP3   OH248258   6.697   4.160  12.885 -0.3090 -0.4298  0.7669
 8948TIP3    H148259   6.741   4.090  12.934  1.1772  0.0186  0.1262
 8948TIP3    H248260   6.617   4.119  12.852 -0.2930 -1.3359  1.7910
 8949TIP3   OH248261   4.522   2.952   4.829  0.2185 -0.7306 -0.0710
 8949TIP3    H148262   4.489   2.872   4.870  0.1609 -0.5956  0.1406
 8949TIP3    H248263   4.529   3.015   4.900  0.2626 -0.5448 -0.2403
 8950TIP3   OH248264   6.420   4.131  16.483  0.4234 -0.0047  0.1419
 8950TIP3    H148265   6.400   4.171  16.399 -5.1696  0.8245  1.4929
 8950TIP3    H248266   6.430   4.037  16.464  1.8126  0.4440 -1.6132
 8951TIP3   OH248267   1.202   4.041   1.833 -0.3205  0.5740  0.1736
 8951TIP3    H148268   1.241   4.007   1.914  1.2966  1.1592 -0.3186
 8951TIP3    H248269   1.154   3.966   1.797 -1.3424  0.3979  1.8069
 8952TIP3   OH248270   0.005   2.781   4.187  0.4184  0.3746 -0.2267
 8952TIP3    H148271  -0.048   2.769   4.109 -0.5130 -1.4392  0.6275
 8952TIP3    H248272  -0.032   2.858   4.230 -0.7818 -0.1783 -0.2431
 8953TIP3   OH248273   2.868   5.956  12.029  0.4867  0.3460 -0.0103
 8953TIP3    H148274   2.834   6.006  11.955  1.2894  0.8046 -0.0883
 8953TIP3    H248275   2.904   5.876  11.989 -1.2445 -0.5589  0.1692
 8954TIP3   OH248276   0.596   4.122  14.843  0.2847 -0.2929 -0.1321
 8954TIP3    H148277   0.664   4.088  14.902  0.4068 -0.4026 -0.3333
 8954TIP3    H248278   0.523   4.145  14.901  0.1490 -1.0252 -0.0040
 8955TIP3   OH248279   1.430   5.740   5.957 -0.3118 -0.4336  0.8182
 8955TIP3    H148280   1.489   5.813   5.936  1.1653 -1.5607  0.8288
 8955TIP3    H248281   1.404   5.757   6.048  2.5203 -1.4374  1.9480
 8956TIP3   OH248282   1.582   4.441   5.419  0.0486 -0.2992  0.0117
 8956TIP3    H148283   1.614   4.528   5.395 -0.4040 -0.3298 -0.7158
 8956TIP3    H248284   1.569   4.396   5.336 -1.7203 -0.3387  0.2708
 8957TIP3   OH248285   1.500   4.540  15.597  0.0434  0.0421  0.1192
 8957TIP3    H148286   1.448   4.496  15.664  0.3396  1.5796  1.4276
 8957TIP3    H248287   1.456   4.520  15.515 -0.9912 -0.9583  0.8911
 8958TIP3   OH248288   6.111   0.560   6.051 -0.1413 -0.1683  0.0622
 8958TIP3    H148289   6.038   0.509   6.015  0.3427 -0.6527 -0.2549
 8958TIP3    H248290   6.163   0.496   6.100  0.1574  0.1434  0.1593
 8959TIP3   OH248291   1.932   0.761  12.827  0.6776  0.2161  0.0512
 8959TIP3    H148292   1.879   0.834  12.860  1.0500 -0.6236  2.7636
 8959TIP3    H248293   1.919   0.691  12.891 -0.5416 -2.6035 -2.9756
 8960TIP3   OH248294   1.629   0.396  12.047 -0.6521 -0.1665  0.1513
 8960TIP3    H148295   1.698   0.336  12.018  1.9448  2.2457  0.8750
 8960TIP3    H248296   1.646   0.409  12.140 -0.4865  2.3314 -0.1531
 8961TIP3   OH248297   3.245   0.921   2.619 -0.6082 -0.1272 -0.1105
 8961TIP3    H148298   3.316   0.860   2.600 -1.7340 -1.4493 -0.2159
 8961TIP3    H248299   3.222   0.959   2.534 -0.7963 -0.5876 -0.2717
 8962TIP3   OH248300   3.385   3.451  13.052 -0.1052 -0.0187 -0.1030
 8962TIP3    H148301   3.381   3.531  13.000 -1.2910  0.9416  1.3896
 8962TIP3    H248302   3.333   3.470  13.130 -0.0121 -2.0801  0.5279
 8963TIP3   OH248303   5.481   5.221   1.781 -0.5134 -1.0691 -0.3035
 8963TIP3    H148304   5.397   5.262   1.763 -0.1305  0.0613  0.4162
 8963TIP3    H248305   5.514   5.266   1.859  0.4332 -1.9891 -0.1457
 8964TIP3   OH248306   1.036   1.702  12.490  0.2315 -0.8630 -0.5860
 8964TIP3    H148307   0.996   1.756  12.421 -0.6315 -0.1078  0.4705
 8964TIP3    H248308   1.074   1.766  12.551  2.9273 -1.5228 -1.3974
 8965TIP3   OH248309   4.102   5.125  14.196  0.9832 -0.5093  0.5205
 8965TIP3    H148310   4.021   5.131  14.146  1.9020 -0.8420 -1.0558
 8965TIP3    H248311   4.075   5.086  14.280 -0.1760 -2.7101 -0.7977
 8966TIP3   OH248312   1.994   4.109  14.170 -0.2753  0.4140 -0.1265
 8966TIP3    H148313   1.951   4.181  14.125 -1.0975  1.6686  2.5080
 8966TIP3    H248314   1.923   4.059  14.211  0.4554 -0.4683  0.1190
 8967TIP3   OH248315   5.100   3.080  14.214 -0.4369 -0.1870  0.0286
 8967TIP3    H148316   5.109   2.999  14.163 -0.8216 -0.2234  0.0167
 8967TIP3    H248317   5.162   3.141  14.174  0.3477 -0.6839  0.4637
 8968TIP3   OH248318   2.961   1.602  14.427  0.1241  0.3897  0.3643
 8968TIP3    H148319   3.025   1.583  14.496  0.3640  0.9760  0.3051
 8968TIP3    H248320   2.935   1.515  14.395  2.6563  0.1029 -1.2383
 8969TIP3   OH248321   6.372   6.089   0.234  0.1504  0.2387  0.2316
 8969TIP3    H148322   6.356   6.087   0.140 -0.7232  1.7348  0.3146
 8969TIP3    H248323   6.336   6.006   0.266  0.6834 -0.3987 -0.7709
 8970TIP3   OH248324   5.529   3.485  12.182  0.7684  0.2958 -0.7233
 8970TIP3    H148325   5.536   3.431  12.102  1.0176  1.0027 -1.1868
 8970TIP3    H248326   5.446   3.460  12.220  0.8232 -0.3366 -0.9992
 8971TIP3   OH248327   2.392   4.147   3.834 -0.5322  0.0429 -0.1373
 8971TIP3    H148328   2.467   4.204   3.815 -2.5810  2.8007 -0.5047
 8971TIP3    H248329   2.378   4.157   3.928 -0.2027 -0.8734  0.0265
 8972TIP3   OH248330   2.315   2.515   5.376 -0.0296 -0.2123  0.3192
 8972TIP3    H148331   2.224   2.512   5.407  0.5945  0.3678  2.3898
 8972TIP3    H248332   2.344   2.424   5.377 -0.8540 -0.5338 -1.3635
 8973TIP3   OH248333   0.033   0.806  15.334 -0.3071 -0.0961 -0.0590
 8973TIP3    H148334   0.066   0.786  15.422  0.4436  1.3160  0.0052
 8973TIP3    H248335  -0.060   0.783  15.338  0.3408 -3.1137  0.1015
 8974TIP3   OH248336   2.651   6.786   2.305  0.5448 -0.1204 -0.1274
 8974TIP3    H148337   2.663   6.876   2.275  1.0403  0.2300  1.0640
 8974TIP3    H248338   2.740   6.755   2.321  0.3114 -0.4414  0.5585
 8975TIP3   OH248339   6.676   1.020  12.121 -0.1263 -0.3731  0.1232
 8975TIP3    H148340   6.650   0.968  12.197 -2.2859  0.5404  0.0979
 8975TIP3    H248341   6.725   0.959  12.065  0.9516 -1.2299  1.9161
 8976TIP3   OH248342   2.769   1.376   1.686  0.2011  0.1370  0.1883
 8976TIP3    H148343   2.695   1.401   1.631  0.1173 -1.0877 -0.2935
 8976TIP3    H248344   2.775   1.281   1.677  3.0592  0.3517 -1.4093
 8977TIP3   OH248345   5.790   4.523  14.482  0.2728  0.0336 -0.1211
 8977TIP3    H148346   5.865   4.552  14.534  0.9905 -0.1805 -1.0126
 8977TIP3    H248347   5.817   4.439  14.445 -0.8574 -0.6217  0.4669
 8978TIP3   OH248348   6.377   6.084  15.884  0.7889 -0.5552  0.2653
 8978TIP3    H148349   6.328   6.026  15.943  1.3738  0.1559  1.4854
 8978TIP3    H248350   6.394   6.162  15.936  2.2313 -0.3228 -0.5076
 8979TIP3   OH248351   6.237   1.251   5.985 -0.0145  0.2598 -0.7092
 8979TIP3    H148352   6.262   1.158   5.989 -1.3727 -0.0737  1.1532
 8979TIP3    H248353   6.159   1.257   6.040  0.6710  2.7348  0.0848
 8980TIP3   OH248354   4.965   0.493   5.619  0.6698 -0.0889 -0.2677
 8980TIP3    H148355   5.039   0.546   5.647  0.2506  0.9796 -1.1128
 8980TIP3    H248356   4.971   0.490   5.524  0.0256 -0.5810 -0.3054
 8981TIP3   OH248357   0.703   1.503   0.135 -0.9442  0.0439 -0.3872
 8981TIP3    H148358   0.661   1.583   0.169 -1.6102 -0.9946  1.3489
 8981TIP3    H248359   0.646   1.432   0.164  1.8727 -1.4388  2.0052
 8982TIP3   OH248360   0.378   0.235   4.737 -0.3613 -0.0463  0.0591
 8982TIP3    H148361   0.313   0.274   4.796 -0.8250  0.0608 -0.5203
 8982TIP3    H248362   0.409   0.158   4.784  1.9184  1.9114  2.0723
 8983TIP3   OH248363   0.520   4.700   1.189 -0.4745 -0.0347 -0.3904
 8983TIP3    H148364   0.549   4.627   1.134  0.9633  0.9618 -1.0097
 8983TIP3    H248365   0.598   4.727   1.235 -0.7449  1.7397 -0.9123
 8984TIP3   OH248366   3.183   5.315  13.143  0.1305  0.4838 -0.2780
 8984TIP3    H148367   3.117   5.378  13.112  1.3477  2.1663  0.3805
 8984TIP3    H248368   3.145   5.230  13.124 -1.1696  1.4004 -2.1759
 8985TIP3   OH248369   2.965   1.653   3.425  0.0022  0.3490  0.1786
 8985TIP3    H148370   2.993   1.610   3.344  0.0660  1.0016 -0.1507
 8985TIP3    H248371   2.934   1.739   3.397 -1.3722  0.0293  0.6631
 8986TIP3   OH248372   2.047   0.995  11.760  0.0184  0.0880  0.1400
 8986TIP3    H148373   2.040   1.085  11.727  0.7516  0.3989  0.8121
 8986TIP3    H248374   1.994   0.995  11.840 -0.8832 -0.3826 -0.4389
 8987TIP3   OH248375   4.838   4.348   0.297 -0.5294  0.3841  0.3579
 8987TIP3    H148376   4.768   4.384   0.351  0.3771  0.4632  1.5191
 8987TIP3    H248377   4.913   4.343   0.355 -0.0654 -1.4809 -0.3140
 8988TIP3   OH248378   0.628   0.060   2.054 -0.0465  0.0925  0.0368
 8988TIP3    H148379   0.681   0.139   2.064  0.1147 -0.2970  3.3832
 8988TIP3    H248380   0.539   0.094   2.043  0.3365  0.7286 -1.2350
 8989TIP3   OH248381   0.141   3.192   5.071  0.5489 -0.3817  0.2667
 8989TIP3    H148382   0.051   3.162   5.084  0.2616  0.4264  0.1984
 8989TIP3    H248383   0.195   3.116   5.092 -0.0682 -0.3898  1.9816
 8990TIP3   OH248384   6.494   3.613  11.933  0.4692 -0.1076  0.1404
 8990TIP3    H148385   6.511   3.539  11.875  0.0611 -0.2367  0.1801
 8990TIP3    H248386   6.568   3.671  11.920  1.9478 -1.5253  1.7284
 8991TIP3   OH248387   4.203   3.619  15.003  0.2779  0.0058 -0.1506
 8991TIP3    H148388   4.173   3.708  14.981 -0.9542 -0.6323 -1.2178
 8991TIP3    H248389   4.168   3.565  14.932  0.2145 -1.4802  0.9906
 8992TIP3   OH248390   2.264   1.744   0.389  0.2293 -0.3875 -0.4257
 8992TIP3    H148391   2.182   1.719   0.345 -0.2100 -0.4432  0.4131
 8992TIP3    H248392   2.309   1.799   0.325 -1.9383  2.4011  0.2663
 8993TIP3   OH248393   1.585   1.088  17.022  0.0356 -0.5715  0.2978
 8993TIP3    H148394   1.508   1.137  16.993 -0.2412 -0.7698  0.6873
 8993TIP3    H248395   1.604   1.122  17.109  1.2042  0.4249 -0.3158
 8994TIP3   OH248396   1.759   2.027  11.145  0.2494 -0.0544  1.3251
 8994TIP3    H148397   1.704   1.960  11.104 -0.0547  0.0696  1.5347
 8994TIP3    H248398   1.789   2.081  11.071 -3.2875  2.4734  1.5072
 8995TIP3   OH248399   4.822   5.493   1.441 -0.8071  0.1776  0.0856
 8995TIP3    H148400   4.744   5.495   1.385  0.0693 -1.2687 -1.2663
 8995TIP3    H248401   4.894   5.515   1.382  0.1101 -1.0648  0.6980
 8996TIP3   OH248402   5.007   0.812   3.983 -0.1756 -0.3263  0.2102
 8996TIP3    H148403   4.989   0.734   4.035 -2.5134 -0.5018 -0.7441
 8996TIP3    H248404   5.058   0.869   4.041 -0.4151 -1.6026  1.7216
 8997TIP3   OH248405   4.239   3.640  14.631  0.0801 -0.0717  0.1890
 8997TIP3    H148406   4.319   3.588  14.627  0.7306  0.7522  1.5390
 8997TIP3    H248407   4.193   3.621  14.550  0.8158 -1.8853  0.1600
 8998TIP3   OH248408   4.929   2.839  16.122  0.1274 -0.5966  0.0000
 8998TIP3    H148409   4.965   2.773  16.062  1.1559  1.5088 -1.8750
 8998TIP3    H248410   5.006   2.876  16.165 -0.2978  0.2218  0.0644
 8999TIP3   OH248411   5.439   2.099   4.441  0.0995  0.2016 -0.0058
 8999TIP3    H148412   5.351   2.119   4.409  1.1920  3.6583 -1.2511
 8999TIP3    H248413   5.478   2.048   4.370 -0.5064 -0.3715  0.0610
 9000TIP3   OH248414   2.293   2.879   4.400 -0.1244 -0.0378 -0.1858
 9000TIP3    H148415   2.285   2.808   4.463 -0.8622 -0.3480 -0.6128
 9000TIP3    H248416   2.202   2.902   4.377 -0.0342  2.5531  1.5845
 9001TIP3   OH248417   2.063   5.504  10.934 -0.9946  0.2815  0.0625
 9001TIP3    H148418   2.155   5.527  10.920 -0.2120 -2.7604 -0.7115
 9001TIP3    H248419   2.025   5.502  10.847 -0.8941 -1.4611  0.0108
 9002TIP3   OH248420   6.458   5.206   1.609 -0.0473 -0.4392  0.6688
 9002TIP3    H148421   6.422   5.119   1.625 -1.8569 -0.0779 -1.0008
 9002TIP3    H248422   6.401   5.265   1.657 -1.6130  0.1114 -1.6969
 9003TIP3   OH248423   6.281   2.776   2.937  0.5997 -0.0936  0.4378
 9003TIP3    H148424   6.352   2.840   2.935  0.2915  0.2606 -1.8970
 9003TIP3    H248425   6.215   2.811   2.878  0.1117 -2.1889 -0.3696
 9004TIP3   OH248426   6.370   0.640   0.088  0.5241  0.1713  0.2985
 9004TIP3    H148427   6.450   0.618   0.041 -0.4286 -0.6184 -1.0483
 9004TIP3    H248428   6.341   0.556   0.125  0.1177  0.3797  0.4575
 9005TIP3   OH248429   4.034   5.169  15.579 -0.4669 -0.1417  0.1012
 9005TIP3    H148430   3.968   5.224  15.537 -0.0267  1.2020  1.0725
 9005TIP3    H248431   4.117   5.197  15.541 -0.3301 -0.8824 -0.1515
 9006TIP3   OH248432   6.261   2.760  14.748 -0.1564 -0.0000 -0.0139
 9006TIP3    H148433   6.272   2.741  14.654  1.5398  0.4369  0.0693
 9006TIP3    H248434   6.181   2.812  14.753 -1.1106 -1.3005 -1.0322
 9007TIP3   OH248435   5.093   2.790   1.119 -0.4827  0.2376  0.2633
 9007TIP3    H148436   5.021   2.733   1.148 -0.2551  1.0847  2.7266
 9007TIP3    H248437   5.104   2.853   1.191  0.7265  2.0366 -1.3915
 9008TIP3   OH248438   2.369   5.578   4.362 -0.1632 -0.1798 -0.0672
 9008TIP3    H148439   2.398   5.638   4.432 -0.0549 -0.7023  0.3436
 9008TIP3    H248440   2.379   5.629   4.282  1.0384 -0.0208  0.1538
 9009TIP3   OH248441   0.618   1.606   3.846 -0.1293  0.3529 -0.1411
 9009TIP3    H148442   0.541   1.648   3.809  0.1358 -0.3546 -1.5740
 9009TIP3    H248443   0.584   1.529   3.892 -0.3087  0.2275 -0.4812
 9010TIP3   OH248444   3.947   5.156   4.308  0.0791 -0.6883  0.1956
 9010TIP3    H148445   4.001   5.234   4.294 -0.4685 -0.0887  1.2248
 9010TIP3    H248446   3.943   5.113   4.223 -2.2853  2.1411 -1.2911
 9011TIP3   OH248447   5.415   3.627  16.545  0.2832 -0.2800 -0.2335
 9011TIP3    H148448   5.471   3.689  16.591 -1.0985 -0.0922  1.2679
 9011TIP3    H248449   5.467   3.600  16.469  1.5217  1.5276 -0.0876
 9012TIP3   OH248450   5.781   5.799  11.329  0.4169 -0.2188  0.2609
 9012TIP3    H148451   5.690   5.818  11.306 -0.0957 -1.5198  1.1119
 9012TIP3    H248452   5.832   5.844  11.262 -0.8395  0.6279 -0.1684
 9013TIP3   OH248453   0.056   4.588  13.867 -0.3673  0.6065 -0.1824
 9013TIP3    H148454  -0.005   4.616  13.798 -0.4918 -0.4239 -0.5123
 9013TIP3    H248455   0.032   4.641  13.943 -1.6012  0.3129 -0.3454
 9014TIP3   OH248456   3.579   1.635  15.552 -0.5869  0.2953  0.2049
 9014TIP3    H148457   3.606   1.559  15.501 -1.4784 -1.3458  2.0736
 9014TIP3    H248458   3.659   1.687  15.562  0.1097 -0.5568 -0.7899
 9015TIP3   OH248459   2.453   0.981   0.770  0.8489  0.1477 -0.1982
 9015TIP3    H148460   2.503   1.046   0.721 -0.0013  1.0895  0.1612
 9015TIP3    H248461   2.381   0.957   0.712  2.6619 -2.6502 -1.5306
 9016TIP3   OH248462   1.465   2.439   0.149  0.2810  0.8700  0.3162
 9016TIP3    H148463   1.418   2.359   0.174  1.3014  0.5548  1.3112
 9016TIP3    H248464   1.554   2.410   0.132  0.1996  1.4988 -1.3306
 9017TIP3   OH248465   6.553   5.177  15.925  0.0897  0.0736  0.2898
 9017TIP3    H148466   6.478   5.124  15.953  0.1270 -0.1578 -0.0348
 9017TIP3    H248467   6.515   5.258  15.891  0.0668  0.5472  1.3972
 9018TIP3   OH248468   5.465   5.840   2.199 -0.3148  0.2810 -0.1548
 9018TIP3    H148469   5.469   5.770   2.134 -0.2869  1.2227 -1.2026
 9018TIP3    H248470   5.555   5.871   2.206 -0.2653 -0.0190  0.5751
 9019TIP3   OH248471   3.790   0.998   0.894  0.4580  0.5978 -0.0111
 9019TIP3    H148472   3.834   1.080   0.868 -0.6422  1.8101  1.7092
 9019TIP3    H248473   3.823   0.981   0.982  0.8780 -1.0083 -0.4553
 9020TIP3   OH248474   0.186   3.900  13.162 -0.3314 -0.1166  0.1295
 9020TIP3    H148475   0.123   3.963  13.198 -1.7564 -1.6696  0.5129
 9020TIP3    H248476   0.158   3.888  13.071  1.0049  1.0706 -0.4571
 9021TIP3   OH248477   1.373   5.142   4.517 -0.4047 -0.1399  0.1938
 9021TIP3    H148478   1.430   5.075   4.479 -0.2347  0.3053 -0.3407
 9021TIP3    H248479   1.313   5.093   4.574 -1.4828 -1.0013 -1.5847
 9022TIP3   OH248480   3.080   2.232  11.612 -0.4593 -0.3910 -0.1121
 9022TIP3    H148481   3.012   2.271  11.667  1.3259  1.7037  0.7769
 9022TIP3    H248482   3.065   2.268  11.525 -0.0390  0.7778  0.2729
 9023TIP3   OH248483   5.964   3.740  16.628  0.5087 -0.1903 -0.2680
 9023TIP3    H148484   5.994   3.824  16.663 -0.9700  0.8980 -1.5316
 9023TIP3    H248485   5.869   3.749  16.620  0.5504 -1.1645 -2.5033
 9024TIP3   OH248486   0.973   5.380   2.024 -0.2302  0.3427  0.5034
 9024TIP3    H148487   0.981   5.350   1.933  1.3962 -1.0677  1.0553
 9024TIP3    H248488   0.976   5.476   2.018 -0.9956  0.3071 -0.9723
 9025TIP3   OH248489   4.492   5.534   3.889 -0.8723  0.3422 -0.4129
 9025TIP3    H148490   4.460   5.501   3.805  0.1256  3.6199 -2.2385
 9025TIP3    H248491   4.585   5.509   3.890 -1.2423 -1.1076  0.5493
 9026TIP3   OH248492   1.261   1.061  12.635 -0.1248  0.4180 -0.1530
 9026TIP3    H148493   1.340   1.115  12.632  0.7650 -0.8114  0.4529
 9026TIP3    H248494   1.284   0.987  12.691 -1.2146 -0.7466 -1.1798
 9027TIP3   OH248495   1.244   5.038   5.823 -0.2993  0.0573 -0.1732
 9027TIP3    H148496   1.313   5.070   5.765 -0.1296 -0.1916 -0.1124
 9027TIP3    H248497   1.180   5.108   5.826 -1.1666 -0.6053 -2.0473
 9028TIP3   OH248498   5.019   4.308  12.724 -0.2858 -0.8990 -0.0038
 9028TIP3    H148499   4.994   4.313  12.631  1.5986 -0.6876 -0.5499
 9028TIP3    H248500   5.088   4.374  12.733 -1.9325  0.6635  2.1114
 9029TIP3   OH248501   1.360   1.276   3.102 -0.9935 -0.4307 -0.1677
 9029TIP3    H148502   1.275   1.243   3.074 -0.3734  0.4825 -3.5491
 9029TIP3    H248503   1.354   1.371   3.094  0.9672 -0.4271 -2.9089
 9030TIP3   OH248504   0.465   3.570  14.753  0.2828  0.7114  0.4245
 9030TIP3    H148505   0.445   3.535  14.840  2.4580 -0.4024  0.5478
 9030TIP3    H248506   0.393   3.539  14.698  0.6318 -1.6092  1.1401
 9031TIP3   OH248507   5.077   5.479  13.938 -0.2987  0.5925  0.2390
 9031TIP3    H148508   5.118   5.505  13.855 -0.5766  1.5963  0.3951
 9031TIP3    H248509   5.115   5.394  13.958  0.8379  0.9686 -0.2135
 9032TIP3   OH248510   5.381   3.092   4.559  0.2126 -0.5377  0.4266
 9032TIP3    H148511   5.368   3.052   4.473  0.6301 -2.2955  1.1450
 9032TIP3    H248512   5.297   3.080   4.604 -0.0993  0.6314  0.2034
 9033TIP3   OH248513   0.517   3.894  11.800 -0.2350  0.1048 -0.0047
 9033TIP3    H148514   0.465   3.829  11.752  2.2397 -0.9209 -1.4881
 9033TIP3    H248515   0.476   3.978  11.778 -1.7784 -0.7019 -0.3728
 9034TIP3   OH248516   5.314   6.183  15.612  0.3729  0.0019 -0.3679
 9034TIP3    H148517   5.391   6.128  15.601  0.0805 -0.5076  0.1261
 9034TIP3    H248518   5.293   6.212  15.523  1.4100  0.5389 -0.4600
 9035TIP3   OH248519   5.356   5.330  16.526  0.0291  0.0068  0.1807
 9035TIP3    H148520   5.302   5.252  16.538 -0.7373  0.4880 -0.0251
 9035TIP3    H248521   5.327   5.390  16.595  0.2836  0.2818  0.0496
 9036TIP3   OH248522   0.723   2.838   6.133 -0.1338  0.1044 -0.5276
 9036TIP3    H148523   0.694   2.751   6.162  0.0546 -0.6271 -2.3661
 9036TIP3    H248524   0.683   2.899   6.194  1.0204 -1.3416  1.8063
 9037TIP3   OH248525   1.192   1.243  11.840  0.3054 -0.1310  0.3447
 9037TIP3    H148526   1.160   1.175  11.900  0.4985  0.1884  0.8188
 9037TIP3    H248527   1.114   1.294  11.818  0.7301  2.0328  3.2648
 9038TIP3   OH248528   0.829   4.157  13.373 -0.0331 -0.1027  0.1866
 9038TIP3    H148529   0.771   4.124  13.305  0.0380  1.4870 -0.7053
 9038TIP3    H248530   0.787   4.132  13.455 -1.0275 -0.5506 -0.4437
 9039TIP3   OH248531   2.812   0.415   6.299 -0.5936 -0.2849 -0.3669
 9039TIP3    H148532   2.809   0.503   6.336 -0.8283 -0.4121 -0.0778
 9039TIP3    H248533   2.786   0.357   6.371  0.7142 -0.7098 -0.2000
 9040TIP3   OH248534   5.209   6.739  16.609 -0.2797 -0.3675  0.2001
 9040TIP3    H148535   5.223   6.675  16.679 -0.9097 -0.2738  0.4267
 9040TIP3    H248536   5.296   6.759  16.576  0.0253 -0.4518  0.9317
 9041TIP3   OH248537   2.701   1.237  14.745 -0.0985 -0.4758 -0.9051
 9041TIP3    H148538   2.788   1.200  14.759  0.3782  0.7116 -0.5983
 9041TIP3    H248539   2.662   1.240  14.833 -0.4488 -0.9529 -1.0338
 9042TIP3   OH248540   3.229   6.528  16.605  0.7593 -0.2656 -0.7664
 9042TIP3    H148541   3.148   6.570  16.633  2.1730  0.5965  2.3992
 9042TIP3    H248542   3.274   6.596  16.554  0.3810 -0.0474 -0.8163
 9043TIP3   OH248543   5.090   5.812  11.600  0.1597  0.1618 -0.1152
 9043TIP3    H148544   5.135   5.736  11.634  1.1902  0.8902  0.2034
 9043TIP3    H248545   5.041   5.780  11.524  0.9723 -0.7107 -0.2812
 9044TIP3   OH248546   5.659   1.179  16.531  1.3118  0.3210  0.6781
 9044TIP3    H148547   5.612   1.179  16.614  0.3459  0.3829  0.1497
 9044TIP3    H248548   5.664   1.087  16.506 -0.8818  0.4560 -0.5207
 9045TIP3   OH248549   0.516   1.873  16.279 -0.5701  0.2380 -0.1787
 9045TIP3    H148550   0.492   1.784  16.254  0.0925 -0.1170  0.4071
 9045TIP3    H248551   0.433   1.921  16.282 -0.8430 -0.1509 -1.2703
 9046TIP3   OH248552   3.565   1.264   2.199  0.4558  1.0624 -0.3111
 9046TIP3    H148553   3.528   1.268   2.111 -1.1541 -0.6748  0.1997
 9046TIP3    H248554   3.591   1.172   2.209 -0.7896  0.8498  1.4951
 9047TIP3   OH248555   5.258   4.050  14.521 -0.5492  0.1283 -0.0544
 9047TIP3    H148556   5.225   3.961  14.528  0.3380 -0.1991  0.1517
 9047TIP3    H248557   5.182   4.106  14.534 -1.1637 -0.6023 -0.4583
 9048TIP3   OH248558   2.494   1.790   1.720  0.2153 -0.2542  0.1304
 9048TIP3    H148559   2.538   1.795   1.805 -1.9339 -0.2177  1.3143
 9048TIP3    H248560   2.489   1.881   1.690  1.4742 -0.3169 -0.3689
 9049TIP3   OH248561   2.185   6.622  11.282 -0.3391 -0.1016 -0.2373
 9049TIP3    H148562   2.187   6.572  11.363 -0.6517  0.3726  0.0652
 9049TIP3    H248563   2.093   6.625  11.257 -0.1488 -1.0965 -1.1523
 9050TIP3   OH248564   3.593   1.353  12.261  0.1191 -0.6704 -0.3309
 9050TIP3    H148565   3.545   1.279  12.225 -1.4812  0.8618 -1.5216
 9050TIP3    H248566   3.636   1.318  12.339 -0.9447 -2.7243 -0.5910
 9051TIP3   OH248567   2.061   2.335  16.580 -0.4060 -0.1623 -0.6783
 9051TIP3    H148568   2.115   2.403  16.540  0.7697 -1.0824 -0.6935
 9051TIP3    H248569   2.117   2.295  16.646 -0.8767 -1.4979 -1.0534
 9052TIP3   OH248570   6.185   5.718  15.505 -0.1931  0.4741  0.1243
 9052TIP3    H148571   6.130   5.788  15.470  0.5554  1.3547  0.6716
 9052TIP3    H248572   6.127   5.671  15.566 -0.1115  1.9803  1.4276
 9053TIP3   OH248573   4.527   3.802   5.269 -0.8091  0.0263 -0.2165
 9053TIP3    H148574   4.557   3.885   5.232 -0.0179  0.0728  0.4874
 9053TIP3    H248575   4.552   3.807   5.361 -2.2185 -0.3211  0.2117
 9054TIP3   OH248576   6.487   6.066  13.462  0.3607 -0.2710 -0.1098
 9054TIP3    H148577   6.404   6.112  13.450  0.2990 -0.3450  0.0304
 9054TIP3    H248578   6.511   6.036  13.374  0.0387 -0.5946 -0.0891
 9055TIP3   OH248579   3.640   5.279  12.488 -0.4906 -0.2985  0.9793
 9055TIP3    H148580   3.560   5.331  12.500 -0.0504  0.6391  0.0868
 9055TIP3    H248581   3.693   5.331  12.427 -0.7370 -2.5774 -1.3653
 9056TIP3   OH248582   6.738   1.038   0.954 -0.1675  0.1451 -0.2803
 9056TIP3    H148583   6.660   1.054   0.901 -1.7628  1.1640  2.1750
 9056TIP3    H248584   6.755   1.121   0.999  0.6062 -0.8420  1.3662
 9057TIP3   OH248585   1.887   2.157  15.587 -0.0341 -0.2175 -0.3478
 9057TIP3    H148586   1.911   2.157  15.680 -0.1781 -0.6590 -0.3091
 9057TIP3    H248587   1.792   2.147  15.587 -0.1983  1.1209 -0.5117
 9058TIP3   OH248588   1.095   3.534   1.418 -0.5073 -0.1415  0.1988
 9058TIP3    H148589   1.089   3.444   1.452 -0.5443 -0.1034  0.2928
 9058TIP3    H248590   1.039   3.585   1.476 -0.8790 -0.1436 -0.1508
 9059TIP3   OH248591   0.927   2.082   2.788  0.1532 -0.0647 -0.0109
 9059TIP3    H148592   0.944   2.176   2.788 -1.4030  0.3068 -2.3641
 9059TIP3    H248593   0.972   2.050   2.710  1.5138 -1.5068  1.3103
 9060TIP3   OH248594   1.374   6.807   2.047  0.1531 -0.1693  0.4474
 9060TIP3    H148595   1.385   6.871   2.117 -0.0520  0.5919 -0.1944
 9060TIP3    H248596   1.298   6.754   2.074  0.6667 -0.5232  1.2502
 9061TIP3   OH248597   0.701   0.833  12.538 -0.1583  0.0555 -0.0433
 9061TIP3    H148598   0.724   0.747  12.505 -0.3918  0.2840 -0.8161
 9061TIP3    H248599   0.757   0.846  12.615 -1.8283 -1.8119  1.6182
 9062TIP3   OH248600   1.344   0.657  12.023 -0.0424  0.6002  0.4837
 9062TIP3    H148601   1.362   0.567  11.994  0.4440  0.5078  1.0529
 9062TIP3    H248602   1.250   0.669  12.008 -0.1139 -0.0067  0.4210
 9063TIP3   OH248603   2.226   3.416  14.199 -0.0168 -0.5377 -0.2020
 9063TIP3    H148604   2.241   3.326  14.169 -1.0323 -0.7992  0.0179
 9063TIP3    H248605   2.313   3.451  14.216  0.3630 -1.7316  0.4080
 9064TIP3   OH248606   3.690   5.251   0.602  0.1493 -0.3013  0.6570
 9064TIP3    H148607   3.717   5.160   0.604 -0.0209 -0.3401  1.4805
 9064TIP3    H248608   3.679   5.271   0.509 -0.0169 -1.1775  0.4854
 9065TIP3   OH248609   2.797   4.744  15.556 -0.6018  0.6270 -0.3758
 9065TIP3    H148610   2.776   4.837  15.553 -2.4995  0.2317 -0.8184
 9065TIP3    H248611   2.783   4.712  15.467  2.7276  0.3643 -0.9588
 9066TIP3   OH248612   2.319   6.738   5.138  0.1113 -0.0564  0.2934
 9066TIP3    H148613   2.332   6.765   5.047 -0.4112  0.3540  0.3294
 9066TIP3    H248614   2.322   6.643   5.137  2.2441 -0.0339  0.1889
 9067TIP3   OH248615   2.912   0.290   3.529 -0.0933  0.5509 -0.2702
 9067TIP3    H148616   2.908   0.266   3.437  0.2382 -0.6254  0.0065
 9067TIP3    H248617   2.827   0.331   3.547 -0.8554 -0.8149 -0.6710
 9068TIP3   OH248618   4.331   6.761   5.668  0.3635 -0.3749 -0.4601
 9068TIP3    H148619   4.310   6.755   5.761 -0.2203 -0.0409 -0.5609
 9068TIP3    H248620   4.380   6.843   5.659  2.4779 -1.5407 -0.1023
 9069TIP3   OH248621   0.021   5.179  16.579 -0.6206  0.1082  0.1696
 9069TIP3    H148622  -0.066   5.165  16.541 -0.8364 -2.6405  1.4812
 9069TIP3    H248623   0.074   5.107  16.547  0.1662 -0.2767  2.1915
 9070TIP3   OH248624   6.499   2.872   3.185 -0.2852  0.4164 -0.0684
 9070TIP3    H148625   6.505   2.894   3.278 -0.9809 -0.1165  0.1090
 9070TIP3    H248626   6.537   2.948   3.140  0.9504  0.2682  0.6715
 9071TIP3   OH248627   6.621   0.003   2.058  0.3337 -0.7791  0.3411
 9071TIP3    H148628   6.705  -0.009   2.015  0.6664  2.1192 -0.0073
 9071TIP3    H248629   6.556  -0.023   1.993  0.9085  0.7899 -0.9153
 9072TIP3   OH248630   2.852   4.163   3.144  0.2420  0.7612  0.0693
 9072TIP3    H148631   2.799   4.190   3.219  0.4138  1.6428 -0.1126
 9072TIP3    H248632   2.932   4.214   3.152  1.2267 -0.8045  0.5274
 9073TIP3   OH248633   5.977   1.989  14.860 -0.2559  0.0278 -0.5334
 9073TIP3    H148634   5.972   2.057  14.927  2.1152  1.2658 -1.4774
 9073TIP3    H248635   5.911   1.925  14.885 -1.7716  2.0841  1.0686
 9074TIP3   OH248636   6.145   1.804   2.990  0.4221  0.2040  0.6098
 9074TIP3    H148637   6.168   1.803   3.083 -0.0570 -1.4024  0.7469
 9074TIP3    H248638   6.150   1.712   2.963  1.6291  0.7557 -1.2439
 9075TIP3   OH248639   5.148   4.592  13.558 -0.5221 -0.1868  0.0665
 9075TIP3    H148640   5.097   4.640  13.493  0.0317  1.6339  0.8901
 9075TIP3    H248641   5.229   4.642  13.566 -1.3258  0.8132  3.4708
 9076TIP3   OH248642   1.768   4.684  15.465 -0.0300  0.2262 -0.0919
 9076TIP3    H148643   1.686   4.636  15.479  0.0047 -0.2680 -1.4309
 9076TIP3    H248644   1.753   4.733  15.384  0.3382  1.6317  0.6547
 9077TIP3   OH248645   0.091   1.566  13.370  0.3653  0.4091  0.4124
 9077TIP3    H148646   0.012   1.621  13.367  0.3342  0.3359 -0.1445
 9077TIP3    H248647   0.058   1.478  13.388  0.2700  0.2802 -0.3827
 9078TIP3   OH248648   3.155   0.671   1.787  0.4813 -0.0282  0.0023
 9078TIP3    H148649   3.121   0.760   1.789  1.2498  0.2651  0.5617
 9078TIP3    H248650   3.118   0.633   1.708  0.7857  1.0547 -0.6801
 9079TIP3   OH248651   0.037   2.114   2.709  0.1350  0.2680  0.7371
 9079TIP3    H148652  -0.058   2.127   2.708  0.1428  0.7722 -2.2024
 9079TIP3    H248653   0.049   2.021   2.687  0.3045  0.5486 -0.4190
 9080TIP3   OH248654   3.219   2.705   6.246  0.1783 -0.5691 -0.0242
 9080TIP3    H148655   3.305   2.715   6.286  0.7270 -2.9389 -0.4519
 9080TIP3    H248656   3.167   2.658   6.312 -0.8517  0.9426  0.2783
 9081TIP3   OH248657   3.395   5.010  16.609 -0.1847 -0.3292  0.4686
 9081TIP3    H148658   3.353   4.941  16.559 -0.9537  0.1612  0.4234
 9081TIP3    H248659   3.487   4.983  16.616 -0.5936 -1.6286  0.9459
 9082TIP3   OH248660   3.169   3.714  14.193  0.4646 -0.2862  0.1533
 9082TIP3    H148661   3.073   3.715  14.188  0.5170  0.2569 -0.9389
 9082TIP3    H248662   3.189   3.634  14.242 -0.4169 -2.6625 -3.0008
 9083TIP3   OH248663   2.881   1.587   3.666 -0.0627  0.3352  0.1619
 9083TIP3    H148664   2.902   1.605   3.575 -0.5869 -3.3659 -0.8372
 9083TIP3    H248665   2.804   1.641   3.683 -0.5603  0.3719 -1.9331
 9084TIP3   OH248666   0.601   5.093   2.434 -0.2274 -0.3291  0.2345
 9084TIP3    H148667   0.587   5.048   2.517 -0.9644 -1.0306 -0.2597
 9084TIP3    H248668   0.666   5.040   2.388  0.6350  0.3865  0.5961
 9085TIP3   OH248669   0.266   0.888  12.749 -0.4665 -0.4983 -0.4769
 9085TIP3    H148670   0.327   0.838  12.803  1.0337  0.3153 -1.3618
 9085TIP3    H248671   0.180   0.867  12.786  0.2232 -2.4666  0.1854
 9086TIP3   OH248672   4.228   6.336   0.926 -0.2804 -0.1279  0.1009
 9086TIP3    H148673   4.268   6.336   1.013 -0.5159  2.1993  0.2697
 9086TIP3    H248674   4.301   6.354   0.866 -0.3574 -0.2944 -0.0437
 9087TIP3   OH248675   6.203   2.939  15.179 -0.4861 -0.0244 -0.2997
 9087TIP3    H148676   6.212   2.989  15.098 -1.9756  0.0186 -0.4690
 9087TIP3    H248677   6.211   2.847  15.152 -0.0583  0.0265 -0.3478
 9088TIP3   OH248678   1.740   3.700   1.287 -0.0994  0.7395  0.5399
 9088TIP3    H148679   1.797   3.773   1.262 -1.7104  2.0490  0.5466
 9088TIP3    H248680   1.655   3.740   1.301 -0.6103 -0.8645  2.4315
 9089TIP3   OH248681   5.786   1.827   4.941  0.1363  0.5511  0.1834
 9089TIP3    H148682   5.843   1.877   4.884  0.3539  0.3188  0.1963
 9089TIP3    H248683   5.739   1.768   4.883 -0.1779  0.8235  0.1591
 9090TIP3   OH248684   6.199   5.485  10.950  0.7151 -0.6071  0.2656
 9090TIP3    H148685   6.236   5.523  11.030 -0.2664 -1.9261  1.3893
 9090TIP3    H248686   6.118   5.534  10.936  1.5044  0.4910 -0.6973
 9091TIP3   OH248687   3.661   2.089  11.888 -0.0594 -0.2553 -0.2197
 9091TIP3    H148688   3.630   2.049  11.807 -0.4582 -2.5010  0.9429
 9091TIP3    H248689   3.756   2.089  11.880 -0.0804 -0.7954 -0.5714
 9092TIP3   OH248690   3.799   5.889   0.719  0.3914  0.2900 -0.1354
 9092TIP3    H148691   3.831   5.850   0.638 -2.8764 -3.4313  0.0890
 9092TIP3    H248692   3.818   5.823   0.786 -1.4409  1.0108  1.1619
 9093TIP3   OH248693   4.915   1.775   4.628 -0.2682  0.3686  0.0743
 9093TIP3    H148694   4.823   1.781   4.601 -0.7346 -3.0548  0.3664
 9093TIP3    H248695   4.911   1.739   4.717  1.3944  1.9298  0.8462
 9094TIP3   OH248696   2.843   3.434  10.835 -0.1995  1.0076 -0.4700
 9094TIP3    H148697   2.902   3.477  10.774  1.3314  1.4933  1.2790
 9094TIP3    H248698   2.899   3.403  10.906 -1.8381  0.0186  0.4634
 9095TIP3   OH248699   3.836   2.969   0.011 -0.4752  0.7534  0.1948
 9095TIP3    H148700   3.743   2.989  -0.001 -0.7797 -1.2265 -1.1191
 9095TIP3    H248701   3.844   2.946   0.104 -2.0105 -2.2388 -0.3300
 9096TIP3   OH248702   6.762   4.464  11.434  0.5117  0.3043 -0.3537
 9096TIP3    H148703   6.732   4.552  11.458  0.2417  0.4346 -1.1336
 9096TIP3    H248704   6.682   4.413  11.423  0.5928 -1.3016  4.2352
 9097TIP3   OH248705   1.370   4.012   2.105 -0.3199 -0.3682  0.2857
 9097TIP3    H148706   1.391   3.935   2.157 -1.1124  0.3661  1.7652
 9097TIP3    H248707   1.355   4.082   2.169 -1.9009  0.4430 -0.8697
 9098TIP3   OH248708   2.930   1.208   5.702  0.9721  0.0634  0.1081
 9098TIP3    H148709   2.932   1.293   5.746  2.8680 -0.3015  0.8206
 9098TIP3    H248710   2.903   1.227   5.613 -1.8168  0.9758  1.0400
 9099TIP3   OH248711   1.047   5.074  13.978  0.0690  0.2181  0.0382
 9099TIP3    H148712   1.065   5.157  14.022  0.0847  1.8114 -2.7110
 9099TIP3    H248713   1.003   5.100  13.897  0.4443 -2.4620 -1.1148
 9100TIP3   OH248714   4.635   4.046  14.933 -0.1486 -0.1817 -0.0874
 9100TIP3    H148715   4.703   3.983  14.908 -0.8687 -0.6184 -1.0363
 9100TIP3    H248716   4.555   3.994  14.939 -0.2504  0.1413  2.0331
 9101TIP3   OH248717   6.693   6.451  14.804  0.0723 -0.1147  0.2112
 9101TIP3    H148718   6.666   6.360  14.790 -1.2918  0.5821 -2.1363
 9101TIP3    H248719   6.779   6.457  14.763  0.2488 -0.3924  0.5383
 9102TIP3   OH248720   1.925   5.875  15.907  0.3257  0.1827  0.2958
 9102TIP3    H148721   1.989   5.938  15.872  1.4263 -0.0902  1.7013
 9102TIP3    H248722   1.954   5.860  15.997 -0.8007 -1.1891  0.4585
 9103TIP3   OH248723   3.056   4.691  13.946 -0.3652  0.5847 -0.7842
 9103TIP3    H148724   3.073   4.622  14.010  0.3913 -0.5989 -2.2018
 9103TIP3    H248725   3.100   4.768  13.982 -0.2229  0.0229  0.2693
 9104TIP3   OH248726   2.572   0.464  12.372 -0.8336 -0.2305 -0.1732
 9104TIP3    H148727   2.491   0.489  12.329 -0.3961  0.3124 -0.7030
 9104TIP3    H248728   2.618   0.547  12.387  0.2636 -0.6340 -1.2007
 9105TIP3   OH248729   0.458   3.048  13.808  0.0188  0.1272  0.4906
 9105TIP3    H148730   0.467   3.138  13.777 -0.7474 -0.1041 -0.4672
 9105TIP3    H248731   0.509   3.045  13.889 -1.6915  2.0216  1.7384
 9106TIP3   OH248732   3.287   2.494  14.783  0.1539  0.2168  0.1491
 9106TIP3    H148733   3.362   2.502  14.842 -0.7537 -0.8171  1.4933
 9106TIP3    H248734   3.309   2.420  14.726  1.6783  2.1167 -1.8745
 9107TIP3   OH248735   6.611   0.884   3.969 -0.1876 -0.5410 -0.2779
 9107TIP3    H148736   6.554   0.839   3.907  0.0817 -1.3504  0.0463
 9107TIP3    H248737   6.603   0.977   3.946 -2.2071 -0.5507  0.2368
 9108TIP3   OH248738   4.251   5.251  12.999 -0.2116  0.1312 -0.0060
 9108TIP3    H148739   4.250   5.158  13.022 -0.7046 -0.5347 -2.3753
 9108TIP3    H248740   4.285   5.253  12.909  0.4710  2.3313  0.2403
 9109TIP3   OH248741   3.745   1.982  14.723 -0.4625 -0.5931 -0.2776
 9109TIP3    H148742   3.720   2.047  14.789 -0.0651  0.9383 -1.5831
 9109TIP3    H248743   3.663   1.957  14.682 -0.3933  1.1682 -1.6029
 9110TIP3   OH248744   5.358   0.112  11.716  0.6194 -0.0343  0.7731
 9110TIP3    H148745   5.384   0.145  11.630  0.7967  0.5544  1.0469
 9110TIP3    H248746   5.381   0.019  11.713 -0.7048 -0.3591 -0.3265
 9111TIP3   OH248747   6.486   0.869  13.180 -0.1417  0.8204 -0.1721
 9111TIP3    H148748   6.488   0.937  13.247 -0.1069  0.5108  0.1488
 9111TIP3    H248749   6.523   0.910  13.102  1.3234  0.7254  0.4347
 9112TIP3   OH248750   3.428   5.049   0.703  0.0501 -0.1728 -0.1682
 9112TIP3    H148751   3.448   5.053   0.797 -2.4636 -1.7167  0.5533
 9112TIP3    H248752   3.446   5.137   0.671  1.9660  0.1180  1.5161
 9113TIP3   OH248753   3.250   3.117   5.688 -0.4658 -0.4985  0.5445
 9113TIP3    H148754   3.245   3.210   5.712  0.2375  0.2503 -1.9163
 9113TIP3    H248755   3.331   3.086   5.729 -1.3923 -0.4614  2.5351
 9114TIP3   OH248756   1.951   4.557   5.585  0.4110 -0.2033  0.4866
 9114TIP3    H148757   1.866   4.561   5.541 -0.0542 -0.2778  1.3628
 9114TIP3    H248758   1.997   4.636   5.556 -0.5949  0.7013  1.2973
 9115TIP3   OH248759   0.573   5.266   6.656 -0.2345  0.1175  0.5302
 9115TIP3    H148760   0.624   5.189   6.631 -2.1304 -0.8026 -0.7771
 9115TIP3    H248761   0.494   5.230   6.696 -2.0596  1.1978 -1.8021
 9116TIP3   OH248762   1.703   5.578   1.755  0.5845  0.2278 -0.2794
 9116TIP3    H148763   1.729   5.521   1.828 -1.9373  0.8211  1.2330
 9116TIP3    H248764   1.659   5.520   1.693  0.4425  0.0927 -0.0545
 9117TIP3   OH248765   1.131   3.097   5.536  0.4173 -0.3682  0.0842
 9117TIP3    H148766   1.077   3.076   5.460  1.0883  2.5945 -1.3699
 9117TIP3    H248767   1.069   3.133   5.600  0.1301 -0.9960  0.1717
 9118TIP3   OH248768   4.288   5.073   4.775  0.1784  0.4980 -0.8486
 9118TIP3    H148769   4.350   5.086   4.704  1.4451 -0.3466  0.0579
 9118TIP3    H248770   4.209   5.040   4.733  1.1518 -0.6796 -1.8121
 9119TIP3   OH248771   6.058   5.034   1.508  0.2644  0.1690  0.4580
 9119TIP3    H148772   6.150   5.013   1.492 -0.1505  0.6962 -3.6921
 9119TIP3    H248773   6.011   4.953   1.490 -0.2642  0.7399 -0.8850
 9120TIP3   OH248774   2.729   3.169  16.131  0.1189 -0.9526 -0.4810
 9120TIP3    H148775   2.659   3.105  16.140 -1.4267  0.0215 -3.7504
 9120TIP3    H248776   2.807   3.118  16.111 -0.1819 -1.9395  0.7612
 9121TIP3   OH248777   6.558   4.573  16.073  0.7557  0.2178  0.1939
 9121TIP3    H148778   6.481   4.595  16.126 -0.9335 -2.2326 -1.0746
 9121TIP3    H248779   6.607   4.511  16.127  0.0377 -0.8136 -0.3226
 9122TIP3   OH248780   0.270   0.560   4.194  0.0468 -0.5294 -0.4653
 9122TIP3    H148781   0.216   0.623   4.241  0.3871 -0.4398 -0.1911
 9122TIP3    H248782   0.349   0.608   4.169  0.5544 -0.9799  0.2269
 9123TIP3   OH248783   3.570   5.367   1.035 -0.1259  0.1803 -0.3387
 9123TIP3    H148784   3.503   5.319   1.083  1.2673 -1.8770 -0.3149
 9123TIP3    H248785   3.589   5.444   1.089 -1.4337  0.0458  0.3341
 9124TIP3   OH248786   5.238   1.962  12.142 -0.3135 -0.2399  0.2334
 9124TIP3    H148787   5.225   1.943  12.049  2.7992 -0.4601 -0.2769
 9124TIP3    H248788   5.288   1.887  12.175 -0.7251  0.1915  1.9287
 9125TIP3   OH248789   1.403   5.021  12.128 -0.0904  0.1215 -0.6193
 9125TIP3    H148790   1.442   4.938  12.156  1.4758  0.5483 -1.3962
 9125TIP3    H248791   1.469   5.087  12.148 -0.9527  1.0655 -0.8068
 9126TIP3   OH248792   2.029   3.826  14.907 -0.0117 -0.4009 -0.0379
 9126TIP3    H148793   2.107   3.785  14.944  0.8582  0.8128 -0.4743
 9126TIP3    H248794   1.982   3.862  14.982  1.0378  0.8384  0.0682
 9127TIP3   OH248795   2.659   3.448   1.375  0.5561  0.2746 -0.1586
 9127TIP3    H148796   2.739   3.497   1.391 -0.5821  1.5327  2.2543
 9127TIP3    H248797   2.663   3.374   1.435 -0.2109  0.5581  0.2679
 9128TIP3   OH248798   4.496   4.406  16.391  0.4221  0.0268  0.9572
 9128TIP3    H148799   4.541   4.352  16.327 -0.7533 -0.4417  0.4963
 9128TIP3    H248800   4.514   4.496  16.363 -0.8522 -0.1635 -0.6413
 9129TIP3   OH248801   6.209   0.093  12.209  0.6236 -0.5469  0.3675
 9129TIP3    H148802   6.275   0.071  12.144 -1.8338 -1.2301 -2.0778
 9129TIP3    H248803   6.258   0.132  12.281  3.4756  0.6761 -2.0482
 9130TIP3   OH248804   4.512   1.042   2.771 -0.4245 -0.0152 -0.4376
 9130TIP3    H148805   4.491   0.960   2.816  1.6400 -0.8167 -0.8296
 9130TIP3    H248806   4.574   1.086   2.829 -1.8479  1.5487 -0.0078
 9131TIP3   OH248807   3.978   0.120  15.264  0.2164 -0.6267 -0.5359
 9131TIP3    H148808   4.031   0.040  15.269 -0.1444 -0.8377 -0.0481
 9131TIP3    H248809   3.939   0.117  15.176 -1.0750 -1.8234  0.0309
 9132TIP3   OH248810   3.193   0.725  17.024  0.1109 -0.4474 -0.0426
 9132TIP3    H148811   3.218   0.634  17.007 -0.1504 -0.2668 -1.4753
 9132TIP3    H248812   3.218   0.772  16.945  2.4411  1.2214  1.5560
 9133TIP3   OH248813   0.236   6.244   2.242 -0.2694  0.7541 -0.4468
 9133TIP3    H148814   0.201   6.225   2.329  0.0676  2.3248  0.0676
 9133TIP3    H248815   0.328   6.265   2.257 -0.0925  0.5645 -1.2458
 9134TIP3   OH248816   6.183   6.009  13.649  0.2983  0.0988 -0.2369
 9134TIP3    H148817   6.260   5.998  13.704  0.6050 -0.9370 -0.8339
 9134TIP3    H248818   6.131   6.076  13.693  0.8458 -0.2237  0.9457
 9135TIP3   OH248819   1.456   5.316  16.478 -0.0306 -0.8806  0.3035
 9135TIP3    H148820   1.463   5.392  16.420  0.8284 -0.3213  1.1144
 9135TIP3    H248821   1.366   5.320  16.510 -0.3923 -0.9591 -0.6526
 9136TIP3   OH248822   2.870   4.711  16.576 -0.2375 -0.2357  0.4617
 9136TIP3    H148823   2.843   4.719  16.668 -0.8192 -2.1888  0.5217
 9136TIP3    H248824   2.812   4.643  16.541 -0.0922  0.5513 -1.3945
 9137TIP3   OH248825   6.660   4.543  16.706 -0.0037 -0.0235 -0.1590
 9137TIP3    H148826   6.736   4.569  16.757  0.4932  0.3363 -1.0584
 9137TIP3    H248827   6.675   4.581  16.619 -1.3695  0.3458 -0.2631
 9138TIP3   OH248828   6.287   5.914  13.970  0.0997  0.0277  0.3654
 9138TIP3    H148829   6.223   5.984  13.970  0.6238  0.5103  0.5719
 9138TIP3    H248830   6.353   5.941  13.906  0.5087 -0.0853  0.7354
 9139TIP3   OH248831   0.468   4.148   2.199 -0.7006 -0.0185 -0.6874
 9139TIP3    H148832   0.477   4.188   2.286 -0.0752  0.8523 -1.1351
 9139TIP3    H248833   0.467   4.054   2.216 -3.5687  0.1237  0.5494
 9140TIP3   OH248834   6.398   1.089  13.848  0.8506 -0.4577  0.1499
 9140TIP3    H148835   6.487   1.056  13.863  1.1885  0.1996 -0.3856
 9140TIP3    H248836   6.342   1.015  13.871  1.4211 -0.2627  2.5003
 9141TIP3   OH248837   0.359   1.238   2.552  0.0796  0.0686 -0.9935
 9141TIP3    H148838   0.391   1.166   2.606 -0.4869 -0.2787 -1.1127
 9141TIP3    H248839   0.329   1.304   2.615  3.6637  1.7098 -0.7731
 9142TIP3   OH248840   3.167   2.271   5.183 -0.1111  0.1814 -0.4434
 9142TIP3    H148841   3.200   2.225   5.106 -0.7727  2.4723 -2.2180
 9142TIP3    H248842   3.077   2.241   5.193 -0.4306  0.7737 -1.3857
 9143TIP3   OH248843   0.743   1.104   6.139  0.2289 -0.1419 -0.1613
 9143TIP3    H148844   0.699   1.165   6.199  1.6734  0.9000 -0.1018
 9143TIP3    H248845   0.675   1.040   6.115 -1.0540  0.8945  0.5804
 9144TIP3   OH248846   5.436   4.118   0.334 -0.2582 -0.0670 -0.7014
 9144TIP3    H148847   5.454   4.211   0.321  1.7574 -0.1670  0.8004
 9144TIP3    H248848   5.487   4.074   0.267  0.7346 -0.1449  0.0805
 9145TIP3   OH248849   4.436   6.356   0.746 -0.1201  0.5465 -0.0105
 9145TIP3    H148850   4.440   6.445   0.713 -1.8831  0.6605  0.0209
 9145TIP3    H248851   4.485   6.304   0.682 -0.6842  1.2637 -1.0479
 9146TIP3   OH248852   1.992   2.062   6.228 -0.4680  0.2856 -0.1011
 9146TIP3    H148853   2.007   1.972   6.199 -2.3326  0.3185 -1.3320
 9146TIP3    H248854   2.006   2.115   6.150  0.4657  1.0841  0.5766
 9147TIP3   OH248855   0.746   0.941   0.739 -0.4420  0.1072 -0.4211
 9147TIP3    H148856   0.737   0.862   0.687 -0.5395 -0.0450 -0.1743
 9147TIP3    H248857   0.773   1.008   0.676  0.1607 -0.2353 -0.5371
 9148TIP3   OH248858   1.779   4.618   3.079  0.0828 -0.1937 -0.3723
 9148TIP3    H148859   1.852   4.641   3.022  0.8772 -1.3138  0.1357
 9148TIP3    H248860   1.821   4.583   3.158 -0.9907 -2.1539 -0.6124
 9149TIP3   OH248861   6.323   2.090  14.789  0.0466  0.6041 -0.3841
 9149TIP3    H148862   6.368   2.005  14.794  0.2383  0.7498  0.4392
 9149TIP3    H248863   6.315   2.118  14.880  0.7326  1.8701 -0.6902
 9150TIP3   OH248864   5.513   1.232   4.920  0.0615 -0.1812  0.3179
 9150TIP3    H148865   5.565   1.184   4.856  0.2318  1.2746 -0.6797
 9150TIP3    H248866   5.567   1.307   4.944 -1.6044  1.5374 -0.9562
 9151TIP3   OH248867   3.533   5.895   4.224  0.3777  0.1391 -0.7546
 9151TIP3    H148868   3.512   5.985   4.198  0.4221  0.3244 -0.1725
 9151TIP3    H248869   3.568   5.904   4.313  2.1547 -0.2334 -1.3663
 9152TIP3   OH248870   2.711   6.250   2.898  0.0492  0.2914  0.0796
 9152TIP3    H148871   2.705   6.156   2.878 -1.0892  0.0187  1.4961
 9152TIP3    H248872   2.619   6.279   2.903  0.3108  0.9775  1.7472
 9153TIP3   OH248873   5.635   2.383   1.304  0.0541  0.4295  0.8460
 9153TIP3    H148874   5.706   2.411   1.362  0.2436  2.1534 -0.1448
 9153TIP3    H248875   5.604   2.464   1.263 -0.7044 -0.6107 -0.7424
 9154TIP3   OH248876   1.849   1.375  12.420 -0.1235 -0.2360  0.1406
 9154TIP3    H148877   1.932   1.423  12.429 -0.4927  0.6015 -0.7877
 9154TIP3    H248878   1.783   1.443  12.411 -0.7465 -0.9208 -0.5335
 9155TIP3   OH248879   1.907   2.885  14.032  0.5801 -0.0158  0.3084
 9155TIP3    H148880   1.929   2.793  14.017  1.2834  0.3994 -1.3973
 9155TIP3    H248881   1.953   2.932  13.963 -1.0261  1.4842  0.2078
 9156TIP3   OH248882   2.820   4.950   3.660  0.7287 -0.2758 -0.0560
 9156TIP3    H148883   2.752   5.004   3.620  0.7801 -0.4420 -0.3676
 9156TIP3    H248884   2.899   4.970   3.610  0.7457 -0.6480 -0.1811
 9157TIP3   OH248885   3.910   1.611  14.139  0.0001 -0.3132  0.1286
 9157TIP3    H148886   3.962   1.565  14.205  0.4327 -1.8908 -1.2523
 9157TIP3    H248887   3.971   1.676  14.103  0.6820 -1.3822 -0.6895
 9158TIP3   OH248888   3.864   0.146   2.259  0.5345  0.1647 -0.1924
 9158TIP3    H148889   3.950   0.184   2.274 -0.1969  2.4172 -1.2385
 9158TIP3    H248890   3.871   0.056   2.292  3.1035  0.4311  0.1833
 9159TIP3   OH248891   5.908   4.760  15.718  0.3687  0.5430 -0.8529
 9159TIP3    H148892   5.918   4.734  15.810  0.2410  0.5419 -0.8395
 9159TIP3    H248893   5.870   4.683  15.675 -2.7641  1.6357 -0.2625
 9160TIP3   OH248894   2.727   0.126  13.233 -0.4939  0.3984 -0.6322
 9160TIP3    H148895   2.754   0.073  13.158  0.8504 -0.7735  0.6136
 9160TIP3    H248896   2.673   0.068  13.286 -0.0246  0.6695  0.1542
 9161TIP3   OH248897   0.893   0.234  10.428  0.8523  0.5523  0.2544
 9161TIP3    H148898   0.842   0.256  10.350  0.6961  0.6032  0.3711
 9161TIP3    H248899   0.983   0.256  10.404  0.9875 -0.5945 -0.3552
 9162TIP3   OH248900   3.338   2.734  14.522 -0.4878  0.7150  0.1073
 9162TIP3    H148901   3.287   2.661  14.557  0.7204  0.5321  1.5697
 9162TIP3    H248902   3.411   2.745  14.583  0.8003  1.4895 -1.4781
 9163TIP3   OH248903   0.354   1.701   5.533  0.1307  0.0010 -0.5705
 9163TIP3    H148904   0.368   1.730   5.623 -0.9765 -0.6902 -0.1599
 9163TIP3    H248905   0.400   1.766   5.480  2.0074 -0.3318  0.5280
 9164TIP3   OH248906   4.951   4.024   3.855  0.3061  0.0386 -0.2604
 9164TIP3    H148907   4.986   3.970   3.926 -0.0220 -1.0336 -0.9007
 9164TIP3    H248908   4.904   3.963   3.799  0.9879  0.7709 -1.6907
 9165TIP3   OH248909   5.021   1.683   1.918  0.1092  0.1217  0.0050
 9165TIP3    H148910   4.935   1.681   1.875  0.7667 -0.4311 -1.3630
 9165TIP3    H248911   5.003   1.710   2.008 -1.4668  0.2285 -0.3173
 9166TIP3   OH248912   2.445   1.792  14.579 -0.6517 -0.0030  0.1478
 9166TIP3    H148913   2.538   1.807  14.593 -0.2543 -1.1942 -0.9827
 9166TIP3    H248914   2.440   1.747  14.495 -2.4948  2.8405 -1.4435
 9167TIP3   OH248915   0.846   6.790   3.859  0.1256 -0.0502 -0.5151
 9167TIP3    H148916   0.796   6.867   3.886 -0.5855 -0.0243 -1.8251
 9167TIP3    H248917   0.933   6.803   3.898 -0.0251  1.3356 -0.6029
 9168TIP3   OH248918   2.656   6.494   1.653 -0.4493  0.0269 -0.2134
 9168TIP3    H148919   2.723   6.559   1.635 -0.1099 -0.6499 -1.5996
 9168TIP3    H248920   2.599   6.496   1.575 -0.7974 -0.8657 -0.0007
 9169TIP3   OH248921   3.396   2.054   4.359  0.8208  0.2998  0.1063
 9169TIP3    H148922   3.435   2.024   4.276  0.3232 -0.9456  0.3012
 9169TIP3    H248923   3.471   2.078   4.413  1.2721 -0.8755  0.0291
 9170TIP3   OH248924   5.581   5.897  16.993  0.0820 -0.1491 -0.2625
 9170TIP3    H148925   5.656   5.847  16.962  1.8234  2.0913  0.0617
 9170TIP3    H248926   5.618   5.978  17.028 -2.3852  0.4647  1.2378
 9171TIP3   OH248927   5.168   1.244   5.242 -0.2327  0.2870 -0.7858
 9171TIP3    H148928   5.262   1.247   5.224 -0.2313 -0.0144 -0.8381
 9171TIP3    H248929   5.162   1.250   5.338 -0.1133 -0.5198 -0.7188
 9172TIP3   OH248930   4.768   0.418  16.762  0.4325  0.0764 -0.4559
 9172TIP3    H148931   4.822   0.406  16.840 -0.4021  0.7402  0.2371
 9172TIP3    H248932   4.711   0.491  16.783 -1.3096 -1.1037 -0.8581
 9173TIP3   OH248933   2.607   1.194  15.988  1.0403  0.4399  0.2606
 9173TIP3    H148934   2.600   1.139  15.910 -0.8934 -0.2641  0.8748
 9173TIP3    H248935   2.657   1.270  15.959  0.5945  0.0741 -1.5982
 9174TIP3   OH248936   3.235   1.691   4.957 -0.7132  0.5438 -0.2741
 9174TIP3    H148937   3.305   1.703   4.893  0.1185  2.1992  0.8923
 9174TIP3    H248938   3.225   1.776   4.998 -1.3039 -0.4277  1.7218
 9175TIP3   OH248939   5.733   6.576   2.317  0.6821  0.1502  0.8603
 9175TIP3    H148940   5.745   6.658   2.365 -2.7679  0.5854  1.2587
 9175TIP3    H248941   5.699   6.603   2.231  0.5754 -0.8263  0.5814
 9176TIP3   OH248942   3.915   5.069   3.074 -0.8383  0.2541 -0.4070
 9176TIP3    H148943   3.854   5.032   3.010 -0.6043 -1.4155  0.2673
 9176TIP3    H248944   3.924   5.001   3.141  0.3767  1.1840  0.4352
 9177TIP3   OH248945   3.329   0.815   0.796 -0.1116  0.2259  0.1570
 9177TIP3    H148946   3.235   0.815   0.779 -0.1153  1.7813  0.0681
 9177TIP3    H248947   3.343   0.887   0.858  0.5743 -2.1239  2.9845
 9178TIP3   OH248948   2.821   0.551  15.351 -0.4254 -0.3677 -0.1223
 9178TIP3    H148949   2.833   0.478  15.290  1.7093 -0.2301  0.0694
 9178TIP3    H248950   2.904   0.599  15.348 -0.8518  0.5649  1.7057
 9179TIP3   OH248951   1.994   0.515  13.037 -0.5682 -0.4183 -0.0014
 9179TIP3    H148952   1.902   0.541  13.034 -0.3919  0.2288  0.1278
 9179TIP3    H248953   2.037   0.582  13.091 -0.0482 -0.7929  0.0586
 9180TIP3   OH248954   0.925   4.877   5.647  0.4095  0.1006  0.2757
 9180TIP3    H148955   0.890   4.944   5.706  1.0103 -0.6242  1.4912
 9180TIP3    H248956   0.952   4.925   5.569 -0.1615  1.1188  0.6894
 9181TIP3   OH248957   0.549   2.419   0.526  0.7092 -0.1273  0.1502
 9181TIP3    H148958   0.620   2.392   0.467  0.0137 -1.2892 -0.1907
 9181TIP3    H248959   0.484   2.460   0.469  0.5023 -0.2953  0.2633
 9182TIP3   OH248960   5.102   4.890   3.823 -0.0972 -0.1469  0.1632
 9182TIP3    H148961   5.130   4.836   3.749  1.0446 -0.2700  0.6629
 9182TIP3    H248962   5.081   4.827   3.892 -0.2411 -0.0078  0.2471
 9183TIP3   OH248963   1.497   2.530  12.768 -0.3457 -0.4570 -0.3095
 9183TIP3    H148964   1.552   2.546  12.691  0.3612 -0.8144  0.1029
 9183TIP3    H248965   1.465   2.440  12.756 -1.5860  0.0473 -0.9819
 9184TIP3   OH248966   1.457   6.333   6.236 -1.0557 -0.2171 -0.5313
 9184TIP3    H148967   1.369   6.354   6.265 -1.1204  0.8349 -1.4101
 9184TIP3    H248968   1.454   6.240   6.213 -1.5750 -0.5057  0.6744
 9185TIP3   OH248969   2.423   3.384   3.431  0.5518 -0.1923  0.0844
 9185TIP3    H148970   2.461   3.304   3.393  0.9953 -0.2111  0.5596
 9185TIP3    H248971   2.434   3.372   3.525 -1.2557 -0.5152  0.2863
 9186TIP3   OH248972   4.531   0.232  14.868  0.0393  0.6118 -0.3149
 9186TIP3    H148973   4.613   0.228  14.915 -0.1509  0.0323 -0.0251
 9186TIP3    H248974   4.492   0.145  14.879 -0.9386  1.0917  0.1435
 9187TIP3   OH248975   4.298   2.175  13.422  0.5796  0.4010  0.1752
 9187TIP3    H148976   4.251   2.235  13.364  1.2391  1.2499  0.4828
 9187TIP3    H248977   4.322   2.101  13.367 -1.1893 -0.1154  0.0363
 9188TIP3   OH248978   1.239   1.335   4.984  0.3621 -0.2576 -0.2244
 9188TIP3    H148979   1.279   1.376   4.907 -2.5663 -0.0079 -1.7372
 9188TIP3    H248980   1.251   1.241   4.970 -0.5048 -0.2314 -1.2259
 9189TIP3   OH248981   5.317   4.259  12.274 -0.5790  0.3831  0.5745
 9189TIP3    H148982   5.283   4.169  12.271 -0.6063  0.3949  0.5186
 9189TIP3    H248983   5.325   4.285  12.182 -1.9414  0.9453  0.5785
 9190TIP3   OH248984   5.378   5.077  11.227 -0.0439  0.3081  0.2329
 9190TIP3    H148985   5.368   5.152  11.285  2.0743  0.1984  0.8123
 9190TIP3    H248986   5.318   5.095  11.154 -0.1045  2.1952  0.7031
 9191TIP3   OH248987   5.326   3.717   1.268 -0.7269 -0.0142  0.3023
 9191TIP3    H148988   5.350   3.727   1.360 -0.3379  0.2674  0.1761
 9191TIP3    H248989   5.233   3.697   1.269 -0.6787 -0.2258  0.7687
 9192TIP3   OH248990   1.299   5.444  13.424  0.1769  0.2626 -0.4876
 9192TIP3    H148991   1.283   5.456  13.517 -1.0671 -1.9722 -0.3586
 9192TIP3    H248992   1.242   5.508  13.381  0.3584  0.9328  0.2470
 9193TIP3   OH248993   2.391   1.099   5.821  0.0691 -0.0224 -0.0786
 9193TIP3    H148994   2.318   1.040   5.838  0.0057  0.5337  1.7887
 9193TIP3    H248995   2.459   1.070   5.882  0.8404  0.4569 -0.6952
 9194TIP3   OH248996   0.376   0.253   0.699 -0.1128 -0.7863  0.3334
 9194TIP3    H148997   0.364   0.161   0.675 -0.5855 -0.3295 -1.2899
 9194TIP3    H248998   0.392   0.298   0.616 -1.4423  0.8362  0.8986
 9195TIP3   OH248999   4.315   5.021  14.063  0.8632  0.4207  0.3662
 9195TIP3    H149000   4.322   5.056  13.974  0.6368 -0.1840  0.1047
 9195TIP3    H249001   4.240   5.067  14.101  0.1996 -0.1829 -0.1756
 9196TIP3   OH249002   0.048   6.589   0.378 -0.1946 -0.4083  0.0396
 9196TIP3    H149003  -0.017   6.562   0.443  2.6359 -2.4319  2.3510
 9196TIP3    H249004   0.098   6.658   0.421  0.3983 -0.2495 -0.8680
 9197TIP3   OH249005   1.884   0.061  11.779  0.2200 -0.6071 -0.2236
 9197TIP3    H149006   1.977   0.040  11.768  0.2593  0.4034 -2.2447
 9197TIP3    H249007   1.855   0.087  11.691 -2.1057 -1.3724  0.2609
 9198TIP3   OH249008   6.062   2.084   2.147 -0.8102 -0.0084 -0.1751
 9198TIP3    H149009   6.021   2.148   2.205  0.5862 -0.3260  1.2284
 9198TIP3    H249010   6.028   2.106   2.060 -4.1205 -0.4337  0.8720
 9199TIP3   OH249011   1.347   1.634  12.119  0.5517 -0.1115  0.3578
 9199TIP3    H149012   1.370   1.554  12.071 -0.3927  0.2801 -0.7849
 9199TIP3    H249013   1.345   1.607  12.211 -1.2842 -1.8157 -0.1131
 9200TIP3   OH249014   5.084   5.197   5.307 -0.0138 -0.8577 -0.2737
 9200TIP3    H149015   5.126   5.113   5.323 -1.1224 -1.4362 -0.3445
 9200TIP3    H249016   5.147   5.245   5.252  0.9832 -1.3057  0.4505
 9201TIP3   OH249017   5.797   1.396   0.113  0.3021  0.2809 -0.9246
 9201TIP3    H149018   5.766   1.368   0.200  1.4180  1.7106 -0.0150
 9201TIP3    H249019   5.756   1.334   0.052 -1.4207 -0.0852  0.5027
 9202TIP3   OH249020   2.127   2.787   2.271 -0.1365  0.1836  0.4536
 9202TIP3    H149021   2.045   2.777   2.319  0.0217  0.2160  0.7302
 9202TIP3    H249022   2.101   2.820   2.185 -0.3564  0.8210  0.7623
 9203TIP3   OH249023   2.653   4.865   3.864 -0.1641 -0.2429 -0.3156
 9203TIP3    H149024   2.701   4.872   3.782 -1.0695 -0.7877 -0.9124
 9203TIP3    H249025   2.663   4.773   3.890  0.2520 -0.0341  0.2666
 9204TIP3   OH249026   6.230   0.626   2.449  0.1934  0.3183 -0.4672
 9204TIP3    H149027   6.211   0.554   2.388 -0.5541 -0.5644  0.7807
 9204TIP3    H249028   6.145   0.649   2.487  0.7702  0.2024  0.9495
 9205TIP3   OH249029   4.228   2.601   4.345  0.2999 -0.0474 -0.1789
 9205TIP3    H149030   4.229   2.506   4.351 -1.2289 -0.2501 -2.1793
 9205TIP3    H249031   4.160   2.628   4.408  0.9798 -0.2251  0.6472
 9206TIP3   OH249032   6.200   1.453  10.416  0.5370  0.6227  0.2422
 9206TIP3    H149033   6.221   1.371  10.461 -1.3521  0.0710  0.2058
 9206TIP3    H249034   6.272   1.465  10.353  1.0129 -0.8297  0.4740
 9207TIP3   OH249035   4.644   4.315   0.582  0.0427  0.3808 -0.0258
 9207TIP3    H149036   4.593   4.263   0.520 -0.4566  0.0030  0.6808
 9207TIP3    H249037   4.673   4.251   0.648 -1.8724  1.1998  1.7218
 9208TIP3   OH249038   4.572   2.559  12.360 -0.4404 -0.0204  0.1306
 9208TIP3    H149039   4.583   2.614  12.282 -0.6652 -0.7614 -0.4399
 9208TIP3    H249040   4.480   2.571  12.384 -0.4077  0.0986  0.1965
 9209TIP3   OH249041   3.980   2.946   0.524 -0.3739  0.4551  0.0351
 9209TIP3    H149042   3.912   2.943   0.591 -0.5902 -0.5943 -0.2006
 9209TIP3    H249043   4.045   3.008   0.557 -0.9212  0.6497  0.7730
 9210TIP3   OH249044   4.176   3.506   0.336 -0.6900  0.1623  0.6036
 9210TIP3    H149045   4.113   3.483   0.268 -0.5236 -1.0853  0.8454
 9210TIP3    H249046   4.258   3.522   0.288 -0.9069  0.6697  0.3952
 9211TIP3   OH249047   4.240   1.825   5.836 -0.2072  0.1965  0.1958
 9211TIP3    H149048   4.329   1.842   5.806 -0.5161  1.4477 -0.0779
 9211TIP3    H249049   4.249   1.805   5.930  0.1806  2.4392  0.6852
 9212TIP3   OH249050   4.556   6.358   1.009 -0.2053  0.3425  0.4356
 9212TIP3    H149051   4.514   6.365   0.923  0.1540 -1.9857  0.0099
 9212TIP3    H249052   4.486   6.330   1.068 -0.2430  1.0192  0.7221
 9213TIP3   OH249053   0.579   0.379   1.312  0.2205  0.1954  0.2422
 9213TIP3    H149054   0.619   0.296   1.288  1.3647  0.9118 -0.4577
 9213TIP3    H249055   0.495   0.380   1.267  0.6008 -0.1902 -0.4821
 9214TIP3   OH249056   0.311   3.419   5.799 -0.1472  0.1094 -0.0457
 9214TIP3    H149057   0.383   3.453   5.852  0.1877 -0.6280 -0.0130
 9214TIP3    H249058   0.318   3.466   5.716  1.3341 -1.0225 -0.6142
 9215TIP3   OH249059   2.155   5.506   3.157  0.0673 -0.3770  0.3344
 9215TIP3    H149060   2.105   5.456   3.221 -2.4885  0.4967 -0.8501
 9215TIP3    H249061   2.224   5.446   3.129 -0.7679 -1.9584  1.4628
 9216TIP3   OH249062   2.810   5.098  14.380 -0.0129  0.0842 -0.0154
 9216TIP3    H149063   2.846   5.187  14.376  1.3272 -0.4919 -1.2324
 9216TIP3    H249064   2.875   5.048  14.429  0.1392 -0.6226 -0.9137
 9217TIP3   OH249065   3.441   1.156  12.851  0.5471 -0.3497  0.0219
 9217TIP3    H149066   3.416   1.249  12.854  1.4304  0.0531 -2.6219
 9217TIP3    H249067   3.534   1.156  12.870  0.5447 -0.6893  0.0296
 9218TIP3   OH249068   5.946   0.836   3.261 -0.0133  0.4653 -0.1718
 9218TIP3    H149069   6.020   0.786   3.296 -0.5863 -0.5849 -0.4083
 9218TIP3    H249070   5.869   0.782   3.280 -0.3349 -0.3771 -3.2956
 9219TIP3   OH249071   3.270   2.473  12.981  0.1049  0.6044  0.6892
 9219TIP3    H149072   3.366   2.476  12.988  0.0818  0.2676  1.2783
 9219TIP3    H249073   3.240   2.525  13.055 -0.1661 -0.2687  1.2135
 9220TIP3   OH249074   0.029   4.479   3.450 -0.2997 -0.3985 -0.0839
 9220TIP3    H149075  -0.045   4.490   3.391 -0.8210 -2.1284  0.2045
 9220TIP3    H249076   0.103   4.459   3.393 -0.8852 -2.4668 -0.1861
 9221TIP3   OH249077   3.960   2.545  13.396 -0.2209  0.9434  0.5153
 9221TIP3    H149078   3.897   2.609  13.364  1.0808  2.6829  1.2071
 9221TIP3    H249079   4.033   2.599  13.427  1.1355 -0.9351  0.7089
 9222TIP3   OH249080   3.021   4.143   1.788 -0.5174  0.2196  0.4328
 9222TIP3    H149081   2.942   4.109   1.746  0.0535 -1.7014  0.8367
 9222TIP3    H249082   2.989   4.187   1.867 -1.2956  0.7963 -0.1937
 9223TIP3   OH249083   1.459   4.891  11.105 -0.0233  0.4048 -0.1904
 9223TIP3    H149084   1.413   4.863  11.184 -0.5470 -0.5924 -0.8274
 9223TIP3    H249085   1.519   4.959  11.135 -1.1297  0.9648  0.8543
 9224TIP3   OH249086   2.696   1.412   1.127  0.1940 -0.6288 -0.0039
 9224TIP3    H149087   2.756   1.341   1.148  0.7156 -0.3102 -0.3606
 9224TIP3    H249088   2.637   1.417   1.201 -1.0426 -2.6412 -0.7785
 9225TIP3   OH249089   1.837   0.500   0.888  0.1318  0.0657  0.5381
 9225TIP3    H149090   1.853   0.427   0.947 -1.4229  0.8006  1.9435
 9225TIP3    H249091   1.743   0.516   0.894  0.0348  0.6458 -1.6070
 9226TIP3   OH249092   4.927   4.701   4.867 -0.0965 -0.3426 -0.2959
 9226TIP3    H149093   4.960   4.775   4.817 -2.0126 -0.3440 -1.6479
 9226TIP3    H249094   4.992   4.632   4.852 -0.0680 -0.0050 -1.8988
 9227TIP3   OH249095   5.166   4.507  11.450 -0.1969 -0.1650  0.0966
 9227TIP3    H149096   5.242   4.458  11.482  0.0337  0.6956  0.9225
 9227TIP3    H249097   5.095   4.482  11.509  0.0971  1.0131  0.9839
 9228TIP3   OH249098   3.820   5.263   1.718  0.7092  0.3038  0.4510
 9228TIP3    H149099   3.870   5.339   1.748  0.0743  0.4136  1.2503
 9228TIP3    H249100   3.812   5.207   1.795 -0.0756  0.1118  0.2430
 9229TIP3   OH249101   2.994   1.593   5.158  0.4542 -0.3121 -0.3162
 9229TIP3    H149102   3.026   1.633   5.077 -0.8150 -0.0965 -0.7351
 9229TIP3    H249103   3.051   1.629   5.226  1.3921 -0.3183 -1.0734
 9230TIP3   OH249104   3.536   2.264   5.300 -0.5110  0.1636  0.1173
 9230TIP3    H149105   3.460   2.216   5.333 -1.1944 -0.8642 -2.6928
 9230TIP3    H249106   3.517   2.355   5.321 -1.3888 -0.3052  1.5120
 9231TIP3   OH249107   4.567   1.431  15.851  0.2386  0.4457  0.0345
 9231TIP3    H149108   4.536   1.383  15.774  0.4161 -0.0354  0.2604
 9231TIP3    H249109   4.588   1.518  15.818  1.3544 -0.0821 -0.6846
 9232TIP3   OH249110   5.572   4.034   1.389 -0.0624 -0.0465 -0.0001
 9232TIP3    H149111   5.495   4.064   1.438 -0.7056 -0.3203 -0.8240
 9232TIP3    H249112   5.635   4.106   1.396  0.3650 -0.5627  2.2618
 9233TIP3   OH249113   0.328   2.032  10.967  0.7605 -0.1737  0.3898
 9233TIP3    H149114   0.292   1.984  11.042  0.2597 -1.2230 -0.5134
 9233TIP3    H249115   0.295   2.121  10.979  0.6255 -0.3356  1.3784
 9234TIP3   OH249116   2.024   3.045  11.242  0.0081 -0.3745 -0.0268
 9234TIP3    H149117   1.976   3.113  11.289 -1.8415 -1.9390  0.4797
 9234TIP3    H249118   1.958   3.004  11.185  1.2852 -1.1062 -1.0268
 9235TIP3   OH249119   3.996   1.279   2.847 -0.2717 -0.4768  0.5775
 9235TIP3    H149120   3.946   1.295   2.927 -1.2695 -1.2808  0.1452
 9235TIP3    H249121   4.087   1.294   2.872 -0.6138 -0.1622  1.7101
 9236TIP3   OH249122   6.267   1.161  15.395 -0.5811 -0.0362  0.8055
 9236TIP3    H149123   6.293   1.143  15.305 -0.6491 -0.3714  0.8508
 9236TIP3    H249124   6.349   1.165  15.444 -0.5191  0.6006  0.6467
 9237TIP3   OH249125   1.558   0.015  16.971  0.2518  0.1448  0.7390
 9237TIP3    H149126   1.576  -0.073  16.939 -2.0273 -0.1966  0.2661
 9237TIP3    H249127   1.621   0.071  16.925  1.0386 -1.0969  0.2667
 9238TIP3   OH249128   0.339   0.760   2.277  0.0258 -0.0134 -0.0028
 9238TIP3    H149129   0.409   0.701   2.304 -0.1750  0.1254  0.8561
 9238TIP3    H249130   0.372   0.848   2.298 -0.3111  0.0675  0.2013
 9239TIP3   OH249131   4.927   0.421   6.157 -0.0379 -0.6266  0.1437
 9239TIP3    H149132   4.874   0.435   6.078  1.4609  1.4400 -0.5933
 9239TIP3    H249133   5.013   0.456   6.134  0.9786 -1.6866  2.0971
 9240TIP3   OH249134   0.952   0.225  14.214 -0.0498 -0.3342  0.1271
 9240TIP3    H149135   0.898   0.240  14.292 -0.0114 -1.2405  0.3339
 9240TIP3    H249136   0.892   0.237  14.141  0.0896  1.3107  0.2474
 9241TIP3   OH249137   0.327   5.756  12.350  0.8627 -0.0426  0.3936
 9241TIP3    H149138   0.397   5.708  12.306  0.1540 -1.7519  1.0670
 9241TIP3    H249139   0.260   5.690  12.369 -0.9574  1.5306 -0.2173
 9242TIP3   OH249140   1.428   0.977  16.721  0.4452  0.3015 -0.2245
 9242TIP3    H149141   1.519   0.962  16.746 -0.1453  0.5928  2.4765
 9242TIP3    H249142   1.378   0.917  16.776 -1.1609  2.5724  0.9523
 9243TIP3   OH249143   2.593   5.379   0.736  0.1734  0.1393 -0.4454
 9243TIP3    H149144   2.654   5.334   0.677 -0.6041  0.4589 -1.5200
 9243TIP3    H249145   2.636   5.462   0.757  0.7123 -0.2260 -0.0724
 9244TIP3   OH249146   6.475   6.687   1.852 -0.1147 -0.1802  0.1857
 9244TIP3    H149147   6.431   6.603   1.839  1.1991 -0.9516  0.5721
 9244TIP3    H249148   6.556   6.680   1.802  0.7614  0.2415  1.5007
 9245TIP3   OH249149   2.573   5.188  13.189  0.4262 -0.0426 -0.0139
 9245TIP3    H149150   2.545   5.220  13.275  1.0380  1.8157 -0.4601
 9245TIP3    H249151   2.555   5.262  13.129  1.2202 -0.8163 -1.2482
 9246TIP3   OH249152   2.723   6.730  13.662  0.6079  0.3550  0.4026
 9246TIP3    H149153   2.670   6.741  13.741 -0.8448  2.6587 -0.8136
 9246TIP3    H249154   2.800   6.784  13.677 -0.3961  2.0604 -0.3063
 9247TIP3   OH249155   2.288   4.406  14.206  0.3435  0.1567  0.0195
 9247TIP3    H149156   2.319   4.492  14.234  2.0594 -0.0465 -1.0806
 9247TIP3    H249157   2.294   4.409  14.111  0.4291 -1.1621 -0.0273
 9248TIP3   OH249158   6.425   3.543   1.765 -0.1271 -0.0388 -0.1589
 9248TIP3    H149159   6.429   3.523   1.671  1.0417  2.0589 -0.6327
 9248TIP3    H249160   6.512   3.577   1.786 -0.5971  0.2321  1.5191
 9249TIP3   OH249161   3.628   6.526   0.512  0.1059  0.0238 -0.2075
 9249TIP3    H149162   3.666   6.577   0.441 -0.6709  0.1039 -0.5784
 9249TIP3    H249163   3.547   6.490   0.476  1.0361 -2.2088 -0.2499
 9250TIP3   OH249164   1.158   3.147  11.347  0.8317  0.4469  0.2520
 9250TIP3    H149165   1.131   3.230  11.309  2.3343  0.0917 -1.7454
 9250TIP3    H249166   1.246   3.132  11.314  1.9270 -0.3924  3.2177
 9251TIP3   OH249167   1.340   2.180  16.081  0.3170  0.5432  0.0231
 9251TIP3    H149168   1.382   2.261  16.053  0.0190  0.7626  0.2081
 9251TIP3    H249169   1.375   2.164  16.169  2.0484 -0.6952 -0.8296
 9252TIP3   OH249170   4.271   4.781   6.406  0.0106  0.5121  0.4225
 9252TIP3    H149171   4.229   4.735   6.479 -0.1375 -0.6473 -0.3634
 9252TIP3    H249172   4.344   4.725   6.381  1.1690  1.7961  0.8226
 9253TIP3   OH249173   4.781   1.847  14.871  0.1407 -0.1624  0.2954
 9253TIP3    H149174   4.784   1.752  14.865  0.5993 -0.0545 -2.9673
 9253TIP3    H249175   4.688   1.867  14.882 -0.1651 -0.9634 -0.7061
 9254TIP3   OH249176   1.146   4.777   1.954 -0.1114 -0.0586  0.1433
 9254TIP3    H149177   1.232   4.798   1.917 -1.0183  0.5392 -1.7617
 9254TIP3    H249178   1.121   4.854   2.004 -0.0837  0.3012 -0.3898
 9255TIP3   OH249179   1.315   5.100   4.969 -0.5897  0.2818  0.2784
 9255TIP3    H149180   1.264   5.021   4.951  0.3184  0.1708 -2.1115
 9255TIP3    H249181   1.310   5.151   4.888 -1.1425  2.7362  1.7453
 9256TIP3   OH249182   2.122   3.762  13.500 -0.1088 -0.0003 -0.2377
 9256TIP3    H149183   2.101   3.775  13.407  0.4785 -1.0970 -0.5417
 9256TIP3    H249184   2.094   3.843  13.542 -1.1448  0.1892 -1.2429
 9257TIP3   OH249185   3.636   0.471   4.496  0.4483 -0.0615 -0.6844
 9257TIP3    H149186   3.636   0.461   4.591  1.3275 -0.4116 -0.7159
 9257TIP3    H249187   3.660   0.563   4.481  0.3369 -0.0142 -0.5741
 9258TIP3   OH249188   6.094   4.602   5.779  0.3614  0.0235  1.1525
 9258TIP3    H149189   6.147   4.681   5.768  1.1885 -0.6586 -0.0267
 9258TIP3    H249190   6.144   4.547   5.839  0.1159  0.1149  1.4430
 9259TIP3   OH249191   0.799   6.005   5.030  0.1654  0.5174 -0.2133
 9259TIP3    H149192   0.757   5.942   5.089  1.9462  0.4937  1.1057
 9259TIP3    H249193   0.777   5.974   4.943  0.2860 -1.4706  0.4038
 9260TIP3   OH249194   0.404   6.438  15.734  0.6383  0.3352 -0.0324
 9260TIP3    H149195   0.311   6.437  15.757  0.6955  0.0514  0.1825
 9260TIP3    H249196   0.443   6.369  15.787  1.1111  0.9653  0.4523
 9261TIP3   OH249197   2.404   3.363  15.289  0.7174  0.3411 -0.6102
 9261TIP3    H149198   2.364   3.430  15.233 -1.3019  1.0276  1.4819
 9261TIP3    H249199   2.342   3.352  15.362  2.4360 -1.6360  0.6822
 9262TIP3   OH249200   2.589   3.035   0.484  0.3246  0.4128  0.4065
 9262TIP3    H149201   2.655   2.986   0.532 -0.7050 -0.0750  1.3885
 9262TIP3    H249202   2.638   3.096   0.429  1.5922  1.4852  2.5718
 9263TIP3   OH249203   5.323   1.711   1.123 -0.1914  0.6012  0.1755
 9263TIP3    H149204   5.293   1.641   1.182 -0.7217  0.4726 -0.2455
 9263TIP3    H249205   5.244   1.745   1.083 -0.2842  3.2907  2.3515
 9264TIP3   OH249206   3.493   3.876  13.830  0.5996  0.2992  0.1966
 9264TIP3    H149207   3.580   3.863  13.867 -0.4135  0.0974  2.7237
 9264TIP3    H249208   3.434   3.872  13.906 -1.9617 -2.6785 -1.7341
 9265TIP3   OH249209   3.401   4.388  15.894  0.2319  0.2563  0.3153
 9265TIP3    H149210   3.359   4.395  15.808 -2.5875  0.9348  1.6272
 9265TIP3    H249211   3.406   4.478  15.926  0.3410 -0.0670  1.2484
 9266TIP3   OH249212   0.851   6.206  14.753 -0.0065 -0.1995 -0.2111
 9266TIP3    H149213   0.907   6.234  14.680 -0.0624 -0.1630 -0.2402
 9266TIP3    H249214   0.850   6.111  14.748 -0.6270 -0.1698 -0.7217
 9267TIP3   OH249215   0.586   0.119   1.744  0.1385 -0.1976  0.0777
 9267TIP3    H149216   0.520   0.080   1.801 -1.4309  0.5106 -1.1929
 9267TIP3    H249217   0.666   0.117   1.796 -0.6244 -2.0226  1.2916
 9268TIP3   OH249218   3.807   0.863  11.596 -0.5171 -0.1953  0.5552
 9268TIP3    H149219   3.728   0.900  11.635 -0.2938 -0.8419  1.6514
 9268TIP3    H249220   3.794   0.874  11.502 -2.7065 -1.7690  0.5692
 9269TIP3   OH249221   4.993   5.519   3.826  0.0988 -0.7500 -0.1867
 9269TIP3    H149222   4.932   5.512   3.899  0.1316  2.5408  0.3150
 9269TIP3    H249223   4.946   5.482   3.751 -1.9388  0.3175  0.4953
 9270TIP3   OH249224   6.717   0.130   0.595  0.3018  0.0413 -0.1478
 9270TIP3    H149225   6.678   0.173   0.670 -1.5620  0.8534 -1.5023
 9270TIP3    H249226   6.795   0.181   0.575 -0.4428  1.2180 -0.1267
 9271TIP3   OH249227   1.982   6.632  12.483 -0.0538  0.6354 -0.5004
 9271TIP3    H149228   2.013   6.576  12.412 -1.4814 -0.8049 -0.0444
 9271TIP3    H249229   1.958   6.714  12.440 -0.8189 -0.1842 -1.7007
 9272TIP3   OH249230   5.901   2.166   4.274 -0.2091  0.0246  0.7078
 9272TIP3    H149231   5.826   2.206   4.318 -0.1959 -1.9565  2.6857
 9272TIP3    H249232   5.967   2.157   4.342  0.6832 -1.0706 -0.2616
 9273TIP3   OH249233   0.119   3.927   0.002  0.1770 -0.3280 -0.4473
 9273TIP3    H149234   0.055   3.972   0.056  1.0483  0.2424  0.1257
 9273TIP3    H249235   0.091   3.944  -0.088  0.1438  0.8439 -0.2263
 9274TIP3   OH249236   4.621   2.370  11.931 -0.3378  0.3794 -0.1632
 9274TIP3    H149237   4.651   2.358  12.021  1.1201 -1.2645 -0.8194
 9274TIP3    H249238   4.528   2.347  11.934  0.4408 -3.2716  0.3349
 9275TIP3   OH249239   2.057   1.970  11.712 -0.2306  0.1988 -0.0295
 9275TIP3    H149240   2.119   1.977  11.785 -1.8742  0.6125  1.3649
 9275TIP3    H249241   1.977   1.935  11.751 -0.6490 -1.1726 -1.9597
 9276TIP3   OH249242   2.252   2.427  14.881  0.0093  0.5244  0.2074
 9276TIP3    H149243   2.166   2.464  14.899 -0.8069  0.2519 -2.6306
 9276TIP3    H249244   2.237   2.333  14.876  0.7889  0.3414  1.0830
 9277TIP3   OH249245   2.892   6.346   1.445 -0.4461  0.3599  0.2953
 9277TIP3    H149246   2.974   6.381   1.412 -1.4274  1.4737 -1.1022
 9277TIP3    H249247   2.903   6.342   1.540  1.7898 -1.1191  0.0531
 9278TIP3   OH249248   2.279   5.272   2.676 -0.2602 -0.0044 -0.4464
 9278TIP3    H149249   2.339   5.316   2.736  0.0153  1.3765 -1.6549
 9278TIP3    H249250   2.296   5.314   2.591 -1.8625 -0.6495 -1.1250
 9279TIP3   OH249251   3.051   5.417   4.350 -0.0997  0.1498  0.0080
 9279TIP3    H149252   3.130   5.364   4.338 -0.6497 -0.3176 -2.0973
 9279TIP3    H249253   2.982   5.354   4.368 -0.6048  0.1409 -1.7056
 9280TIP3   OH249254   1.724   3.449  15.542  0.0136 -0.2541 -0.2439
 9280TIP3    H149255   1.704   3.362  15.577 -0.1837 -0.7618 -1.5815
 9280TIP3    H249256   1.770   3.493  15.614 -0.5101 -1.2038  0.7017
 9281TIP3   OH249257   2.051   5.734   1.011  0.2906 -0.2961  0.3558
 9281TIP3    H149258   2.125   5.678   1.035 -1.1795 -2.8408 -0.6796
 9281TIP3    H249259   1.981   5.710   1.072 -0.6067 -0.2075 -0.6085
 9282TIP3   OH249260   6.243   0.551   1.133 -0.5234 -0.6451  0.3164
 9282TIP3    H149261   6.331   0.562   1.097 -0.1779 -1.8166  0.7312
 9282TIP3    H249262   6.229   0.628   1.188  1.0344 -1.3303  1.7696
 9283TIP3   OH249263   4.389   4.029  12.987  0.3080  0.2610 -0.4465
 9283TIP3    H149264   4.480   4.008  12.970 -0.4525 -2.9768 -1.2420
 9283TIP3    H249265   4.376   4.006  13.080  0.1068 -0.1663 -0.5773
 9284TIP3   OH249266   0.674   5.798  15.862  0.0816  0.6707  0.1086
 9284TIP3    H149267   0.758   5.821  15.822 -0.1503 -0.5518 -1.1608
 9284TIP3    H249268   0.691   5.719  15.912 -0.1345  0.9067  0.5612
 9285TIP3   OH249269   6.315   4.635  13.910  0.2399  0.4910  0.1161
 9285TIP3    H149270   6.275   4.590  13.835 -0.0397  2.6281 -1.0945
 9285TIP3    H249271   6.394   4.584  13.928 -1.3047 -1.9635  0.5163
 9286TIP3   OH249272   1.287   5.707  12.080 -0.4448  0.0929 -0.2120
 9286TIP3    H149273   1.227   5.640  12.047 -1.2144  0.9308 -0.5630
 9286TIP3    H249274   1.271   5.709  12.174 -1.4739  0.7661 -0.3830
 9287TIP3   OH249275   2.129   4.006   3.392  0.3520  0.2677  0.3481
 9287TIP3    H149276   2.141   4.006   3.297  0.9965 -1.7523  0.3846
 9287TIP3    H249277   2.058   3.944   3.407 -2.6664  3.5138  0.9900
 9288TIP3   OH249278   4.584   2.691   2.280  0.5362  0.0757  0.1153
 9288TIP3    H149279   4.579   2.711   2.374 -0.2595  1.7485 -0.2402
 9288TIP3    H249280   4.657   2.745   2.249 -0.3758  0.9637 -0.5341
 9289TIP3   OH249281   6.762   0.013  11.388  0.0118 -0.2317 -1.1207
 9289TIP3    H149282   6.782  -0.023  11.474  2.4564 -0.0280 -1.5395
 9289TIP3    H249283   6.759   0.108  11.402  0.4369 -0.1970 -1.2512
 9290TIP3   OH249284   5.623   4.594   2.445 -0.3754 -0.1247 -0.0319
 9290TIP3    H149285   5.588   4.673   2.405  0.4202 -0.6811 -1.9212
 9290TIP3    H249286   5.547   4.550   2.482 -0.9154  1.1676  0.4401
 9291TIP3   OH249287   5.217   0.878   0.079  0.2592  0.2033  0.4538
 9291TIP3    H149288   5.137   0.854   0.127  0.6121  1.2121  1.6001
 9291TIP3    H249289   5.267   0.797   0.073 -1.7894 -1.0206 -2.2921
 9292TIP3   OH249290   3.617   4.288  11.224  0.3385 -0.2265  0.6991
 9292TIP3    H149291   3.547   4.246  11.174 -0.2481  0.5443  0.8549
 9292TIP3    H249292   3.592   4.380  11.229  1.7949  0.2335  0.0460
 9293TIP3   OH249293   2.987   4.237   6.404 -0.2554  0.1790  0.0286
 9293TIP3    H149294   2.911   4.185   6.380 -0.4013 -0.0501  0.9565
 9293TIP3    H249295   2.962   4.281   6.485 -0.9475  3.4128 -1.7755
 9294TIP3   OH249296   1.412   4.105  14.205  0.3936  0.3023  0.0916
 9294TIP3    H149297   1.454   4.148  14.280  0.3031  0.9658 -0.2387
 9294TIP3    H249298   1.432   4.160  14.130  1.5190 -0.9909 -0.6153
 9295TIP3   OH249299   1.273   0.742  13.057  0.0521 -0.1012 -0.6422
 9295TIP3    H149300   1.275   0.647  13.070 -0.0230  0.0566  0.6705
 9295TIP3    H249301   1.283   0.778  13.145  0.6131  1.1187 -1.1814
 9296TIP3   OH249302   6.682   0.818  10.826 -0.5747  0.8533 -0.5504
 9296TIP3    H149303   6.728   0.901  10.816  0.7702  0.0030 -2.0429
 9296TIP3    H249304   6.730   0.773  10.896  0.0505  0.5092 -1.1872
 9297TIP3   OH249305   6.766   1.972   0.577 -0.4603 -0.2636  0.7098
 9297TIP3    H149306   6.793   1.917   0.503 -0.4956  0.6888 -0.0236
 9297TIP3    H249307   6.827   2.046   0.575 -3.5141  2.4627 -1.5659
 9298TIP3   OH249308   0.208   3.528   3.766 -0.2891 -0.2108 -0.5351
 9298TIP3    H149309   0.286   3.576   3.793 -0.0528 -0.4363 -0.8191
 9298TIP3    H249310   0.181   3.570   3.684 -1.4393  0.9649  0.4120
 9299TIP3   OH249311   0.233   2.442  14.109  0.3741 -0.5889 -0.1057
 9299TIP3    H149312   0.191   2.362  14.080 -0.4742 -0.7205  1.3609
 9299TIP3    H249313   0.163   2.492  14.152  0.8264  1.0486 -1.1907
 9300TIP3   OH249314   4.554   4.659  16.280 -0.2285  0.1107  0.0985
 9300TIP3    H149315   4.497   4.644  16.205 -0.7038  0.7735  0.3224
 9300TIP3    H249316   4.641   4.637  16.248 -0.5445 -0.4770 -0.3793
 9301TIP3   OH249317   2.793   4.238  16.584 -0.1515 -0.9536  0.1097
 9301TIP3    H149318   2.862   4.185  16.625 -0.0441 -2.1756 -1.5363
 9301TIP3    H249319   2.729   4.174  16.553 -3.0609  0.1951  3.1502
 9302TIP3   OH249320   1.465   5.243  10.539 -0.1715 -0.0256  0.0888
 9302TIP3    H149321   1.538   5.248  10.477 -0.5629  3.9432 -0.3430
 9302TIP3    H249322   1.501   5.199  10.615  1.1820 -2.4789 -1.8266
 9303TIP3   OH249323   4.801   0.333  14.117  0.3330  0.4612 -0.0356
 9303TIP3    H149324   4.728   0.280  14.150  1.2692 -0.3107  0.8750
 9303TIP3    H249325   4.787   0.419  14.157 -0.8379  0.7508 -0.9994
 9304TIP3   OH249326   2.977   3.230   1.440 -0.6424  0.0668 -0.4517
 9304TIP3    H149327   2.930   3.166   1.386 -0.0276  0.2496 -1.2255
 9304TIP3    H249328   3.036   3.178   1.494  0.0138 -0.0187 -1.2335
 9305TIP3   OH249329   4.931   1.256  16.127  0.5783  0.0315 -0.0685
 9305TIP3    H149330   4.995   1.278  16.059  1.4101  0.1961  0.7451
 9305TIP3    H249331   4.855   1.224  16.079  0.9918  0.5388 -1.0928
 9306TIP3   OH249332   0.702   3.323  15.658 -0.2931 -0.0844 -0.2009
 9306TIP3    H149333   0.772   3.270  15.619 -0.8376 -1.0343  0.0520
 9306TIP3    H249334   0.728   3.335  15.749  0.9169  2.0267 -0.7651
 9307TIP3   OH249335   6.167   2.407  14.516  0.4229 -0.2033  0.2725
 9307TIP3    H149336   6.235   2.353  14.475 -0.4647 -2.0166  1.1001
 9307TIP3    H249337   6.167   2.381  14.608 -2.0371 -0.9963  0.1209
 9308TIP3   OH249338   6.074   0.820   1.513 -0.0285  0.1264  0.0421
 9308TIP3    H149339   5.989   0.818   1.471  0.1078 -0.9449 -0.2137
 9308TIP3    H249340   6.058   0.786   1.601  0.0566  0.3853  0.1603
 9309TIP3   OH249341   3.727   3.457  12.596  0.6159  0.4694 -0.1856
 9309TIP3    H149342   3.702   3.518  12.527 -0.9961  0.3241  0.2450
 9309TIP3    H249343   3.656   3.462  12.660 -0.3472 -2.9265 -0.8290
 9310TIP3   OH249344   0.861   6.345  12.163 -0.0783  0.3479 -0.2726
 9310TIP3    H149345   0.803   6.381  12.096 -2.1136 -0.4698  0.9562
 9310TIP3    H249346   0.828   6.381  12.245 -0.3491 -1.9493  0.6904
 9311TIP3   OH249347   6.048   5.751   0.078 -0.4214  0.1131 -0.1245
 9311TIP3    H149348   6.087   5.682   0.131  2.1365 -0.3680 -2.3746
 9311TIP3    H249349   6.079   5.833   0.117  0.3896 -0.1903 -0.1221
 9312TIP3   OH249350   0.369   2.456   3.157  0.2560  0.0600 -1.1126
 9312TIP3    H149351   0.356   2.379   3.213 -2.0303 -0.0748 -1.7446
 9312TIP3    H249352   0.359   2.530   3.216 -1.1726 -0.1018 -1.1116
 9313TIP3   OH249353   2.363   5.235   1.007 -0.2107  0.1958 -0.0407
 9313TIP3    H149354   2.390   5.200   0.922  0.7504  0.9620 -0.0667
 9313TIP3    H249355   2.292   5.296   0.986 -0.4029 -0.0792 -0.2123
 9314TIP3   OH249356   6.358   2.665  14.500 -0.2618  0.0524  0.2576
 9314TIP3    H149357   6.412   2.639  14.574 -1.2245  0.8800  1.2857
 9314TIP3    H249358   6.367   2.593  14.437  1.2608 -0.2506  0.7929
 9315TIP3   OH249359   6.168   3.873  15.193  0.3286  0.2677 -0.2067
 9315TIP3    H149360   6.161   3.779  15.176  2.5471  0.1911 -1.1344
 9315TIP3    H249361   6.106   3.890  15.263 -0.4992 -1.7927 -0.3793
 9316TIP3   OH249362   5.826   1.092   3.970 -0.2190 -0.0149 -0.5142
 9316TIP3    H149363   5.842   1.105   4.063 -0.4803  0.0941 -0.4820
 9316TIP3    H249364   5.908   1.057   3.935 -0.2668 -0.4815 -0.1603
 9317TIP3   OH249365   0.477   4.007  12.629  0.2228 -0.2376 -0.0333
 9317TIP3    H149366   0.473   4.013  12.725  2.0385  1.3393  0.0056
 9317TIP3    H249367   0.560   3.963  12.610  0.3394  0.3193 -0.8810
 9318TIP3   OH249368   4.627   4.760   0.858 -0.2656  0.2076  0.2288
 9318TIP3    H149369   4.595   4.773   0.768  1.4491  0.3376 -0.4007
 9318TIP3    H249370   4.720   4.738   0.847 -0.0435  0.1840  1.9739
 9319TIP3   OH249371   4.495   4.864  15.702  0.3194  0.2951  0.0226
 9319TIP3    H149372   4.504   4.954  15.733  2.8962 -0.2347  1.0802
 9319TIP3    H249373   4.584   4.831  15.696 -0.5373 -2.2552 -0.2178
 9320TIP3   OH249374   5.998   1.347   4.929 -0.3015 -0.5495  0.3902
 9320TIP3    H149375   6.032   1.375   4.844  0.5801 -3.3242 -0.2742
 9320TIP3    H249376   6.031   1.412   4.991 -1.1445  1.6743 -1.3561
 9321TIP3   OH249377   3.072   1.155  14.216  0.5669  0.1931  0.6615
 9321TIP3    H149378   3.035   1.077  14.257  2.8524 -0.7364  1.0819
 9321TIP3    H249379   3.124   1.122  14.142  0.9604  1.3772  0.3790
 9322TIP3   OH249380   6.297   1.640   3.846 -0.2399  0.5256 -0.2216
 9322TIP3    H149381   6.367   1.684   3.798  0.6969 -3.2980 -2.8297
 9322TIP3    H249382   6.338   1.614   3.928  0.4602  0.9546 -0.4195
 9323TIP3   OH249383   4.074   0.563  11.226  0.3335 -0.4764 -0.5252
 9323TIP3    H149384   4.099   0.485  11.176  0.6784  0.0317 -1.1592
 9323TIP3    H249385   4.141   0.628  11.205 -0.8186  0.5233 -1.3193
 9324TIP3   OH249386   5.847   5.445   2.038 -0.4106 -0.1793 -0.1774
 9324TIP3    H149387   5.909   5.487   2.097 -0.3822 -0.0972 -0.2656
 9324TIP3    H249388   5.843   5.354   2.067 -0.6456 -0.0643  0.1636
 9325TIP3   OH249389   5.771   1.027   3.697 -0.6834 -0.1528  0.4835
 9325TIP3    H149390   5.810   1.078   3.627  0.7623  0.3492  1.6122
 9325TIP3    H249391   5.799   1.070   3.777 -0.8319 -1.7305  1.4339
 9326TIP3   OH249392   5.293   1.199   2.083  0.2503  0.3161 -0.3390
 9326TIP3    H149393   5.229   1.158   2.141  0.7896  1.9178  1.5308
 9326TIP3    H249394   5.254   1.283   2.058  0.9250  0.6055 -0.4728
 9327TIP3   OH249395   1.963   3.016   0.657  0.1008  0.2738  0.3946
 9327TIP3    H149396   1.869   3.008   0.671  0.2016 -1.9234  0.2336
 9327TIP3    H249397   1.972   3.041   0.565 -0.3153  0.7193  0.4725
 9328TIP3   OH249398   3.656   4.505  12.752 -0.2063 -0.3163  0.1629
 9328TIP3    H149399   3.672   4.411  12.748  1.1655 -0.2120  1.6796
 9328TIP3    H249400   3.617   4.518  12.839 -2.9409  0.2523 -1.0397
 9329TIP3   OH249401   6.309   3.768  15.834  0.2679  0.0288  0.0339
 9329TIP3    H149402   6.224   3.730  15.856 -0.1760  0.8586 -0.1948
 9329TIP3    H249403   6.311   3.768  15.738  0.4758  0.1163  0.0387
 9330TIP3   OH249404   1.589   0.353  15.160 -0.6967  0.2659 -0.2582
 9330TIP3    H149405   1.683   0.363  15.142 -1.2577  0.0219 -4.3507
 9330TIP3    H249406   1.563   0.438  15.194  0.7019  1.0461 -1.0036
 9331TIP3   OH249407   5.576   4.311   6.557 -0.5653  0.6104  0.2458
 9331TIP3    H149408   5.645   4.376   6.567  0.5472 -0.5176  0.1049
 9331TIP3    H249409   5.622   4.228   6.549 -1.8600  0.0160 -1.6338
 9332TIP3   OH249410   0.421   6.250  12.908 -0.0672 -0.3545 -0.5705
 9332TIP3    H149411   0.423   6.319  12.974 -1.6523  0.2126 -1.0573
 9332TIP3    H249412   0.452   6.293  12.828  0.8389 -0.7638 -0.4615
 9333TIP3   OH249413   0.494   6.277  12.632 -1.0067 -0.1431 -0.0495
 9333TIP3    H149414   0.582   6.251  12.658 -1.0648 -1.4366 -1.0239
 9333TIP3    H249415   0.496   6.274  12.536 -1.4191  2.2466 -0.2042
 9334TIP3   OH249416   1.381   2.378  11.514  0.6546  0.2008 -0.0373
 9334TIP3    H149417   1.344   2.312  11.456  2.8849 -1.0758 -0.1412
 9334TIP3    H249418   1.343   2.461  11.484  0.1195 -0.6757 -1.9391
 9335TIP3   OH249419   4.860   6.484  13.312  0.1374 -0.0233  0.9133
 9335TIP3    H149420   4.898   6.533  13.239  1.1788 -0.3343  1.2272
 9335TIP3    H249421   4.768   6.510  13.313 -0.2755 -1.1431 -1.4498
 9336TIP3   OH249422   5.882   2.448  16.892  0.1930  0.0364  0.6484
 9336TIP3    H149423   5.854   2.392  16.965 -1.8912 -0.6401 -0.5803
 9336TIP3    H249424   5.970   2.477  16.916  0.2977 -1.6440  2.5591
 9337TIP3   OH249425   6.721   3.140   1.097 -0.3363  0.7962 -0.3482
 9337TIP3    H149426   6.781   3.213   1.083  0.6805 -0.1282 -0.9301
 9337TIP3    H249427   6.769   3.063   1.067 -1.6059 -0.0463 -0.2907
 9338TIP3   OH249428   5.662   6.106   2.683  0.1415  0.1059 -0.4916
 9338TIP3    H149429   5.672   6.096   2.778  1.0367  0.2240 -0.5619
 9338TIP3    H249430   5.625   6.194   2.672  1.9315  0.9522 -0.3082
 9339TIP3   OH249431   1.985   3.101   0.385 -0.4822  0.3278  0.0367
 9339TIP3    H149432   2.055   3.037   0.394 -0.7761  0.0834  0.6366
 9339TIP3    H249433   1.961   3.098   0.293  0.2250  0.3447 -0.1570
 9340TIP3   OH249434   2.391   0.788   5.604 -0.1626  0.2441 -0.3871
 9340TIP3    H149435   2.337   0.802   5.682  1.2357 -2.3646  1.2115
 9340TIP3    H249436   2.380   0.695   5.584  1.6820  0.2417 -1.5912
 9341TIP3   OH249437   6.248   6.604  17.104 -0.0795 -0.2541 -0.2250
 9341TIP3    H149438   6.161   6.572  17.080 -0.6539  0.4250  0.8533
 9341TIP3    H249439   6.267   6.562  17.189  1.2713 -1.4793 -1.0757
 9342TIP3   OH249440   5.993   0.689  13.299 -0.1564 -0.4466  0.2184
 9342TIP3    H149441   5.962   0.668  13.387 -1.5426 -0.5261 -0.2628
 9342TIP3    H249442   5.917   0.727  13.255  0.8241  0.6609 -0.6009
 9343TIP3   OH249443   2.300   6.759  16.472  0.0419  0.2214  0.2206
 9343TIP3    H149444   2.363   6.802  16.415 -0.3931 -0.8444 -1.1098
 9343TIP3    H249445   2.253   6.831  16.514  0.2546  1.0307 -0.8878
 9344TIP3   OH249446   2.121   3.438   5.702  0.3172 -0.1710  0.0499
 9344TIP3    H149447   2.185   3.504   5.727  1.3325 -1.1335  0.0694
 9344TIP3    H249448   2.036   3.482   5.709  0.9031  0.8387  0.9770
 9345TIP3   OH249449   3.360   6.781   4.105  0.0775 -0.1534  0.2894
 9345TIP3    H149450   3.415   6.856   4.125 -2.2739  1.4993  0.9945
 9345TIP3    H249451   3.355   6.779   4.010 -0.5133  1.1457  0.2731
 9346TIP3   OH249452   1.799   2.283  14.881 -0.0510 -0.3553 -0.4164
 9346TIP3    H149453   1.831   2.289  14.971  0.1182  0.1422 -0.5058
 9346TIP3    H249454   1.715   2.238  14.889  0.5463 -1.4634 -0.1500
 9347TIP3   OH249455   1.940   3.629   2.049  0.1897 -0.0153  0.1083
 9347TIP3    H149456   2.022   3.669   2.019  0.0283  0.3161  0.0950
 9347TIP3    H249457   1.940   3.541   2.012  0.5507 -0.0248  0.1267
 9348TIP3   OH249458   4.748   1.474   3.315 -0.1778 -0.5028 -0.0658
 9348TIP3    H149459   4.728   1.554   3.363 -0.5180 -0.3650 -0.4333
 9348TIP3    H249460   4.811   1.501   3.247  0.5842 -0.7637  0.5174
 9349TIP3   OH249461   0.305   5.946   5.094  1.1963  0.7835 -0.3626
 9349TIP3    H149462   0.282   5.929   5.002 -0.8664 -0.8980  0.3712
 9349TIP3    H249463   0.307   6.041   5.100 -1.1858  1.0023 -1.6427
 9350TIP3   OH249464   4.659   0.016  14.023  0.0702  0.2844 -0.0482
 9350TIP3    H149465   4.647   0.092  14.079  1.1662  1.7798 -1.7346
 9350TIP3    H249466   4.637   0.047  13.935 -0.2864 -1.6017 -0.6835
 9351TIP3   OH249467   2.635   4.502   0.218  0.1140  0.1575  0.1212
 9351TIP3    H149468   2.690   4.579   0.208  3.4317 -1.9550  0.7034
 9351TIP3    H249469   2.681   4.447   0.281 -2.5819 -1.9506  0.4750
 9352TIP3   OH249470   3.638   3.766  15.663  0.3292 -0.1255 -0.1006
 9352TIP3    H149471   3.567   3.783  15.602 -0.4081  0.0426  0.7817
 9352TIP3    H249472   3.709   3.824  15.635 -0.0069 -0.0271 -0.7633
 9353TIP3   OH249473   0.243   5.600  17.056 -0.2167  0.3067  0.1477
 9353TIP3    H149474   0.230   5.505  17.052  0.8725 -0.0270  2.6620
 9353TIP3    H249475   0.158   5.635  17.082 -0.6021  0.0405 -0.7142
 9354TIP3   OH249476   5.425   0.159   3.115  0.0010 -0.6059  0.1332
 9354TIP3    H149477   5.430   0.190   3.025 -0.2919 -2.3712 -0.5425
 9354TIP3    H249478   5.506   0.111   3.129 -0.2005 -0.8144  0.6255
 9355TIP3   OH249479   4.762   2.177   2.052 -0.2402 -0.0500  0.4837
 9355TIP3    H149480   4.708   2.119   1.998  0.0778  0.8422 -0.8363
 9355TIP3    H249481   4.700   2.240   2.089 -0.3958 -0.3764  0.7843
 9356TIP3   OH249482   4.233   2.960  16.917 -0.5401 -0.2523 -0.4542
 9356TIP3    H149483   4.205   2.890  16.975 -2.2965 -0.2663 -1.2642
 9356TIP3    H249484   4.239   3.037  16.974  0.9139 -0.9105  0.3400
 9357TIP3   OH249485   5.762   1.118   5.155  0.5240  0.3901 -0.7905
 9357TIP3    H149486   5.780   1.176   5.230  0.4617  1.9589 -1.9466
 9357TIP3    H249487   5.681   1.073   5.179 -0.4579  2.1628 -0.6290
 9358TIP3   OH249488   1.751   1.501  16.633  0.0010 -0.5696 -0.0139
 9358TIP3    H149489   1.801   1.578  16.662 -2.8341 -0.1897  4.9999
 9358TIP3    H249490   1.751   1.443  16.709 -2.2507 -3.2227 -1.8499
 9359TIP3   OH249491   6.684   2.955  15.907  0.9868 -0.2213  0.5474
 9359TIP3    H149492   6.745   3.025  15.930  0.0864  1.1075 -0.9738
 9359TIP3    H249493   6.659   2.917  15.991  4.5149 -1.4245  1.2434
 9360TIP3   OH249494   1.630   5.180   2.482  0.1042 -0.0865 -0.1661
 9360TIP3    H149495   1.575   5.196   2.558 -1.0767 -0.9007 -0.8119
 9360TIP3    H249496   1.623   5.086   2.467 -0.2273  0.1548 -1.6684
 9361TIP3   OH249497   4.595   0.657  16.277 -0.1297 -0.0392 -0.1819
 9361TIP3    H149498   4.573   0.594  16.208  1.8066 -1.6121  0.5519
 9361TIP3    H249499   4.666   0.709  16.239 -1.0516  1.0707 -0.4174
 9362TIP3   OH249500   6.431   4.870  16.227 -0.3576 -0.1810  0.3279
 9362TIP3    H149501   6.364   4.801  16.228  1.3558 -1.9321  0.5077
 9362TIP3    H249502   6.447   4.888  16.134  0.2992 -1.2093  0.2264
 9363TIP3   OH249503   6.803   1.198   4.046  0.3279 -0.0549 -0.2380
 9363TIP3    H149504   6.725   1.253   4.051 -0.4750 -1.2412  0.8069
 9363TIP3    H249505   6.816   1.184   3.952 -0.8488 -0.0120 -0.4185
 9364TIP3   OH249506   2.318   1.577  13.915 -0.2836  0.5394  0.1331
 9364TIP3    H149507   2.328   1.649  13.853  1.1784  1.1471  1.0186
 9364TIP3    H249508   2.292   1.502  13.861  1.4706  0.9119 -1.3314
 9365TIP3   OH249509   2.055   2.926  13.415  0.4586  0.2640  0.3532
 9365TIP3    H149510   2.092   2.880  13.490  1.2930  0.3433  0.0058
 9365TIP3    H249511   2.027   3.011  13.449  1.4671  0.5719  0.4431
 9366TIP3   OH249512   1.257   4.005   4.669 -0.2584  0.4564 -0.4646
 9366TIP3    H149513   1.260   3.911   4.688 -1.6185  0.2226 -1.3242
 9366TIP3    H249514   1.210   4.012   4.586 -1.3047  1.9850  0.2032
 9367TIP3   OH249515   5.090   0.442  13.839 -0.3196 -0.3624  0.2010
 9367TIP3    H149516   5.167   0.396  13.806  0.9354  0.8306  1.3707
 9367TIP3    H249517   5.124   0.504  13.903 -2.0531  1.4842 -0.5541
 9368TIP3   OH249518   6.180   3.834  12.658 -0.6339  0.6631  1.0350
 9368TIP3    H149519   6.123   3.758  12.654 -0.1259  0.2898  0.8240
 9368TIP3    H249520   6.211   3.837  12.748  0.9865 -0.6142  0.5664
 9369TIP3   OH249521   5.461   0.647  13.912  0.4211  0.2690  0.0339
 9369TIP3    H149522   5.516   0.722  13.936  1.4696 -0.7241  0.9070
 9369TIP3    H249523   5.524   0.581  13.882 -0.5322 -0.0637 -1.3075
 9370TIP3   OH249524   2.125   5.590  16.900 -0.3890  0.5401 -0.2443
 9370TIP3    H149525   2.069   5.608  16.824  0.6171  0.2594 -1.0837
 9370TIP3    H249526   2.203   5.644  16.884  0.5753 -0.8337 -0.2986
 9371TIP3   OH249527   2.071   2.840   1.280 -0.1583 -0.2422 -0.3763
 9371TIP3    H149528   2.094   2.929   1.252 -1.6654  0.3166  0.1114
 9371TIP3    H249529   2.106   2.833   1.369 -0.4570  0.0297 -0.2371
 9372TIP3   OH249530   0.588   0.581  17.035  0.0303 -0.2587 -0.3922
 9372TIP3    H149531   0.609   0.491  17.010 -0.3174 -1.2042  2.3802
 9372TIP3    H249532   0.494   0.579  17.054  0.2706  0.3612  0.9175
 9373TIP3   OH249533   4.913   2.439   0.677  0.1547 -0.1195 -0.2084
 9373TIP3    H149534   4.907   2.447   0.772 -0.6570 -1.2593 -0.1397
 9373TIP3    H249535   4.863   2.359   0.657 -2.0076  1.5153 -1.8492
 9374TIP3   OH249536   5.471   6.077  13.302 -0.1994 -0.0711 -0.3866
 9374TIP3    H149537   5.555   6.099  13.261 -0.1945  1.7967  0.5373
 9374TIP3    H249538   5.494   6.051  13.392 -0.5313 -0.6041 -0.4478
 9375TIP3   OH249539   3.816   5.011  16.088 -0.5309 -0.8031  0.3126
 9375TIP3    H149540   3.912   5.007  16.089 -0.5340 -0.8592  0.6588
 9375TIP3    H249541   3.789   4.931  16.043 -0.3960 -0.2405 -0.8190
 9376TIP3   OH249542   1.281   5.549  15.304  0.4655  0.1174  0.2622
 9376TIP3    H149543   1.236   5.634  15.306 -0.3422 -0.3079  1.4989
 9376TIP3    H249544   1.358   5.561  15.359  0.4968  0.1366  0.2143
 9377TIP3   OH249545   5.332   1.705  12.206  0.2689  0.0839 -0.2547
 9377TIP3    H149546   5.365   1.692  12.117  0.3708 -2.5377  0.0658
 9377TIP3    H249547   5.278   1.627  12.223  0.7607  0.1797  2.1666
 9378TIP3   OH249548   2.934   4.195  12.478  0.2533 -0.6603  0.0242
 9378TIP3    H149549   2.863   4.181  12.416 -0.5207  0.2314  0.6851
 9378TIP3    H249550   2.997   4.250  12.431 -1.5331  2.2555  0.7968
 9379TIP3   OH249551   3.216   0.458   3.235 -0.0518  0.0911 -0.1338
 9379TIP3    H149552   3.184   0.476   3.147 -0.1755 -0.3419 -0.1817
 9379TIP3    H249553   3.166   0.517   3.291  0.3844  0.7256 -0.4025
 9380TIP3   OH249554   3.101   4.816  13.546 -0.3946  0.2154  0.0002
 9380TIP3    H149555   3.067   4.742  13.596  0.5743 -0.4574 -0.2938
 9380TIP3    H249556   3.079   4.893  13.598 -1.3680 -0.2783  0.3384
 9381TIP3   OH249557   5.098   0.686  14.467 -0.0945 -0.1072 -0.2128
 9381TIP3    H149558   5.007   0.670  14.443 -0.2006  1.2322 -0.7489
 9381TIP3    H249559   5.095   0.754  14.534  0.4291 -1.3494  1.1412
 9382TIP3   OH249560   6.265   0.585   3.732 -0.1517 -0.3953 -0.3555
 9382TIP3    H149561   6.288   0.516   3.669 -0.3010 -1.9949  1.2676
 9382TIP3    H249562   6.220   0.540   3.802  1.9878  0.9069  2.0431
 9383TIP3   OH249563   6.127   4.435   1.532  0.0011 -0.4970 -0.0317
 9383TIP3    H149564   6.051   4.424   1.474 -0.2813  0.5538  0.0971
 9383TIP3    H249565   6.200   4.454   1.473  0.3867 -2.3668 -0.2175
 9384TIP3   OH249566   3.656   3.429   3.872 -0.1782  0.0412 -0.1214
 9384TIP3    H149567   3.708   3.444   3.951 -0.9782  0.9395  0.2505
 9384TIP3    H249568   3.635   3.336   3.876  1.8549 -0.4875 -0.5855
 9385TIP3   OH249569   3.082   6.740  12.817  0.0163 -0.0137 -0.1174
 9385TIP3    H149570   3.080   6.663  12.760  1.1206  1.1699 -1.8886
 9385TIP3    H249571   3.143   6.717  12.887  0.4935 -0.6973 -0.7355
 9386TIP3   OH249572   6.326   4.838   2.972 -0.1683 -0.5322 -0.4765
 9386TIP3    H149573   6.373   4.754   2.979  1.4503  0.0955 -2.4912
 9386TIP3    H249574   6.362   4.891   3.043 -0.6608 -1.2730  0.3528
 9387TIP3   OH249575   1.258   3.393  13.868  0.6480  0.3203 -0.4067
 9387TIP3    H149576   1.254   3.466  13.807  0.7589 -0.4699 -1.3761
 9387TIP3    H249577   1.232   3.316  13.817  0.5796 -0.3381  0.5755
 9388TIP3   OH249578   3.781   2.005   0.098 -1.0930  0.4258 -0.7410
 9388TIP3    H149579   3.733   2.087   0.090 -2.6191 -0.1037  1.8603
 9388TIP3    H249580   3.791   1.992   0.192  0.8707 -1.4224 -1.1258
 9389TIP3   OH249581   6.340   3.607  12.671  0.1319  0.4303 -0.0616
 9389TIP3    H149582   6.302   3.689  12.641  1.9233  1.0990 -0.6320
 9389TIP3    H249583   6.280   3.576  12.739 -1.9974  0.8212 -1.6361
 9390TIP3   OH249584   5.998   1.802   1.513  0.0004 -0.0437 -0.1059
 9390TIP3    H149585   5.927   1.825   1.452 -0.8183  2.6951  1.6765
 9390TIP3    H249586   6.062   1.873   1.503  1.2883 -1.1308  0.1445
 9391TIP3   OH249587   1.353   6.507  13.006  0.1761 -1.0048 -0.6060
 9391TIP3    H149588   1.307   6.426  12.982 -0.3749 -1.5767  2.0372
 9391TIP3    H249589   1.348   6.510  13.101 -1.8652  3.3233 -0.5835
 9392TIP3   OH249590   2.665   6.668   3.845  0.0546 -0.0964 -0.2321
 9392TIP3    H149591   2.659   6.605   3.774 -0.4313 -0.8975  0.4949
 9392TIP3    H249592   2.604   6.738   3.820  0.0130 -0.2879 -0.6808
 9393TIP3   OH249593   2.757   5.595  16.821  0.1628  0.1011 -0.0691
 9393TIP3    H149594   2.782   5.502  16.817  0.1046  0.1025 -0.6337
 9393TIP3    H249595   2.777   5.622  16.910  0.7469 -0.2995 -0.0764
 9394TIP3   OH249596   0.029   1.973  11.179  0.4243  0.2385  0.1833
 9394TIP3    H149597   0.065   1.954  11.266  2.2042  1.1317 -0.3046
 9394TIP3    H249598   0.052   1.897  11.126 -0.1341 -0.0471  0.3537
 9395TIP3   OH249599   5.762   5.922   5.537 -0.1139  0.6809  0.5449
 9395TIP3    H149600   5.795   5.984   5.603 -0.1923 -0.6560  1.9084
 9395TIP3    H249601   5.717   5.855   5.588  0.0705 -0.5679 -0.8651
 9396TIP3   OH249602   0.963   4.622   4.154 -0.0754 -0.0946  0.3614
 9396TIP3    H149603   0.876   4.583   4.146 -0.2782  0.5012 -0.3475
 9396TIP3    H249604   1.016   4.552   4.193  0.1135 -1.9588 -2.8742
 9397TIP3   OH249605   2.763   5.239   2.136 -0.2938  0.2763 -0.4634
 9397TIP3    H149606   2.821   5.183   2.187 -0.4879  0.2524 -0.2687
 9397TIP3    H249607   2.804   5.244   2.049  0.1277  0.4575 -0.2579
 9398TIP3   OH249608   4.664   1.948   3.268 -0.2961  0.1503  0.2712
 9398TIP3    H149609   4.626   1.966   3.354 -0.6736  1.0087 -0.0658
 9398TIP3    H249610   4.758   1.947   3.284 -0.3980 -1.0368  0.9333
 9399TIP3   OH249611   4.210   2.724  13.507  0.2836 -0.0025 -0.8063
 9399TIP3    H149612   4.267   2.688  13.575  1.2938  1.1240 -1.0299
 9399TIP3    H249613   4.269   2.747  13.435 -0.6003  0.1053 -1.5137
 9400TIP3   OH249614   2.481   5.356  12.779 -0.5956  0.0854 -0.4056
 9400TIP3    H149615   2.530   5.276  12.760 -0.0742 -0.0401  1.3494
 9400TIP3    H249616   2.495   5.372  12.872 -2.8146  0.7957 -0.1371
 9401TIP3   OH249617   2.705   6.496  15.809  0.1973  0.1340  0.2993
 9401TIP3    H149618   2.779   6.444  15.776  0.4193 -0.1056  1.1539
 9401TIP3    H249619   2.649   6.432  15.852 -1.0355  0.1449 -1.1829
 9402TIP3   OH249620   5.336   4.895   2.610  0.0317  0.2667  0.2697
 9402TIP3    H149621   5.367   4.961   2.672 -1.0063  0.3378  0.7416
 9402TIP3    H249622   5.290   4.831   2.664 -0.3692  0.0074 -0.3613
 9403TIP3   OH249623   3.542   6.015   3.740  0.0127  0.3926  0.0271
 9403TIP3    H149624   3.633   6.031   3.764  0.0323  1.4605 -0.6866
 9403TIP3    H249625   3.516   6.092   3.690 -0.9056 -0.4507 -0.8641
 9404TIP3   OH249626   5.202   2.512  17.036 -0.3235 -0.3170  0.2044
 9404TIP3    H149627   5.263   2.518  16.963 -0.7075  0.2755 -0.0725
 9404TIP3    H249628   5.233   2.437  17.087 -0.9604 -1.7475 -1.3931
 9405TIP3   OH249629   3.819   2.705   1.156  0.1215  0.1270 -0.3752
 9405TIP3    H149630   3.738   2.672   1.117  0.3868 -1.0355  0.0399
 9405TIP3    H249631   3.792   2.738   1.242 -0.3489  2.1213 -1.2173
 9406TIP3   OH249632   4.127   3.944   2.332  0.1386 -0.3377 -0.4824
 9406TIP3    H149633   4.064   4.015   2.337 -0.1495 -0.2520 -3.6566
 9406TIP3    H249634   4.205   3.983   2.292  0.4097 -1.4932 -1.1496
 9407TIP3   OH249635   0.901   3.251   2.858  0.4868  0.5023 -0.3407
 9407TIP3    H149636   0.846   3.287   2.928  1.0584  1.4531 -0.3704
 9407TIP3    H249637   0.843   3.190   2.812 -0.6140  1.6449 -0.5135
 9408TIP3   OH249638   5.022   2.522  13.581  0.1085  0.3362 -0.0126
 9408TIP3    H149639   4.994   2.436  13.549  0.8784 -0.3798  1.1780
 9408TIP3    H249640   5.058   2.566  13.503 -2.1380  0.4117 -1.0953
 9409TIP3   OH249641   4.181   4.046   3.795  0.6827 -0.5264  0.4516
 9409TIP3    H149642   4.224   4.121   3.837  1.6982 -0.7433 -0.1695
 9409TIP3    H249643   4.101   4.033   3.846  0.7448  0.6608  0.8770
 9410TIP3   OH249644   1.805   3.556  15.785  0.3180 -0.2164  0.0848
 9410TIP3    H149645   1.868   3.627  15.775  0.0075  0.1598  0.7699
 9410TIP3    H249646   1.856   3.483  15.822  0.2689  0.2374  1.0808
 9411TIP3   OH249647   0.503   0.593  16.301  0.1072  0.1446 -0.1348
 9411TIP3    H149648   0.598   0.588  16.289  0.2901  0.5017  1.0167
 9411TIP3    H249649   0.478   0.506  16.330  0.0495 -0.0127 -0.6581
 9412TIP3   OH249650   1.629   0.583  16.237  0.0565  0.3081  0.5408
 9412TIP3    H149651   1.589   0.667  16.214 -0.9747 -0.1375  0.6614
 9412TIP3    H249652   1.687   0.563  16.163 -0.1448  0.8335  0.2341
 9413TIP3   OH249653   5.645   0.172  11.746 -0.7013  0.4516 -0.0436
 9413TIP3    H149654   5.689   0.139  11.824  2.3522  1.7664 -1.0919
 9413TIP3    H249655   5.561   0.204  11.778 -1.6799 -3.3749  1.8299
 9414TIP3   OH249656   1.766   5.702  13.001  0.2483 -0.1771 -0.3661
 9414TIP3    H149657   1.746   5.733  12.913 -1.5715  1.0525  0.4231
 9414TIP3    H249658   1.681   5.679  13.038  0.2406  3.6064  2.5934
 9415TIP3   OH249659   1.341   1.656   2.637 -0.1554 -0.1972 -0.0239
 9415TIP3    H149660   1.249   1.665   2.661 -0.6045 -0.2548 -1.6132
 9415TIP3    H249661   1.389   1.700   2.707 -1.4824  1.3246 -0.0299
 9416TIP3   OH249662   4.036   5.396  13.345  0.1425 -0.1280  0.1745
 9416TIP3    H149663   4.104   5.331  13.330 -0.3809 -0.3912 -1.2728
 9416TIP3    H249664   3.956   5.354  13.314 -0.8470 -0.1233  2.5564
 9417TIP3   OH249665   1.507   1.073  14.474  0.0729  0.5886 -0.3633
 9417TIP3    H149666   1.485   1.001  14.532  0.7581 -0.9889 -1.9853
 9417TIP3    H249667   1.448   1.144  14.501 -2.9078 -1.5658 -0.7310
 9418TIP3   OH249668   2.803   0.541   2.345  0.3127  0.0024 -0.6987
 9418TIP3    H149669   2.734   0.588   2.392  0.5399  0.0913 -0.4487
 9418TIP3    H249670   2.885   0.576   2.381  0.4929  0.0891 -1.1779
 9419TIP3   OH249671   0.493   3.705   1.264 -0.8402 -1.0185 -0.2154
 9419TIP3    H149672   0.471   3.689   1.356 -1.2536  0.7345  0.0386
 9419TIP3    H249673   0.409   3.709   1.219 -0.7767  0.2676 -0.2536
 9420TIP3   OH249674   5.934   5.185  13.266  0.1801 -0.3348 -0.4459
 9420TIP3    H149675   5.861   5.241  13.290  0.8463 -0.2825  1.6460
 9420TIP3    H249676   6.012   5.233  13.294  0.8216 -1.8080  0.4233
 9421TIP3   OH249677   5.768   6.743   3.622 -0.5877 -0.1387 -0.2628
 9421TIP3    H149678   5.767   6.765   3.715 -2.8480 -1.7706  0.1800
 9421TIP3    H249679   5.753   6.649   3.619  0.3672 -0.2859 -2.2941
 9422TIP3   OH249680   1.314   3.668   1.344 -0.5932 -0.1591 -0.9965
 9422TIP3    H149681   1.241   3.611   1.369  0.4516 -2.1811 -2.2304
 9422TIP3    H249682   1.374   3.610   1.298  1.5650  1.5562 -0.4986
 9423TIP3   OH249683   2.414   5.894   2.703 -0.5625  0.5774 -0.6182
 9423TIP3    H149684   2.384   5.927   2.788 -0.1399  0.5924 -0.4725
 9423TIP3    H249685   2.344   5.836   2.674 -1.2273  1.4346 -0.7797
 9424TIP3   OH249686   5.171   6.244   1.860 -1.0119  0.0751 -0.1682
 9424TIP3    H149687   5.228   6.316   1.832 -0.8906  0.2225  0.4323
 9424TIP3    H249688   5.105   6.287   1.915 -1.6409 -0.1096 -0.7736
 9425TIP3   OH249689   0.073   5.252   6.181  0.0362  0.0779  0.3466
 9425TIP3    H149690   0.076   5.339   6.140  0.2786  0.4535  1.1268
 9425TIP3    H249691   0.164   5.236   6.208  0.4916 -1.4841 -1.9031
 9426TIP3   OH249692   0.419   2.975  13.542 -0.0513 -0.3625 -0.0296
 9426TIP3    H149693   0.406   3.020  13.625 -2.4908  0.3253 -0.7010
 9426TIP3    H249694   0.332   2.971  13.503  0.3515 -3.9169 -0.9360
 9427TIP3   OH249695   3.345   0.286  13.490  0.0212 -0.5164  0.1729
 9427TIP3    H149696   3.381   0.209  13.447 -1.5157 -0.9244 -0.4312
 9427TIP3    H249697   3.263   0.303  13.445 -0.8245  0.0650  1.8386
 9428TIP3   OH249698   2.990   3.052  13.582  0.1864  0.2479  0.1391
 9428TIP3    H149699   2.897   3.071  13.592 -0.1464 -1.9284  1.7966
 9428TIP3    H249700   3.025   3.054  13.671  1.5494  0.1270 -0.3645
 9429TIP3   OH249701   2.830   5.100   4.694  0.3961  0.5663 -0.3002
 9429TIP3    H149702   2.909   5.152   4.677  1.6372 -0.9284  0.6610
 9429TIP3    H249703   2.782   5.152   4.759  0.9404  1.1549 -0.3519
 9430TIP3   OH249704   3.657   2.993   3.197 -0.3556  0.0212 -0.2261
 9430TIP3    H149705   3.752   2.977   3.200 -0.0366  1.6464 -0.7359
 9430TIP3    H249706   3.639   3.006   3.104 -0.9691  0.3646 -0.0586
 9431TIP3   OH249707   6.814   0.684  14.543  0.4420  0.2348 -0.0147
 9431TIP3    H149708   6.747   0.699  14.610  0.6023  1.0371 -0.0233
 9431TIP3    H249709   6.772   0.708  14.461  0.2464 -0.7466 -0.2173
 9432TIP3   OH249710   2.572   0.150   3.884 -0.2069  0.3220  0.0541
 9432TIP3    H149711   2.527   0.159   3.801 -2.2621  0.8933  1.1675
 9432TIP3    H249712   2.636   0.221   3.884 -0.4231  0.5322 -0.8856
 9433TIP3   OH249713   6.780   4.283  15.859  0.1049  0.3897 -1.0004
 9433TIP3    H149714   6.849   4.345  15.838  1.8487  0.3464  3.4804
 9433TIP3    H249715   6.822   4.197  15.853  0.2590  0.2975  0.7993
 9434TIP3   OH249716   5.139   2.691  12.370 -0.6905 -0.3233 -0.0594
 9434TIP3    H149717   5.142   2.737  12.286 -0.2469  0.6349  0.4800
 9434TIP3    H249718   5.045   2.685  12.389 -0.8462 -1.2722 -1.0007
 9435TIP3   OH249719   3.522   2.827  14.000 -0.1245  0.2386 -0.5352
 9435TIP3    H149720   3.606   2.803  14.039 -1.1852  0.4416  2.0440
 9435TIP3    H249721   3.461   2.759  14.029 -1.3077  1.2725 -0.5291
 9436TIP3   OH249722   0.826   2.062  12.834  0.3232 -0.4416 -0.0048
 9436TIP3    H149723   0.748   2.095  12.878  0.0666  2.1203 -2.1707
 9436TIP3    H249724   0.895   2.125  12.856  1.1996 -1.3540 -0.0462
 9437TIP3   OH249725   4.575   6.503  13.351 -0.2764  0.4258  0.1581
 9437TIP3    H149726   4.563   6.519  13.445  0.6127 -1.4318  0.6305
 9437TIP3    H249727   4.569   6.408  13.342  1.8805  0.3756 -1.3459
 9438TIP3   OH249728   3.546   5.349  14.638 -0.0848  0.1246  0.9074
 9438TIP3    H149729   3.551   5.299  14.720  2.7541 -1.8050 -0.2847
 9438TIP3    H249730   3.582   5.435  14.662  1.1271 -0.5517  1.6440
 9439TIP3   OH249731   3.159   4.108   3.312  0.0155 -0.2944 -0.3575
 9439TIP3    H149732   3.157   4.022   3.269 -0.1918 -0.3644 -0.2115
 9439TIP3    H249733   3.146   4.171   3.242 -0.0332 -0.3926 -0.4368
 9440TIP3   OH249734   3.041   5.156  11.017  0.4847  0.6490 -0.0873
 9440TIP3    H149735   3.090   5.230  10.980  2.4593  0.0221  1.1538
 9440TIP3    H249736   3.034   5.093  10.945  0.3732  1.2747 -0.6326
 9441TIP3   OH249737   1.195   0.055   1.829 -0.4681 -0.4907  0.1126
 9441TIP3    H149738   1.272   0.018   1.873  0.4001  0.4898 -0.5500
 9441TIP3    H249739   1.123   0.042   1.891  0.0785 -1.9926  0.4870
 9442TIP3   OH249740   2.592   1.534  10.563 -0.0615  0.2215 -0.3252
 9442TIP3    H149741   2.534   1.604  10.592  1.6779  1.5216  0.1731
 9442TIP3    H249742   2.533   1.469  10.524 -2.1590  0.1407  2.6164
 9443TIP3   OH249743   5.541   3.769   5.284 -0.4536  1.3124 -0.7663
 9443TIP3    H149744   5.516   3.686   5.324 -0.1726  1.5386 -0.1009
 9443TIP3    H249745   5.542   3.752   5.190  1.1742  0.1084 -0.5733
 9444TIP3   OH249746   5.775   5.354  14.225  0.0095 -0.1765  0.1664
 9444TIP3    H149747   5.817   5.421  14.171  0.3197 -0.2661  0.2922
 9444TIP3    H249748   5.705   5.400  14.270 -1.3719 -0.4608 -1.5982
 9445TIP3   OH249749   4.865   2.516  14.343 -0.4698 -0.1489 -0.4714
 9445TIP3    H149750   4.875   2.506  14.437  0.9812  0.1230 -0.5828
 9445TIP3    H249751   4.945   2.478  14.305  0.0143  1.7391 -1.4609
 9446TIP3   OH249752   1.171   5.802  16.428 -0.1729 -0.1684  0.0968
 9446TIP3    H149753   1.123   5.859  16.368  0.9598 -0.2757 -0.9521
 9446TIP3    H249754   1.263   5.823  16.413  0.1498  0.4241  2.4464
 9447TIP3   OH249755   6.643   6.414   2.017  0.7687 -0.2419  0.4289
 9447TIP3    H149756   6.675   6.449   2.100  1.3114 -2.6287  1.3174
 9447TIP3    H249757   6.722   6.386   1.971  0.3504 -1.1663  0.2342
 9448TIP3   OH249758   4.653   4.197   2.930 -0.1683  0.8121  0.3075
 9448TIP3    H149759   4.559   4.199   2.912 -0.2126 -0.2449  0.3745
 9448TIP3    H249760   4.663   4.253   3.008 -1.0047 -0.4468  1.3711
 9449TIP3   OH249761   1.956   1.585   3.502 -0.4817  1.5902 -0.4353
 9449TIP3    H149762   2.024   1.557   3.441  0.4332  1.5321  0.5913
 9449TIP3    H249763   1.942   1.677   3.481 -0.3925  1.4951 -0.9309
 9450TIP3   OH249764   6.802   0.355   2.307  0.3453  0.5650 -0.1079
 9450TIP3    H149765   6.829   0.447   2.309  0.8041  0.4272  0.0135
 9450TIP3    H249766   6.769   0.339   2.396 -0.5913  0.8633 -0.3872
 9451TIP3   OH249767   3.098   0.420   1.131 -0.1754  0.1588 -0.5997
 9451TIP3    H149768   3.061   0.498   1.173 -1.2745  0.0171 -1.2559
 9451TIP3    H249769   3.177   0.451   1.088  0.3866  0.5244  0.6573
 9452TIP3   OH249770   0.797   3.749   2.391  0.2958  0.3251  0.2070
 9452TIP3    H149771   0.872   3.769   2.336  0.2620 -0.3126 -0.0851
 9452TIP3    H249772   0.782   3.655   2.377 -1.9485  0.8494 -1.4941
 9453TIP3   OH249773   5.963   2.155   5.850  0.0477  0.6086 -0.3885
 9453TIP3    H149774   5.985   2.246   5.829 -0.7987  0.7254 -0.8261
 9453TIP3    H249775   6.008   2.137   5.932 -0.9775  1.9042  0.4871
 9454TIP3   OH249776   4.064   2.024   0.883 -0.0691  0.3322  0.9554
 9454TIP3    H149777   4.002   1.952   0.889  1.8276 -1.5723 -0.6886
 9454TIP3    H249778   4.044   2.080   0.958 -1.5280 -1.9804  2.4149
 9455TIP3   OH249779   2.480   2.810  11.278 -0.2895  0.2834  0.5190
 9455TIP3    H149780   2.404   2.866  11.293 -0.1129  0.7069 -0.1379
 9455TIP3    H249781   2.512   2.835  11.191  1.7211  1.4509  1.5242
 9456TIP3   OH249782   2.162   6.094   2.765  0.7016 -0.3310 -0.3731
 9456TIP3    H149783   2.102   6.072   2.837 -0.3550  2.1800 -0.3709
 9456TIP3    H249784   2.244   6.117   2.808 -0.2649  2.2965  0.2543
 9457TIP3   OH249785   3.433   1.321   2.946 -0.8343  0.2646 -0.3353
 9457TIP3    H149786   3.453   1.409   2.915  4.5342 -0.4781  0.0279
 9457TIP3    H249787   3.435   1.266   2.868  2.1377 -0.1921 -0.0577
 9458TIP3   OH249788   4.020   2.078  16.216  0.2050 -0.0226 -0.0149
 9458TIP3    H149789   4.078   2.092  16.291  1.1098  1.1968 -0.9026
 9458TIP3    H249790   4.024   1.984  16.199  0.7076 -0.1781  0.8769
 9459TIP3   OH249791   2.532   0.852  10.435  0.2270  0.1972  0.0751
 9459TIP3    H149792   2.512   0.765  10.469 -0.3162  0.2443 -0.1154
 9459TIP3    H249793   2.541   0.840  10.340 -1.2036  0.5717 -0.1315
 9460TIP3   OH249794   3.868   4.022  16.003 -0.3071 -0.1450 -0.2859
 9460TIP3    H149795   3.829   4.076  15.935  1.6326  2.2249  0.3471
 9460TIP3    H249796   3.801   4.015  16.071 -1.3803 -0.4893 -1.3587
 9461TIP3   OH249797   0.468   4.111   0.349 -0.6459  0.2922 -0.1423
 9461TIP3    H149798   0.559   4.137   0.364 -0.8734 -0.1183  2.4264
 9461TIP3    H249799   0.469   4.068   0.264  1.5599  0.3051 -0.1785
 9462TIP3   OH249800   0.025   3.545  14.286  0.3621 -0.2564 -0.3610
 9462TIP3    H149801  -0.036   3.542  14.213  1.9240  0.2320 -1.7329
 9462TIP3    H249802   0.011   3.462  14.332 -1.9760  0.2484 -0.0283
 9463TIP3   OH249803   4.400   1.544  12.314 -0.4028 -0.4471  0.0645
 9463TIP3    H149804   4.311   1.510  12.303 -0.8305 -0.0918  2.0220
 9463TIP3    H249805   4.389   1.639  12.312 -0.5123 -0.3347  2.7502
 9464TIP3   OH249806   4.503   6.380  14.665 -0.3704  0.1949  0.2548
 9464TIP3    H149807   4.588   6.353  14.630 -1.5033 -2.8465 -0.4639
 9464TIP3    H249808   4.467   6.439  14.599  0.6295  0.4693 -0.0647
 9465TIP3   OH249809   2.878   2.570  16.705  0.0024 -0.5044 -0.6036
 9465TIP3    H149810   2.789   2.604  16.690 -0.2308 -1.2468 -0.9238
 9465TIP3    H249811   2.871   2.519  16.785  0.0177 -0.9710 -0.8918
 9466TIP3   OH249812   0.548   5.516  14.807  0.0819 -0.1989 -0.0341
 9466TIP3    H149813   0.604   5.536  14.881 -0.2264 -1.3877  0.5363
 9466TIP3    H249814   0.606   5.475  14.743  0.0822 -0.4549  0.1275
 9467TIP3   OH249815   2.502   4.961  14.443 -0.0095 -0.2834 -0.3674
 9467TIP3    H149816   2.482   5.048  14.477 -1.3495 -0.1987 -1.3205
 9467TIP3    H249817   2.554   4.977  14.364  0.1127 -0.3738 -0.3068
 9468TIP3   OH249818   1.239   5.014  16.648  0.3867  0.5717 -0.0416
 9468TIP3    H149819   1.307   4.957  16.686  0.4816  1.6039  1.4183
 9468TIP3    H249820   1.183   5.037  16.722 -0.0121  1.8639 -0.7178
 9469TIP3   OH249821   1.980   1.488  14.288 -0.0510 -0.4745  0.0502
 9469TIP3    H149822   1.935   1.514  14.369 -0.7401  3.4809 -1.3774
 9469TIP3    H249823   2.063   1.453  14.318 -0.9098 -0.6351  2.5237
 9470TIP3   OH249824   5.820   5.130  16.800  0.3655 -0.5720  0.1663
 9470TIP3    H149825   5.910   5.138  16.832  0.3903  0.8402 -0.1629
 9470TIP3    H249826   5.790   5.221  16.792 -0.0437 -0.8565 -2.6169
 9471TIP3   OH249827   1.905   2.295   4.535  0.0958  0.0208 -0.1987
 9471TIP3    H149828   1.926   2.269   4.445  2.7951  2.2968 -0.3321
 9471TIP3    H249829   1.954   2.234   4.589 -0.3697 -0.4367 -0.2841
 9472TIP3   OH249830   2.554   4.140  12.185  0.1579 -0.2059 -0.2226
 9472TIP3    H149831   2.534   4.065  12.241 -2.3534  0.5426 -0.0266
 9472TIP3    H249832   2.528   4.216  12.236  3.3703  0.9699 -0.1074
 9473TIP3   OH249833   3.137   4.367  13.711  1.0216 -0.2667  0.0172
 9473TIP3    H149834   3.120   4.286  13.661 -1.3070 -1.2693  2.1699
 9473TIP3    H249835   3.070   4.428  13.680  0.9973 -0.1328  0.3317
 9474TIP3   OH249836   2.875   0.351  13.703  0.4476  0.4893 -0.2816
 9474TIP3    H149837   2.944   0.314  13.647  0.5751  0.7285 -0.2848
 9474TIP3    H249838   2.859   0.438  13.667  0.3926  0.5689 -0.0646
 9475TIP3   OH249839   4.404   2.793   3.141 -0.4504  0.5495  0.1228
 9475TIP3    H149840   4.432   2.807   3.231  1.0093  0.0315 -0.2287
 9475TIP3    H249841   4.389   2.699   3.134 -1.1373  0.6631 -0.0291
 9476TIP3   OH249842   4.467   6.612   0.624 -0.7356 -1.0171 -0.0776
 9476TIP3    H149843   4.400   6.680   0.620 -2.5737 -2.7840 -1.7746
 9476TIP3    H249844   4.511   6.616   0.540  1.6664  0.3380  1.1286
 9477TIP3   OH249845   4.398   3.290  12.961  0.0999  0.2046  0.1405
 9477TIP3    H149846   4.320   3.318  13.009 -0.7925 -0.4531 -0.8646
 9477TIP3    H249847   4.447   3.370  12.946 -0.8863  0.8009 -0.0396
 9478TIP3   OH249848   0.468   2.199  13.766 -0.3722  0.1051 -0.6362
 9478TIP3    H149849   0.530   2.126  13.755 -0.3056  0.3192 -1.9179
 9478TIP3    H249850   0.385   2.156  13.787 -0.5587 -0.4443 -2.3347
 9479TIP3   OH249851   0.775   3.069  15.899 -0.1666  0.4066  0.5904
 9479TIP3    H149852   0.786   3.141  15.961 -0.8610  0.2264  0.9298
 9479TIP3    H249853   0.864   3.049  15.870  0.0472  1.3163  0.5788
 9480TIP3   OH249854   1.729   1.409   3.890 -0.1451  0.2913 -0.3258
 9480TIP3    H149855   1.671   1.470   3.845 -0.7900 -0.4035 -0.4431
 9480TIP3    H249856   1.732   1.332   3.833 -0.6407 -0.4332  0.6104
 9481TIP3   OH249857   2.910   1.326  16.856  0.2151  0.7047  0.0920
 9481TIP3    H149858   2.953   1.245  16.882 -1.2007  0.3268  1.3795
 9481TIP3    H249859   2.974   1.369  16.799  1.6621 -0.5231  0.7020
 9482TIP3   OH249860   0.086   2.206   0.557 -0.0330 -0.4326  0.0807
 9482TIP3    H149861   0.136   2.213   0.475 -1.8354  0.7468 -0.9608
 9482TIP3    H249862   0.130   2.267   0.617  0.7779 -0.6658 -0.2564
 9483TIP3   OH249863   0.458   4.512  15.521  0.2939 -0.1980  0.3618
 9483TIP3    H149864   0.389   4.522  15.586  0.6669 -1.4469  0.9598
 9483TIP3    H249865   0.458   4.596  15.474 -1.8813 -0.2914  0.0865
 9484TIP3   OH249866   3.531   3.700  14.623 -0.2553  0.4923  0.0551
 9484TIP3    H149867   3.480   3.637  14.572  0.2842 -0.2407  0.4130
 9484TIP3    H249868   3.465   3.747  14.674 -0.8306  1.3778 -1.4270
 9485TIP3   OH249869   2.853   4.109   0.019  0.6776  0.1365  0.1333
 9485TIP3    H149870   2.893   4.022   0.016  1.7069  0.4746  2.4669
 9485TIP3    H249871   2.841   4.133  -0.073  1.8066 -1.8072 -0.5721
 9486TIP3   OH249872   1.869   2.969   3.098 -0.2878  0.4914  0.3835
 9486TIP3    H149873   1.867   3.018   3.015 -0.6998  0.6959  0.5116
 9486TIP3    H249874   1.825   2.886   3.078  1.0700 -0.1547 -0.0320
 9487TIP3   OH249875   6.147   0.059  10.989  0.4547 -0.0926  0.3720
 9487TIP3    H149876   6.181   0.123  10.927 -0.8316  0.9407  0.7022
 9487TIP3    H249877   6.215   0.052  11.056  1.1454 -0.0049 -0.3156
 9488TIP3   OH249878   1.785   4.359  11.280 -0.3388 -0.3131 -0.4239
 9488TIP3    H149879   1.780   4.421  11.207  0.2452 -0.9786 -1.0519
 9488TIP3    H249880   1.867   4.379  11.324 -1.2358  0.8661  0.8091
 9489TIP3   OH249881   1.963   1.303   4.247 -0.6454  0.2839 -0.1728
 9489TIP3    H149882   2.009   1.381   4.278 -0.0235 -0.1781  0.0823
 9489TIP3    H249883   1.883   1.337   4.207 -0.1205  1.0953 -0.5608
 9490TIP3   OH249884   1.902   3.475  15.291  0.1989 -0.1232  0.2869
 9490TIP3    H149885   1.818   3.449  15.329  0.0092  1.2180  0.8301
 9490TIP3    H249886   1.950   3.515  15.363  0.3829  1.2007 -0.5359
 9491TIP3   OH249887   2.845   2.289  16.153 -0.1060  0.4230 -0.1436
 9491TIP3    H149888   2.795   2.270  16.074 -1.7180  1.8294  0.4659
 9491TIP3    H249889   2.929   2.247  16.140 -0.9956 -0.9447 -1.7985
 9492TIP3   OH249890   4.245   6.126   5.437  0.3814  0.8468  0.4962
 9492TIP3    H149891   4.224   6.191   5.370 -1.2495  0.5859  0.7145
 9492TIP3    H249892   4.286   6.054   5.388  0.9406  1.4448  0.0660
 9493TIP3   OH249893   5.219   0.330  15.375 -0.1456 -0.0156  0.3868
 9493TIP3    H149894   5.251   0.273  15.445 -0.8975  0.8576  1.4924
 9493TIP3    H249895   5.151   0.279  15.330  0.6017 -0.7203  0.0431
 9494TIP3   OH249896   6.112   0.146   5.332  0.5313 -0.2458 -0.3092
 9494TIP3    H149897   6.053   0.157   5.406 -1.0130  0.8782 -1.6272
 9494TIP3    H249898   6.138   0.235   5.308  0.6385 -0.5497 -1.3945
 9495TIP3   OH249899   2.209   1.004  15.418 -0.0878 -0.3060 -0.0828
 9495TIP3    H149900   2.292   0.962  15.397 -0.8051 -1.8943  0.1008
 9495TIP3    H249901   2.142   0.938  15.395 -1.1930  0.2068  1.4873
 9496TIP3   OH249902   6.400   3.007   5.666 -0.4990 -0.5143 -0.2688
 9496TIP3    H149903   6.331   3.047   5.612  1.3060 -0.0022 -2.3463
 9496TIP3    H249904   6.407   2.918   5.634  0.0503 -0.4487 -0.3364
 9497TIP3   OH249905   1.814   1.394   1.255  0.1424  0.3269  0.0453
 9497TIP3    H149906   1.719   1.390   1.262  0.0481 -1.5783 -1.3802
 9497TIP3    H249907   1.846   1.333   1.322  0.2096 -0.9317 -1.0940
 9498TIP3   OH249908   6.112   5.290   1.462  0.3752  0.3988 -0.3033
 9498TIP3    H149909   6.037   5.319   1.410  0.7787 -0.7830 -1.6125
 9498TIP3    H249910   6.083   5.207   1.501  0.9130  0.0317 -0.6682
 9499TIP3   OH249911   2.863   5.019   6.396 -0.3094  0.1662  0.3104
 9499TIP3    H149912   2.887   4.935   6.356  2.2015  1.7751 -1.9491
 9499TIP3    H249913   2.920   5.026   6.473  2.8658  1.5127 -1.9247
 9500TIP3   OH249914   0.965   3.713  13.791  0.4368  0.0096 -0.3021
 9500TIP3    H149915   0.935   3.677  13.874  2.4675 -1.3489 -0.0920
 9500TIP3    H249916   1.048   3.668  13.773  0.6432  1.1002 -2.4928
 9501TIP3   OH249917   6.781   6.443  11.985 -0.3570 -0.0495  0.0431
 9501TIP3    H149918   6.837   6.395  11.924  1.1809  0.5699  0.9056
 9501TIP3    H249919   6.839   6.468  12.057 -1.8579  0.2273  1.2281
 9502TIP3   OH249920   4.415   2.779  13.320 -0.0103  0.1087 -0.0656
 9502TIP3    H149921   4.380   2.856  13.277  0.8953  0.4689 -0.1893
 9502TIP3    H249922   4.467   2.735  13.252 -0.3863 -0.5248  0.0468
 9503TIP3   OH249923   6.239   5.650  13.868 -0.2041 -0.2626  0.3836
 9503TIP3    H149924   6.314   5.653  13.809 -1.3647 -0.1865 -1.1603
 9503TIP3    H249925   6.242   5.733  13.915 -0.2110  0.4608 -0.8425
 9504TIP3   OH249926   2.072   2.556  13.039 -0.3383 -0.4443  0.1776
 9504TIP3    H149927   2.045   2.636  13.085 -0.7808 -0.7300  0.4310
 9504TIP3    H249928   2.083   2.492  13.109 -0.1548 -0.6502 -0.0402
 9505TIP3   OH249929   5.196   4.126   0.495 -0.2515 -0.0024 -0.2301
 9505TIP3    H149930   5.291   4.141   0.500 -0.0805  0.5405 -3.0920
 9505TIP3    H249931   5.186   4.060   0.427 -1.9191 -0.8312  0.7649
 9506TIP3   OH249932   2.017   4.119   2.562 -0.1586 -0.1645  0.3728
 9506TIP3    H149933   2.042   4.202   2.602 -0.4994  0.2353 -0.2238
 9506TIP3    H249934   2.054   4.122   2.474 -1.9043  0.2683 -0.3843
 9507TIP3   OH249935   3.372   2.639   3.868  0.5523 -0.3975  0.3688
 9507TIP3    H149936   3.422   2.715   3.839 -0.2827 -0.0870 -0.2866
 9507TIP3    H249937   3.432   2.565   3.854  0.1449 -0.3140 -2.4405
 9508TIP3   OH249938   0.585   2.011  11.554 -0.7072  0.0813 -0.0956
 9508TIP3    H149939   0.512   1.966  11.597 -0.4014 -0.0930  0.2381
 9508TIP3    H249940   0.550   2.035  11.468 -0.6489 -1.4607 -0.5918
 9509TIP3   OH249941   4.898   0.171   2.883  0.6261 -0.8244  0.0639
 9509TIP3    H149942   4.814   0.136   2.853  0.4283 -0.2814 -0.0251
 9509TIP3    H249943   4.963   0.116   2.839  0.3557  0.0822 -1.5724
 9510TIP3   OH249944   1.562   5.879  12.237 -0.2651 -0.1958  0.7573
 9510TIP3    H149945   1.503   5.954  12.244 -0.1698 -0.1922  1.6681
 9510TIP3    H249946   1.510   5.804  12.266 -0.7137 -0.6960 -1.2249
 9511TIP3   OH249947   4.720   2.619  16.143 -0.0023 -0.3919 -0.2974
 9511TIP3    H149948   4.709   2.713  16.160 -1.4127 -0.2031 -1.9598
 9511TIP3    H249949   4.807   2.612  16.104  1.0067 -0.1172  1.7775
 9512TIP3   OH249950   3.919   4.374   4.309 -0.5831 -0.3421 -0.2754
 9512TIP3    H149951   4.006   4.409   4.294 -0.1928 -1.0129  0.3320
 9512TIP3    H249952   3.924   4.335   4.397 -0.5043 -3.2485 -1.4377
 9513TIP3   OH249953   4.951   2.781   6.342  0.7537  0.3118  0.3352
 9513TIP3    H149954   4.925   2.696   6.377  0.2901  0.5165  0.4933
 9513TIP3    H249955   4.939   2.773   6.247 -0.3766  0.5646  0.4472
 9514TIP3   OH249956   5.940   4.680  14.888  0.0500  0.3469 -0.1049
 9514TIP3    H149957   5.921   4.604  14.943  1.4418 -0.5128 -0.7607
 9514TIP3    H249958   6.011   4.725  14.934 -0.0926  0.7092 -0.2345
 9515TIP3   OH249959   2.842   3.663  11.074 -0.2921  0.0404 -0.2661
 9515TIP3    H149960   2.930   3.667  11.038  0.5856  0.0257  1.7664
 9515TIP3    H249961   2.811   3.754  11.071 -1.2811 -0.2796 -3.3100
 9516TIP3   OH249962   5.118   6.393   1.079  0.2522 -0.0601 -0.0477
 9516TIP3    H149963   5.135   6.337   1.003  3.1851  1.3587 -0.5286
 9516TIP3    H249964   5.025   6.417   1.070  0.2895 -0.6162 -2.6940
 9517TIP3   OH249965   3.883   0.163   4.658  0.2452 -0.1725  0.6679
 9517TIP3    H149966   3.810   0.213   4.695  0.4904  1.3618 -0.7882
 9517TIP3    H249967   3.866   0.073   4.684 -1.9329  0.2077  0.7477
 9518TIP3   OH249968   3.379   3.348  15.237  0.3624  0.1922  0.6021
 9518TIP3    H149969   3.404   3.379  15.324 -1.6765  1.5199  0.8063
 9518TIP3    H249970   3.430   3.403  15.177 -1.3297  2.3598  0.9957
 9519TIP3   OH249971   1.554   6.736  15.777 -0.0991 -0.7404 -0.6247
 9519TIP3    H149972   1.606   6.713  15.853  2.9191  1.2815 -1.8527
 9519TIP3    H249973   1.591   6.685  15.705 -0.2782  0.2003 -1.4180
 9520TIP3   OH249974   6.010   1.578   4.091  0.3471 -0.0834  0.1850
 9520TIP3    H149975   5.916   1.560   4.094 -0.0096  1.4989 -0.4918
 9520TIP3    H249976   6.047   1.505   4.042 -0.4646 -0.9616  0.8601
 9521TIP3   OH249977   3.821   6.131   5.128  0.2684  0.3402  0.1427
 9521TIP3    H149978   3.910   6.157   5.150 -0.3875  1.5016  1.5373
 9521TIP3    H249979   3.765   6.192   5.176 -1.2859 -0.0585 -1.0781
 9522TIP3   OH249980   1.719   6.261   6.077 -0.4286  0.3324 -0.3124
 9522TIP3    H149981   1.808   6.248   6.043 -1.6516 -3.3367 -2.6040
 9522TIP3    H249982   1.689   6.341   6.033  1.3573  1.1595 -0.1541
 9523TIP3   OH249983   0.267   3.326   6.438  0.5600 -0.0488 -0.0679
 9523TIP3    H149984   0.358   3.299   6.431  1.0913  1.7851 -0.7210
 9523TIP3    H249985   0.256   3.351   6.530  0.8001 -0.0037 -0.0522
 9524TIP3   OH249986   4.403   6.257  16.125 -0.4146  0.0181 -0.3231
 9524TIP3    H149987   4.311   6.235  16.141 -0.8435  1.9730  0.1289
 9524TIP3    H249988   4.404   6.296  16.038 -0.6101  2.7686  0.7922
 9525TIP3   OH249989   0.809   6.439   2.248  0.8575  0.4702  0.7024
 9525TIP3    H149990   0.898   6.446   2.212  0.8420 -0.4879  0.4616
 9525TIP3    H249991   0.805   6.507   2.315  1.8157  0.4421  0.7998
 9526TIP3   OH249992   4.871   5.191   2.292 -0.4933  0.2090 -0.3308
 9526TIP3    H149993   4.795   5.248   2.293 -0.3842  0.4031 -1.5578
 9526TIP3    H249994   4.857   5.130   2.365 -1.8459  0.1999 -0.5910
 9527TIP3   OH249995   2.211   4.502   4.038  1.2901  0.3377 -0.2898
 9527TIP3    H149996   2.158   4.538   4.109  2.2336 -0.2506  0.7585
 9527TIP3    H249997   2.290   4.556   4.037  1.7907 -0.3754 -0.1103
 9528TIP3   OH249998   3.035   3.019  12.690 -0.4015 -0.4697 -0.0145
 9528TIP3    H149999   3.032   2.951  12.623  1.5182 -0.6113 -0.0040
 9528TIP3    H250000   3.126   3.019  12.721 -0.8944  0.5764  1.5711
 9529TIP3   OH250001   6.165   6.180   2.193 -0.4591  0.3256  0.0519
 9529TIP3    H150002   6.150   6.088   2.171 -0.5315 -0.3910  2.7652
 9529TIP3    H250003   6.162   6.225   2.109  3.2998 -2.5713 -1.9846
 9530TIP3   OH250004   2.070   1.069   6.092  0.6366 -0.0524  0.4940
 9530TIP3    H150005   2.088   1.048   6.001 -0.7029  0.0661  0.1953
 9530TIP3    H250006   2.022   1.152   6.089 -0.5489 -0.6919  1.2183
 9531TIP3   OH250007   0.303   6.348   6.630 -0.2095 -0.2010  0.0646
 9531TIP3    H150008   0.317   6.265   6.675 -1.7207 -1.3123 -1.3680
 9531TIP3    H250009   0.364   6.345   6.556 -1.3940 -0.8483 -0.9308
 9532TIP3   OH250010   4.315   6.422   4.673 -0.1284 -0.0974 -0.2108
 9532TIP3    H150011   4.283   6.475   4.747 -0.4523 -0.0404 -0.3899
 9532TIP3    H250012   4.271   6.337   4.683 -0.6837  0.1221 -0.7016
 9533TIP3   OH250013   4.077   5.656   3.998  0.0528  0.4318  0.0467
 9533TIP3    H150014   4.066   5.683   3.907  0.3823  0.6785  0.0816
 9533TIP3    H250015   4.030   5.722   4.049 -1.9127 -0.7836 -0.0411
 9534TIP3   OH250016   1.261   0.035  10.888  0.1876 -0.4221 -0.2555
 9534TIP3    H150017   1.317   0.109  10.911  3.6805 -2.1409 -2.3546
 9534TIP3    H250018   1.211   0.065  10.812  2.0289 -0.3264 -1.4737
 9535TIP3   OH250019   6.401   6.474  15.665 -0.7234 -0.0603 -0.2031
 9535TIP3    H150020   6.430   6.565  15.666 -1.7908  0.2961  0.5141
 9535TIP3    H250021   6.393   6.453  15.572  1.8229 -0.2255 -0.4556
 9536TIP3   OH250022   4.740   6.791   2.629  0.1221 -0.5032 -0.4759
 9536TIP3    H150023   4.720   6.850   2.702  0.8583 -1.6532  0.7128
 9536TIP3    H250024   4.819   6.828   2.590  0.7397 -0.8387  0.4350
 9537TIP3   OH250025   2.442   1.518   3.199  0.3468 -0.2758  0.2197
 9537TIP3    H150026   2.399   1.589   3.151  0.9615 -1.3313 -2.0082
 9537TIP3    H250027   2.521   1.558   3.236  0.0848  0.4591  0.0020
 9538TIP3   OH250028   4.508   5.695   0.449  0.2471 -0.1564 -0.5396
 9538TIP3    H150029   4.511   5.671   0.357 -0.5128 -0.2139 -0.5581
 9538TIP3    H250030   4.423   5.662   0.480  1.1774 -1.6531  0.6011
 9539TIP3   OH250031   1.559   6.141   1.973  0.5152 -0.3492  0.7458
 9539TIP3    H150032   1.529   6.226   1.943  1.7901 -0.2288 -0.3266
 9539TIP3    H250033   1.647   6.158   2.009 -0.6336 -0.6199  4.0041
 9540TIP3   OH250034   6.449   2.982   5.986  0.0398 -0.0370 -0.2023
 9540TIP3    H150035   6.483   2.901   6.025  0.6346  0.1600 -0.3034
 9540TIP3    H250036   6.411   2.954   5.903 -1.3278 -0.4766  0.5322
 9541TIP3   OH250037   0.249   0.943  16.556  0.4190  0.3324 -0.0603
 9541TIP3    H150038   0.176   1.001  16.535 -0.1014 -0.2193  0.1900
 9541TIP3    H250039   0.252   0.942  16.651  1.5089  1.2632 -0.0555
 9542TIP3   OH250040   1.550   4.865   2.860 -0.6285 -0.0045 -0.2351
 9542TIP3    H150041   1.537   4.933   2.794 -0.0878 -1.0906 -1.4977
 9542TIP3    H250042   1.468   4.817   2.862  0.2320 -1.6642 -2.1430
 9543TIP3   OH250043   0.739   0.440  14.737 -0.2343 -0.4941 -0.1219
 9543TIP3    H150044   0.820   0.483  14.710 -0.0521 -1.0958 -0.5622
 9543TIP3    H250045   0.671   0.506  14.724  0.1877  0.0450  0.3309
 9544TIP3   OH250046   0.432   5.393   6.016  0.0009 -0.1888 -0.2725
 9544TIP3    H150047   0.337   5.407   6.017 -0.0518 -0.5355  0.1461
 9544TIP3    H250048   0.446   5.331   5.944  0.1086  1.1091 -1.4020
 9545TIP3   OH250049   5.443   0.642  13.196  0.9252 -0.9228  0.1444
 9545TIP3    H150050   5.403   0.596  13.122  2.1118 -0.2041 -0.9994
 9545TIP3    H250051   5.453   0.575  13.264 -1.6259 -1.2432  0.2739
 9546TIP3   OH250052   4.208   4.388   4.261 -0.6630 -0.4239 -0.1116
 9546TIP3    H150053   4.284   4.415   4.211  0.0765 -2.0870  0.0501
 9546TIP3    H250054   4.239   4.314   4.314 -1.6039  0.7710  2.2309
 9547TIP3   OH250055   2.418   1.056   2.568  0.3223 -0.5165 -0.1308
 9547TIP3    H150056   2.484   1.120   2.595 -0.3534  0.4237 -0.6257
 9547TIP3    H250057   2.396   1.009   2.648 -0.2124  0.8737  0.5763
 9548TIP3   OH250058   3.724   1.116  12.822 -0.2494 -0.7551 -0.0197
 9548TIP3    H150059   3.791   1.179  12.849 -0.5630  0.0890 -1.1118
 9548TIP3    H250060   3.762   1.070  12.747 -0.2357 -1.4780  0.4298
 9549TIP3   OH250061   2.702   3.461  12.398 -0.4263  0.0290  0.2728
 9549TIP3    H150062   2.721   3.367  12.396 -0.3810  0.0469 -0.8316
 9549TIP3    H250063   2.717   3.490  12.308  0.4015  1.2703  0.7840
 9550TIP3   OH250064   0.308   4.442  14.307 -0.0337 -0.6072  0.2033
 9550TIP3    H150065   0.332   4.502  14.237 -0.2873  0.1185  0.7303
 9550TIP3    H250066   0.289   4.359  14.262  3.2040 -1.2438 -0.3102
 9551TIP3   OH250067   5.032   5.759  14.466 -0.6793  0.2884 -0.4933
 9551TIP3    H150068   4.949   5.786  14.507 -1.5897 -1.5357 -1.0394
 9551TIP3    H250069   5.050   5.673  14.503 -0.0565 -0.1901 -1.8464
 9552TIP3   OH250070   2.217   5.135   1.823 -0.7543  0.4365 -0.6857
 9552TIP3    H150071   2.173   5.102   1.745 -2.1252  0.1119  0.1816
 9552TIP3    H250072   2.259   5.058   1.861 -1.2990  0.3023 -0.3457
 9553TIP3   OH250073   3.952   4.508  12.593 -0.0602 -0.0066 -1.0364
 9553TIP3    H150074   4.024   4.483  12.651 -2.6746 -2.7994  1.3209
 9553TIP3    H250075   3.940   4.432  12.536 -1.1463  0.3758 -1.3414
 9554TIP3   OH250076   4.191   5.528  16.096 -0.0980 -0.6824  0.0664
 9554TIP3    H150077   4.261   5.592  16.109 -1.4093  0.3258  3.0457
 9554TIP3    H250078   4.207   5.461  16.163 -0.4088 -1.9858 -1.1051
 9555TIP3   OH250079   1.970   1.908   5.890 -0.0996 -0.1158 -0.1616
 9555TIP3    H150080   2.046   1.857   5.920  0.6730  0.6387 -0.7763
 9555TIP3    H250081   2.005   1.995   5.873 -1.3281  0.5271  0.4923
 9556TIP3   OH250082   0.464   3.340   4.159  0.1824  0.4202  0.2574
 9556TIP3    H150083   0.453   3.293   4.077  1.9539 -1.5845  1.0574
 9556TIP3    H250084   0.538   3.399   4.143 -0.8857  1.6709 -0.2050
 9557TIP3   OH250085   3.532   5.738   0.946 -0.2556  0.5917 -0.2095
 9557TIP3    H150086   3.621   5.716   0.917 -0.0426  0.3875  0.5693
 9557TIP3    H250087   3.527   5.703   1.035 -0.7456  1.5471  0.1512
 9558TIP3   OH250088   3.588   4.919  13.623 -0.0120 -0.1255 -0.5083
 9558TIP3    H150089   3.592   4.950  13.533 -1.7021 -1.8105 -1.2532
 9558TIP3    H250090   3.666   4.954  13.665  0.7018  0.8827 -2.5679
 9559TIP3   OH250091   0.756   5.082  12.263  0.9429  0.5181  0.0584
 9559TIP3    H150092   0.777   5.133  12.342  1.7743  0.6733 -0.2501
 9559TIP3    H250093   0.692   5.017  12.293  2.6454 -0.6729  1.3364
 9560TIP3   OH250094   6.328   2.253   3.278 -0.3145  0.8309  0.2678
 9560TIP3    H150095   6.410   2.302   3.291  0.2459  0.2036 -0.8016
 9560TIP3    H250096   6.291   2.246   3.366  1.0523  0.6775  0.8569
 9561TIP3   OH250097   2.176   3.083   1.235 -0.3380  0.7195  0.3583
 9561TIP3    H150098   2.219   3.137   1.301  1.4389  0.0895 -0.2221
 9561TIP3    H250099   2.161   3.143   1.161  0.3068  0.7843  0.2675
 9562TIP3   OH250100   2.848   5.972  13.428 -0.0276 -0.5246 -0.6662
 9562TIP3    H150101   2.901   6.012  13.358  1.1315  0.9455  0.9523
 9562TIP3    H250102   2.905   5.905  13.466 -0.4481 -0.9509 -0.7840
 9563TIP3   OH250103   6.444   5.048  14.931 -0.9359  0.4661 -0.0963
 9563TIP3    H150104   6.472   4.965  14.891 -0.3090  0.4300  0.3962
 9563TIP3    H250105   6.350   5.050  14.919 -0.9266 -0.2126 -0.3285
 9564TIP3   OH250106   2.495   3.120  13.147  0.1091  0.2013  0.1233
 9564TIP3    H150107   2.483   3.047  13.086 -2.4170  0.1352  0.5908
 9564TIP3    H250108   2.527   3.192  13.092 -0.4039 -0.3552 -0.9318
 9565TIP3   OH250109   4.528   5.410  16.124 -0.0257  0.2085 -0.4454
 9565TIP3    H150110   4.476   5.414  16.044  0.2708  2.0737 -0.5833
 9565TIP3    H250111   4.579   5.329  16.116  0.7925  0.8826 -2.6254
 9566TIP3   OH250112   1.439   6.637   5.730  0.3264  0.0632  0.6857
 9566TIP3    H150113   1.442   6.574   5.658  0.6807  1.4470 -0.5397
 9566TIP3    H250114   1.350   6.628   5.766  0.6169 -1.6546  1.0431
 9567TIP3   OH250115   2.749   0.237  12.832 -0.1750 -0.1915  0.5451
 9567TIP3    H150116   2.660   0.203  12.822  0.9161 -2.6898 -2.3602
 9567TIP3    H250117   2.741   0.330  12.812 -1.9313 -0.7537 -1.9573
 9568TIP3   OH250118   6.355   3.247  12.845  0.4493 -0.4084 -0.1930
 9568TIP3    H150119   6.384   3.334  12.870  1.4197 -0.7276 -0.1727
 9568TIP3    H250120   6.333   3.204  12.928 -0.9689  0.1162 -0.2635
 9569TIP3   OH250121   0.901   0.146   0.401  0.0125  0.2688 -0.2040
 9569TIP3    H150122   0.930   0.074   0.457 -0.1312 -0.5980 -1.2111
 9569TIP3    H250123   0.982   0.183   0.365  0.2040  1.7139  1.5823
 9570TIP3   OH250124   0.353   6.572   0.286 -0.3779  0.9118  0.5369
 9570TIP3    H150125   0.281   6.510   0.287 -1.1089  1.7335  1.5910
 9570TIP3    H250126   0.401   6.552   0.206 -0.7729 -0.7702  0.6802
 9571TIP3   OH250127   0.856   5.772   1.570  0.0268 -0.2751  0.1561
 9571TIP3    H150128   0.943   5.759   1.532  0.1148  0.1873  0.1931
 9571TIP3    H250129   0.803   5.806   1.499 -0.0395 -0.2598  0.2129
 9572TIP3   OH250130   5.436   4.458  14.556  0.2483  0.0472  0.6677
 9572TIP3    H150131   5.423   4.490  14.646  0.7066  0.4762  0.5846
 9572TIP3    H250132   5.501   4.517  14.519  0.7695 -0.7172  0.3589
 9573TIP3   OH250133   4.140   4.919   0.294 -0.2285 -0.0197 -0.1051
 9573TIP3    H150134   4.049   4.950   0.292 -0.3899 -0.4722  0.1142
 9573TIP3    H250135   4.138   4.843   0.352  0.0223 -0.8767 -1.1845
 9574TIP3   OH250136   2.541   0.438   3.759  0.3404 -0.1664  0.1317
 9574TIP3    H150137   2.631   0.446   3.726  0.1901  3.8168  0.1808
 9574TIP3    H250138   2.486   0.475   3.690 -1.2395 -1.7301  0.4762
 9575TIP3   OH250139   0.199   6.702  14.855 -0.2974  0.2431  0.0682
 9575TIP3    H150140   0.150   6.621  14.842 -0.8852  0.4373  0.9907
 9575TIP3    H250141   0.219   6.733  14.766  1.1542 -1.6236 -0.3116
 9576TIP3   OH250142   0.197   5.486   2.158  0.3863  0.1119 -0.3050
 9576TIP3    H150143   0.198   5.428   2.081  1.0543 -1.9885  1.1832
 9576TIP3    H250144   0.288   5.514   2.168  0.0593  1.4735 -1.0288
 9577TIP3   OH250145   0.507   1.478  10.518 -0.4992 -0.8452  0.3501
 9577TIP3    H150146   0.433   1.420  10.504 -0.9740 -0.2920  0.5585
 9577TIP3    H250147   0.508   1.535  10.441  1.1316 -2.3490 -0.8301
 9578TIP3   OH250148   1.724   0.777  15.894 -0.6855 -0.2811  0.1746
 9578TIP3    H150149   1.671   0.712  15.942 -1.7230  1.5114  1.5856
 9578TIP3    H250150   1.701   0.861  15.934 -1.3294  1.3367 -3.2413
 9579TIP3   OH250151   5.041   4.114   4.275  0.1513  0.0667  0.5399
 9579TIP3    H150152   5.042   4.209   4.285 -0.2703  0.1845 -0.4297
 9579TIP3    H250153   5.084   4.081   4.354  0.7057  1.0771  0.6764
 9580TIP3   OH250154   4.499   5.570  16.758 -0.3677 -0.1655 -0.1018
 9580TIP3    H150155   4.433   5.589  16.825 -0.5068 -0.9228 -0.0149
 9580TIP3    H250156   4.483   5.634  16.689 -0.6349  0.2117  0.3025
 9581TIP3   OH250157   5.578   5.799   2.706 -0.2125  0.7487 -0.2630
 9581TIP3    H150158   5.589   5.748   2.626  0.2153  0.9800 -0.3553
 9581TIP3    H250159   5.493   5.842   2.696 -1.7233 -1.7457  0.8395
 9582TIP3   OH250160   1.773   4.487   1.277 -0.0935  0.0027  1.2737
 9582TIP3    H150161   1.720   4.409   1.261  0.3560 -0.0319 -0.1661
 9582TIP3    H250162   1.771   4.535   1.194  0.0693  1.2598  1.9819
 9583TIP3   OH250163   4.444   1.365   6.595 -0.5792 -0.3376 -0.6332
 9583TIP3    H150164   4.407   1.330   6.515  0.0393 -0.5749 -0.8185
 9583TIP3    H250165   4.422   1.301   6.662  0.0663 -0.8179 -0.8687
 9584TIP3   OH250166   2.084   6.652  15.437  0.4444  0.0600 -0.1095
 9584TIP3    H150167   2.134   6.627  15.360  0.0550 -0.6174 -0.1580
 9584TIP3    H250168   2.147   6.648  15.509  0.5086 -0.6134 -0.1945
 9585TIP3   OH250169   0.434   2.053  15.584 -0.3488 -0.1408  0.1940
 9585TIP3    H150170   0.511   2.000  15.567  0.4269 -0.1506  3.1138
 9585TIP3    H250171   0.381   2.046  15.504  1.7966 -1.6019 -1.1989
 9586TIP3   OH250172   1.614   2.856  12.224 -0.0492  0.0800 -0.5542
 9586TIP3    H150173   1.543   2.906  12.184 -0.4550 -0.8331 -1.0207
 9586TIP3    H250174   1.619   2.776  12.171  1.3673  0.1475 -0.5614
 9587TIP3   OH250175   1.867   0.785  10.843 -0.0160  0.2589  0.1730
 9587TIP3    H150176   1.852   0.842  10.918 -0.0199  0.4888  0.0014
 9587TIP3    H250177   1.928   0.834  10.788  1.2195 -0.5747  0.7659
 9588TIP3   OH250178   5.534   0.659   2.949 -0.8908 -0.6653  0.6212
 9588TIP3    H150179   5.475   0.584   2.953  0.6269 -2.0614 -1.1236
 9588TIP3    H250180   5.577   0.659   3.035 -1.2900 -1.4686  0.8419
 9589TIP3   OH250181   0.418   0.359  10.322  0.5296  0.3929  0.2842
 9589TIP3    H150182   0.404   0.412  10.401  0.9659  0.8594  0.0551
 9589TIP3    H250183   0.349   0.386  10.262  0.8531  0.8408  0.1033
 9590TIP3   OH250184   2.526   3.078   4.959  0.2490 -0.3459 -0.2317
 9590TIP3    H150185   2.468   3.027   5.015 -0.3142  0.1939 -0.3089
 9590TIP3    H250186   2.467   3.131   4.906  0.7445 -1.1522 -1.6520
 9591TIP3   OH250187   6.669   2.466   1.064  0.1240 -0.7434 -0.7658
 9591TIP3    H150188   6.692   2.398   1.128  0.5392  0.0593 -0.0333
 9591TIP3    H250189   6.716   2.440   0.984  1.8445 -0.3374  0.0559
 9592TIP3   OH250190   6.073   2.461   0.993 -0.4515 -0.4158  0.0787
 9592TIP3    H150191   6.107   2.486   1.079 -2.0970 -2.2493  1.3378
 9592TIP3    H250192   6.065   2.544   0.946 -0.1304  0.7283  1.9373
 9593TIP3   OH250193   6.170   6.690   4.451  0.3690  0.6031  0.6667
 9593TIP3    H150194   6.110   6.752   4.492 -1.2118 -0.1461 -0.3801
 9593TIP3    H250195   6.155   6.701   4.357  0.5441 -0.8786  0.4393
 9594TIP3   OH250196   4.069   2.609   0.176 -0.2159  0.1890  0.4868
 9594TIP3    H150197   4.093   2.675   0.241 -0.0910  0.4142  0.2146
 9594TIP3    H250198   3.987   2.572   0.208 -0.7132  1.0431  0.2319
 9595TIP3   OH250199   1.142   4.474  12.552 -0.2686  0.2292  0.4792
 9595TIP3    H150200   1.151   4.452  12.645 -1.9269  0.2176  0.6616
 9595TIP3    H250201   1.143   4.569  12.550  0.7308  0.2253  0.3863
 9596TIP3   OH250202   0.404   6.765   0.045  0.1343  0.2840  0.3469
 9596TIP3    H150203   0.318   6.787   0.080  0.2272  2.2820 -0.5543
 9596TIP3    H250204   0.466   6.809   0.103  0.5936 -1.1109  0.9682
 9597TIP3   OH250205   0.581   6.401  13.715  0.0892 -0.3464  0.2341
 9597TIP3    H150206   0.657   6.378  13.661 -0.8375  1.1078 -1.8458
 9597TIP3    H250207   0.598   6.490  13.744 -0.6260 -0.1502  0.0793
 9598TIP3   OH250208   3.262   5.055   0.119 -0.6199 -0.0703 -0.3182
 9598TIP3    H150209   3.215   5.135   0.097  1.1724  0.9147 -0.7540
 9598TIP3    H250210   3.240   5.038   0.210  0.2451  1.8835  0.3078
 9599TIP3   OH250211   2.312   5.290  14.698  0.5857 -0.5058 -0.2680
 9599TIP3    H150212   2.338   5.381  14.685  1.2484 -0.6853 -0.2396
 9599TIP3    H250213   2.224   5.284  14.660  1.3254 -0.3379 -2.1106
 9600TIP3   OH250214   2.112   1.070  16.916  0.2905 -0.0671 -0.3097
 9600TIP3    H150215   2.049   1.020  16.864 -0.1028 -0.0851  0.1709
 9600TIP3    H250216   2.094   1.042  17.007  2.4617 -1.7597 -0.3238
 9601TIP3   OH250217   2.877   3.498   1.971  0.4199 -0.2472  0.0315
 9601TIP3    H150218   2.938   3.433   2.006 -0.6538 -1.0006  0.5899
 9601TIP3    H250219   2.815   3.447   1.919 -2.1004 -0.1794  2.7066
 9602TIP3   OH250220   4.162   4.658   5.607 -0.0125  0.5987  0.1901
 9602TIP3    H150221   4.194   4.597   5.540 -0.5873 -0.8117  1.1667
 9602TIP3    H250222   4.076   4.686   5.575 -0.5943 -0.6121  0.6419
 9603TIP3   OH250223   1.546   1.241   3.419 -0.6530  0.0342 -0.0765
 9603TIP3    H150224   1.521   1.282   3.337  1.6825 -0.5504 -1.1522
 9603TIP3    H250225   1.589   1.159   3.393  0.1837 -0.1478  1.7110
 9604TIP3   OH250226   3.133   0.941   0.110 -0.0939  0.1605 -0.1897
 9604TIP3    H150227   3.146   0.890   0.030  0.0402  0.2628 -0.2313
 9604TIP3    H250228   3.059   0.998   0.090 -0.7909 -0.6061  0.1369
 9605TIP3   OH250229   0.567   0.311  16.498 -0.1860 -0.0231  0.6689
 9605TIP3    H150230   0.548   0.245  16.431  4.8938  1.0169 -2.3785
 9605TIP3    H250231   0.637   0.272  16.550 -2.2008  0.2775  3.8239
 9606TIP3   OH250232   4.719   5.904  13.966 -0.4528 -0.0327  0.0566
 9606TIP3    H150233   4.712   5.821  14.013  1.2266 -0.3322 -0.1817
 9606TIP3    H250234   4.766   5.883  13.885 -0.0164  1.1488 -0.0178
 9607TIP3   OH250235   0.714   1.036  11.211  0.4759  0.0247  0.1847
 9607TIP3    H150236   0.753   1.068  11.292 -0.6215  1.5257  0.1684
 9607TIP3    H250237   0.777   1.060  11.143  1.0330 -0.5346  0.4891
 9608TIP3   OH250238   6.404   5.487  16.346  0.2449  0.8610 -0.0040
 9608TIP3    H150239   6.386   5.421  16.413  2.0100  1.0949  0.7378
 9608TIP3    H250240   6.426   5.566  16.396  0.6873  1.2942 -0.8760
 9609TIP3   OH250241   5.823   2.774   1.028  0.0012 -0.1523 -0.6554
 9609TIP3    H150242   5.750   2.835   1.020  0.6997  0.8254  0.2008
 9609TIP3    H250243   5.875   2.807   1.102  0.4218 -1.7653 -0.1912
 9610TIP3   OH250244   1.837   1.162  15.414 -0.2018  0.0057 -0.2647
 9610TIP3    H150245   1.808   1.211  15.491  0.8677  0.9511 -0.4400
 9610TIP3    H250246   1.925   1.194  15.397 -0.4898 -0.0477 -2.0024
 9611TIP3   OH250247   0.030   2.266   1.871 -0.0472  0.5529  0.3504
 9611TIP3    H150248   0.037   2.334   1.937 -1.2203  0.2382  0.8089
 9611TIP3    H250249   0.120   2.235   1.859  0.1843  0.6486  1.7553
 9612TIP3   OH250250   4.401   0.364   1.786  0.2590 -0.2883  0.1073
 9612TIP3    H150251   4.444   0.286   1.822  0.2437 -0.3625 -0.0343
 9612TIP3    H250252   4.385   0.420   1.862 -0.5488 -0.8170  0.3446
 9613TIP3   OH250253   3.062   4.143   5.261 -0.1047  0.1795 -0.0142
 9613TIP3    H150254   3.049   4.152   5.167 -0.8126 -1.2964 -0.0924
 9613TIP3    H250255   3.061   4.233   5.294  0.9362  0.7823 -1.4869
 9614TIP3   OH250256   3.235   6.490   2.833  0.3664 -0.2734  0.1863
 9614TIP3    H150257   3.283   6.547   2.893  1.3443 -1.2025  0.3207
 9614TIP3    H250258   3.149   6.479   2.873  0.5215  0.2537  0.6864
 9615TIP3   OH250259   1.318   0.294  12.316 -0.1158 -0.5887 -0.3496
 9615TIP3    H150260   1.338   0.381  12.353  1.1938 -1.2936  0.7016
 9615TIP3    H250261   1.311   0.237  12.393 -0.6645 -1.4740 -1.0423
 9616TIP3   OH250262   2.866   0.552   3.273 -0.4050  0.3033  0.4149
 9616TIP3    H150263   2.901   0.475   3.230  0.1862  1.1914 -0.7360
 9616TIP3    H250264   2.940   0.612   3.282 -1.4149  1.9625 -1.4968
 9617TIP3   OH250265   4.954   2.222   4.070 -0.2623  0.0508 -0.8860
 9617TIP3    H150266   4.912   2.141   4.042 -0.8516  0.6512 -1.7972
 9617TIP3    H250267   4.882   2.277   4.101  0.1392  0.2188 -0.2208
 9618TIP3   OH250268   2.876   4.233   3.715 -0.1349 -0.6096  0.0747
 9618TIP3    H150269   2.907   4.184   3.791 -1.6378 -0.5818  0.7427
 9618TIP3    H250270   2.954   4.246   3.661  0.4395 -3.1682  0.1702
 9619TIP3   OH250271   3.345   1.428   1.537 -0.0651  0.1948  0.2992
 9619TIP3    H150272   3.256   1.438   1.503 -0.2511  0.3644  0.8250
 9619TIP3    H250273   3.394   1.499   1.497  0.4882 -1.3897 -2.0611
 9620TIP3   OH250274   5.156   5.636   3.253 -0.4927  0.3929 -0.6137
 9620TIP3    H150275   5.142   5.647   3.159 -0.8145  1.3493 -0.4634
 9620TIP3    H250276   5.217   5.706   3.277  1.0478 -0.9511 -0.4240
 9621TIP3   OH250277   1.384   3.809   0.084 -0.0601 -0.5855 -0.2567
 9621TIP3    H150278   1.441   3.856   0.023  0.5150  0.6342  1.1367
 9621TIP3    H250279   1.308   3.784   0.033  0.3185  0.5503 -1.4194
 9622TIP3   OH250280   1.558   3.558  10.801  0.7813  0.5710  0.0944
 9622TIP3    H150281   1.528   3.649  10.797  0.3937  0.4277 -0.2865
 9622TIP3    H250282   1.511   3.521  10.875  4.0519  1.7925  3.0785
 9623TIP3   OH250283   6.421   1.299   3.298  0.2626  0.2934  0.1156
 9623TIP3    H150284   6.462   1.334   3.219 -0.3908 -0.1669 -0.4393
 9623TIP3    H250285   6.349   1.359   3.317 -0.4879 -0.3856 -0.4957
 9624TIP3   OH250286   0.367   4.835  13.428  0.4725  0.0972 -0.0841
 9624TIP3    H150287   0.327   4.907  13.476  1.7679  1.5700 -1.1291
 9624TIP3    H250288   0.332   4.841  13.340 -0.8324 -1.7519  0.2390
 9625TIP3   OH250289   5.790   3.188  16.210  0.2423  0.0157  0.0056
 9625TIP3    H150290   5.749   3.191  16.297 -0.1366  0.4460 -0.1840
 9625TIP3    H250291   5.879   3.157  16.227  0.9098  2.1767  0.8409
 9626TIP3   OH250292   2.011   2.931  12.049 -0.1575  0.1626  0.2082
 9626TIP3    H150293   2.063   2.967  11.977  0.5409 -0.6333  0.3043
 9626TIP3    H250294   1.955   3.004  12.077 -0.1237  0.6006 -0.8495
 9627TIP3   OH250295   1.767   4.661  13.188  0.0781 -0.2954  0.3696
 9627TIP3    H150296   1.828   4.715  13.137 -1.0684  0.9006  0.1881
 9627TIP3    H250297   1.681   4.700  13.169 -0.3553  0.6550  3.7493
 9628TIP3   OH250298   5.927   3.849  13.568  0.2078  0.7852  0.4120
 9628TIP3    H150299   5.956   3.797  13.493 -2.6910  0.8256 -0.8604
 9628TIP3    H250300   5.833   3.835  13.573  0.4009 -0.4588  5.1113
 9629TIP3   OH250301   2.277   1.309   0.572 -0.1010 -0.1434  0.9732
 9629TIP3    H150302   2.187   1.280   0.554 -0.4792  0.0168  2.4732
 9629TIP3    H250303   2.286   1.390   0.523 -1.8531  1.4577  3.0591
 9630TIP3   OH250304   0.439   5.002   1.506 -0.1684  0.5804  0.5693
 9630TIP3    H150305   0.500   5.068   1.472 -0.3990  0.4972  0.0006
 9630TIP3    H250306   0.495   4.928   1.529  0.0020  0.6927  0.5212
 9631TIP3   OH250307   4.568   4.951  16.291 -0.1449  0.1206 -0.3805
 9631TIP3    H150308   4.515   4.905  16.356 -0.3030  1.9537  0.8518
 9631TIP3    H250309   4.544   4.911  16.208 -2.9811  0.3970  0.2065
 9632TIP3   OH250310   2.182   0.480  15.107 -0.3247 -0.3316 -0.0587
 9632TIP3    H150311   2.162   0.572  15.126  1.3226 -0.2088  1.3812
 9632TIP3    H250312   2.197   0.441  15.193 -3.2008 -2.5769 -0.4311
 9633TIP3   OH250313   4.836   0.267  14.855 -0.6239 -0.3726  0.0535
 9633TIP3    H150314   4.851   0.361  14.844 -1.2630 -0.2644  0.1086
 9633TIP3    H250315   4.819   0.235  14.766 -1.4981 -0.2419  0.1670
 9634TIP3   OH250316   3.612   0.638  13.561 -0.3838 -0.3542 -0.2179
 9634TIP3    H150317   3.619   0.542  13.554 -1.7389 -0.4306 -0.6890
 9634TIP3    H250318   3.615   0.669  13.471 -1.0529 -0.0466 -0.1392
 9635TIP3   OH250319   2.502   2.177   5.002  0.1382  0.0336 -0.4501
 9635TIP3    H150320   2.488   2.082   5.002  1.5813 -0.2816  2.1272
 9635TIP3    H250321   2.576   2.190   4.944 -0.0506 -0.4153 -0.8006
 9636TIP3   OH250322   6.422   1.518   3.550  0.4520  0.6090  0.1291
 9636TIP3    H150323   6.407   1.561   3.634  3.3536 -0.4517  1.3209
 9636TIP3    H250324   6.468   1.584   3.498 -0.4488  0.9200 -0.2967
 9637TIP3   OH250325   6.290   4.366   4.346 -0.2611  0.3084  0.4939
 9637TIP3    H150326   6.313   4.358   4.439 -1.1808  1.4920  0.8441
 9637TIP3    H250327   6.374   4.357   4.300  0.3061  0.4508  1.4775
 9638TIP3   OH250328   1.001   5.431   0.294  0.0095 -0.1503  0.1954
 9638TIP3    H150329   0.985   5.417   0.387  2.7579 -0.0415  0.7807
 9638TIP3    H250330   1.043   5.517   0.289  0.1975 -0.2914 -1.0976
 9639TIP3   OH250331   0.132   3.125  13.060  0.0637  0.9586 -0.4553
 9639TIP3    H150332   0.064   3.189  13.037  0.6573  1.4824 -0.8081
 9639TIP3    H250333   0.092   3.040  13.042 -0.6641  1.2353 -0.1938
 9640TIP3   OH250334   1.829   5.734  16.248 -0.3779  0.5860  0.2107
 9640TIP3    H150335   1.779   5.787  16.309 -1.8249  1.8101 -1.9271
 9640TIP3    H250336   1.891   5.795  16.208  1.2148 -0.3972  1.0604
 9641TIP3   OH250337   4.412   1.692   2.138 -0.2799  0.2322  0.9164
 9641TIP3    H150338   4.318   1.673   2.136 -0.0657 -0.8157 -0.0187
 9641TIP3    H250339   4.427   1.725   2.227 -1.2800 -0.9847  1.5803
 9642TIP3   OH250340   0.260   2.083  12.321 -0.2571 -0.0689  0.0902
 9642TIP3    H150341   0.194   2.070  12.253  1.1035 -1.3942 -1.0710
 9642TIP3    H250342   0.301   2.167  12.298 -0.5934  0.0709 -0.0097
 9643TIP3   OH250343   5.962   6.262  13.233  0.6906  0.4663 -0.0465
 9643TIP3    H150344   6.019   6.316  13.178 -0.1924  2.1174  0.5980
 9643TIP3    H250345   5.998   6.173  13.225  1.0382  0.7669 -2.6837
 9644TIP3   OH250346   5.773   0.702  15.191  0.5177 -0.0178 -0.6425
 9644TIP3    H150347   5.686   0.671  15.167  0.5111  0.6181 -1.4927
 9644TIP3    H250348   5.832   0.653  15.135  0.7743 -0.9241  0.3908
 9645TIP3   OH250349   5.861   5.147  12.270  0.0685 -0.2574 -0.4577
 9645TIP3    H150350   5.954   5.155  12.252 -0.0104  2.1113 -0.2066
 9645TIP3    H250351   5.835   5.234  12.301 -2.4542 -0.4835 -1.6132
 9646TIP3   OH250352   2.409   3.394  11.643  0.1963  0.2203  0.0339
 9646TIP3    H150353   2.320   3.428  11.655  0.7049  1.0504  1.6899
 9646TIP3    H250354   2.459   3.467  11.606  0.8911  0.8213  2.0332
 9647TIP3   OH250355   1.610   2.846   0.331 -0.5093  0.5332 -0.2353
 9647TIP3    H150356   1.585   2.927   0.377  0.5495  0.2236  0.9264
 9647TIP3    H250357   1.537   2.786   0.348 -0.5743  0.7394  0.2333
 9648TIP3   OH250358   5.781   4.443   2.605  0.3626  0.1690 -0.5161
 9648TIP3    H150359   5.768   4.511   2.539 -0.6179  0.1686 -0.3301
 9648TIP3    H250360   5.806   4.490   2.684  0.1248  0.2780 -0.5063
 9649TIP3   OH250361   0.188   3.446   4.036 -0.5383 -0.1660 -0.1672
 9649TIP3    H150362   0.186   3.450   3.941 -0.2160  1.7070 -0.1338
 9649TIP3    H250363   0.249   3.374   4.055 -0.7299 -0.6720 -1.3414
 9650TIP3   OH250364   4.321   0.225   6.175 -0.2313 -0.2841  0.1078
 9650TIP3    H150365   4.309   0.141   6.219 -1.3009  0.3814  1.1552
 9650TIP3    H250366   4.408   0.254   6.201 -0.6909 -0.0867  1.5300
 9651TIP3   OH250367   0.219   0.834   2.611  0.0322 -0.1802 -0.1568
 9651TIP3    H150368   0.286   0.767   2.620  0.9282  0.8024  0.8741
 9651TIP3    H250369   0.211   0.871   2.699 -0.3935  1.0932 -0.7111
 9652TIP3   OH250370   6.182   2.708  12.771 -0.2579  0.1858  0.1859
 9652TIP3    H150371   6.177   2.758  12.689  2.4650  0.1594 -0.1036
 9652TIP3    H250372   6.165   2.773  12.839 -2.6248  0.1934 -0.3535
 9653TIP3   OH250373   1.301   5.421  14.036 -0.0571 -0.4516  0.2947
 9653TIP3    H150374   1.329   5.356  14.101  0.0837  1.1677  1.9617
 9653TIP3    H250375   1.209   5.401  14.019 -0.2318 -0.6324  1.3833
 9654TIP3   OH250376   5.489   2.957  14.470 -0.3543 -0.4156 -0.4817
 9654TIP3    H150377   5.488   2.966  14.566  0.7085  1.4950 -0.5911
 9654TIP3    H250378   5.545   2.881  14.454 -0.2940 -0.5710  0.4013
 9655TIP3   OH250379   5.239   1.957  11.875  0.0431 -0.6680 -0.0341
 9655TIP3    H150380   5.231   1.896  11.801  2.2286 -0.3658 -0.5998
 9655TIP3    H250381   5.333   1.976  11.879  0.0775 -1.1075  3.1784
 9656TIP3   OH250382   4.511   1.781   5.751  0.1086 -0.1261 -0.0294
 9656TIP3    H150383   4.575   1.852   5.748 -0.6612  0.6242  0.6755
 9656TIP3    H250384   4.550   1.711   5.699  0.6802  0.9837 -1.1525
 9657TIP3   OH250385   5.315   3.358   4.874 -0.1806  0.2093  0.2227
 9657TIP3    H150386   5.250   3.393   4.813  0.1048  1.2482  0.5048
 9657TIP3    H250387   5.268   3.348   4.956  0.0325  1.0483  0.4512
 9658TIP3   OH250388   5.577   6.541   0.516 -0.0374 -0.5222  0.1730
 9658TIP3    H150389   5.606   6.453   0.493  1.1722 -0.4301  1.2265
 9658TIP3    H250390   5.592   6.593   0.437 -1.0990 -1.3276 -0.5656
 9659TIP3   OH250391   5.349   4.503  14.824 -0.1528  0.4658  0.0701
 9659TIP3    H150392   5.273   4.446  14.821 -0.0320  0.2389  1.0382
 9659TIP3    H250393   5.424   4.443  14.822 -0.0067  0.6506 -0.1031
 9660TIP3   OH250394   4.899   1.240  13.826 -0.0033 -0.0225  0.0161
 9660TIP3    H150395   4.926   1.175  13.891 -3.4260 -0.3044  1.3751
 9660TIP3    H250396   4.848   1.191  13.762  0.2968  0.8180 -0.8985
 9661TIP3   OH250397   4.818   3.802   4.559 -0.3464  0.7962  0.5736
 9661TIP3    H150398   4.760   3.737   4.522 -0.0969  0.9721 -0.1397
 9661TIP3    H250399   4.897   3.799   4.504  0.1250  0.8992  1.2260
 9662TIP3   OH250400   5.536   6.291   3.343 -0.0383 -0.1480  0.1362
 9662TIP3    H150401   5.443   6.311   3.354  0.3828  1.0513  1.9743
 9662TIP3    H250402   5.572   6.299   3.431  2.1644  1.3852 -0.8215
 9663TIP3   OH250403   3.761   3.483  16.832  0.5877 -0.1935 -0.2979
 9663TIP3    H150404   3.756   3.454  16.923  0.2382  0.0998 -0.2219
 9663TIP3    H250405   3.683   3.447  16.791  0.1766  0.5806 -0.2152
 9664TIP3   OH250406   3.095   6.723   5.667  0.5019  0.0722 -0.0711
 9664TIP3    H150407   3.173   6.747   5.617  1.0211 -0.9647  0.2226
 9664TIP3    H250408   3.027   6.711   5.601  0.6701  0.6180 -0.3585
 9665TIP3   OH250409   1.387   2.618   4.713  0.2215 -0.3352  0.3890
 9665TIP3    H150410   1.301   2.585   4.688  0.2214  0.6239 -0.9713
 9665TIP3    H250411   1.440   2.540   4.728 -0.1194 -0.9929 -1.5407
 9666TIP3   OH250412   3.910   6.275  14.788 -0.5232  0.7744  0.2046
 9666TIP3    H150413   3.819   6.258  14.763 -0.7893  2.4126 -0.0455
 9666TIP3    H250414   3.960   6.265  14.707 -0.3353 -0.9234  0.4999
 9667TIP3   OH250415   5.911   1.619   5.131 -0.7147  0.3011 -0.6715
 9667TIP3    H150416   5.900   1.681   5.202 -0.8322  1.8089 -1.9652
 9667TIP3    H250417   5.853   1.649   5.062 -0.0029 -0.6366 -1.7300
 9668TIP3   OH250418   5.354   1.916   2.629  0.1040  0.1521 -0.0402
 9668TIP3    H150419   5.418   1.851   2.656  1.4170  1.9266  1.3078
 9668TIP3    H250420   5.394   1.959   2.553 -0.1453  0.3254 -0.0749
 9669TIP3   OH250421   5.751   2.020  11.726  0.2997 -0.3094  0.0097
 9669TIP3    H150422   5.782   2.066  11.648 -1.4489 -1.1311 -1.2319
 9669TIP3    H250423   5.806   1.942  11.731  1.3787  0.4570  0.4761
 9670TIP3   OH250424   2.317   0.214   2.461 -0.1016  0.4880  0.2111
 9670TIP3    H150425   2.404   0.215   2.500  0.1526  1.2923 -0.3571
 9670TIP3    H250426   2.332   0.218   2.367 -0.7237 -0.8801  0.0211
 9671TIP3   OH250427   1.222   3.741   4.709 -0.8535  0.0864  0.0749
 9671TIP3    H150428   1.219   3.668   4.647 -0.9294 -1.9036  2.2910
 9671TIP3    H250429   1.140   3.733   4.759  0.2874  0.0580  2.0479
 9672TIP3   OH250430   6.459   1.199  11.072  0.0879 -0.3979  0.0164
 9672TIP3    H150431   6.451   1.191  11.167  1.9060  1.3079  0.3834
 9672TIP3    H250432   6.546   1.236  11.059 -0.3619 -0.0303 -2.2989
 9673TIP3   OH250433   6.496   4.327  11.464 -0.2809 -0.2243 -0.2104
 9673TIP3    H150434   6.474   4.324  11.557  0.0980 -0.5944 -0.1275
 9673TIP3    H250435   6.443   4.258  11.425  1.2833 -1.6986  0.1235
 9674TIP3   OH250436   5.013   6.654  14.501  0.3698  0.0806 -0.4620
 9674TIP3    H150437   5.098   6.675  14.463 -0.3379  0.1472 -2.0540
 9674TIP3    H250438   5.023   6.565  14.534  0.8002 -0.2526 -1.4600
 9675TIP3   OH250439   4.835   4.005   0.253 -0.6278  0.1743 -0.4034
 9675TIP3    H150440   4.894   4.043   0.188  0.2331 -0.1978  0.1386
 9675TIP3    H250441   4.883   3.929   0.288 -0.9133  0.5779  0.9233
 9676TIP3   OH250442   0.493   1.326   0.102  0.3559  0.6639  0.1628
 9676TIP3    H150443   0.490   1.230   0.106  0.3136  0.7147  1.8366
 9676TIP3    H250444   0.522   1.345   0.013  1.9462 -0.9503  0.2753
 9677TIP3   OH250445   5.574   1.425   1.253 -0.1461  0.1051 -0.2111
 9677TIP3    H150446   5.573   1.497   1.190 -0.7226 -0.1247 -0.4773
 9677TIP3    H250447   5.554   1.348   1.201 -1.0479 -0.0315  0.3098
 9678TIP3   OH250448   6.215   1.141   5.079 -0.3540  0.5438 -0.3946
 9678TIP3    H150449   6.292   1.153   5.136  1.4613 -0.2412 -2.5506
 9678TIP3    H250450   6.163   1.220   5.093  1.9667  2.1941 -0.4736
 9679TIP3   OH250451   5.990   0.842   4.775  0.0353  0.1966 -0.0420
 9679TIP3    H150452   6.040   0.895   4.713  1.8209 -1.3473 -0.0039
 9679TIP3    H250453   5.987   0.896   4.854  3.0899 -0.2602  0.4855
 9680TIP3   OH250454   1.390   5.071   3.124 -0.1029  0.4474  0.2869
 9680TIP3    H150455   1.418   5.075   3.215 -1.1426 -0.4438  0.6581
 9680TIP3    H250456   1.444   5.138   3.080  0.9150  0.3928  1.3949
 9681TIP3   OH250457   5.291   4.415   4.484  0.3118  0.6589 -0.0021
 9681TIP3    H150458   5.370   4.410   4.536  0.5616  2.5661 -0.1439
 9681TIP3    H250459   5.238   4.483   4.525 -1.1780 -0.4000 -0.0507
 9682TIP3   OH250460   4.710   6.654   5.056 -0.3939  0.3475 -0.0429
 9682TIP3    H150461   4.661   6.571   5.054 -1.7707  1.1334  0.2741
 9682TIP3    H250462   4.779   6.642   4.991 -1.1492 -0.7129 -0.6849
 9683TIP3   OH250463   1.902   3.150  11.517 -0.1742 -0.3453 -0.4884
 9683TIP3    H150464   1.920   3.236  11.555 -0.2806 -0.9923  1.0749
 9683TIP3    H250465   1.809   3.151  11.497  0.1982  0.6311 -2.4764
 9684TIP3   OH250466   2.425   6.814  16.765  0.0418 -0.0596 -0.0829
 9684TIP3    H150467   2.368   6.786  16.836 -0.2035 -1.2876 -0.7352
 9684TIP3    H250468   2.390   6.769  16.687  0.9184  0.4494 -0.7910
 9685TIP3   OH250469   3.975   6.703   4.785 -0.1402  0.0845  0.0731
 9685TIP3    H150470   3.918   6.636   4.824  0.0636  0.0571  0.3280
 9685TIP3    H250471   4.009   6.752   4.860 -0.3502  0.5274 -0.1174
 9686TIP3   OH250472   5.786   1.636   4.624 -0.1696  0.0314  0.1723
 9686TIP3    H150473   5.816   1.631   4.533 -0.9859  1.0599 -0.1638
 9686TIP3    H250474   5.692   1.652   4.617 -0.0817  1.0654  1.1944
 9687TIP3   OH250475   0.562   3.925   4.523 -0.1494 -0.7997  0.1542
 9687TIP3    H150476   0.569   4.012   4.563  2.0607 -1.0727  0.5066
 9687TIP3    H250477   0.611   3.868   4.582 -0.6052 -2.0798 -0.6732
 9688TIP3   OH250478   6.372   0.427  12.205  0.0726 -0.0681 -0.4352
 9688TIP3    H150479   6.334   0.478  12.277  0.2058  0.9097 -1.0427
 9688TIP3    H250480   6.426   0.362  12.248 -0.2903  0.1461  0.3702
 9689TIP3   OH250481   6.240   1.841  11.295 -0.2207 -0.1046 -0.0598
 9689TIP3    H150482   6.186   1.835  11.373 -2.4199 -0.2758 -1.4995
 9689TIP3    H250483   6.185   1.884  11.230  1.2179 -0.6882 -1.7697
 9690TIP3   OH250484   0.189   0.682  12.329  0.2616  0.2656  0.1687
 9690TIP3    H150485   0.110   0.736  12.336 -0.7939 -1.4040  3.2498
 9690TIP3    H250486   0.260   0.739  12.360 -0.4062  0.6692  0.9998
 9691TIP3   OH250487   2.418   2.789  15.406 -0.6296 -0.4784 -0.3523
 9691TIP3    H150488   2.345   2.726  15.411  0.0435 -1.2214  0.5816
 9691TIP3    H250489   2.431   2.818  15.496 -0.0084 -0.0698 -0.5659
 9692TIP3   OH250490   4.575   5.484   4.931  0.3942  0.4133  0.1917
 9692TIP3    H150491   4.657   5.504   4.977 -1.3998  1.5498  3.1985
 9692TIP3    H250492   4.554   5.564   4.884  1.2332 -0.0934 -1.1278
 9693TIP3   OH250493   6.657   2.083  10.714 -0.3206 -0.3370  0.1420
 9693TIP3    H150494   6.672   2.176  10.698 -2.5683  0.1866  0.7187
 9693TIP3    H250495   6.578   2.062  10.664 -0.2873 -1.7425  0.6305
 9694TIP3   OH250496   4.513   1.207   3.552  0.5892  0.2282  0.1774
 9694TIP3    H150497   4.526   1.158   3.633  0.3696  1.9291  1.2903
 9694TIP3    H250498   4.419   1.205   3.537  0.5786  0.3049  0.2320
 9695TIP3   OH250499   3.615   4.639  13.526 -0.8845 -0.5414 -0.6738
 9695TIP3    H150500   3.656   4.719  13.557 -1.1546 -0.2033 -1.1682
 9695TIP3    H250501   3.631   4.575  13.595  0.6212 -0.4782 -0.9274
 9696TIP3   OH250502   5.159   1.923   1.899 -0.0528  0.6696  0.1054
 9696TIP3    H150503   5.098   1.850   1.883  0.6511  0.6380 -3.0467
 9696TIP3    H250504   5.236   1.882   1.939  1.1480 -0.8128 -3.3986
 9697TIP3   OH250505   0.081   5.427  11.037  0.0925  0.4373 -0.5779
 9697TIP3    H150506   0.084   5.444  11.131  0.7792  1.4695 -0.7760
 9697TIP3    H250507   0.151   5.363  11.022  0.1885  0.5075 -0.4328
 9698TIP3   OH250508   6.178   4.439  12.994  0.3577 -0.2550  0.0247
 9698TIP3    H150509   6.128   4.411  13.070  0.4882 -2.4218 -0.6353
 9698TIP3    H250510   6.112   4.460  12.928  0.2664 -1.3773 -0.2567
 9699TIP3   OH250511   1.825   5.856  14.110 -0.5588  0.6956  0.0463
 9699TIP3    H150512   1.889   5.911  14.156 -1.2490  0.0396  1.9126
 9699TIP3    H250513   1.740   5.881  14.149 -0.9633 -1.1645  0.4696
 9700TIP3   OH250514   3.450   5.126   4.457 -0.2857  0.3131 -0.0421
 9700TIP3    H150515   3.472   5.218   4.470 -1.7221  0.6821 -0.0904
 9700TIP3    H250516   3.526   5.078   4.491  0.1554  1.4853  0.6827
 9701TIP3   OH250517   1.946   2.128   3.547 -0.3942 -0.1309  0.0484
 9701TIP3    H150518   1.994   2.201   3.506  0.5786 -0.5198  0.4651
 9701TIP3    H250519   1.856   2.139   3.516  0.1023  0.1775 -1.3941
 9702TIP3   OH250520   0.372   3.158   0.538 -0.2332  0.3241  0.0559
 9702TIP3    H150521   0.394   3.200   0.621  1.2145 -0.1882 -0.0465
 9702TIP3    H250522   0.430   3.199   0.474 -0.1769 -0.4420 -0.3961
 9703TIP3   OH250523   3.618   1.504   0.319 -1.2671  0.3950 -0.3206
 9703TIP3    H150524   3.705   1.541   0.326  0.2740 -2.1777 -3.2150
 9703TIP3    H250525   3.567   1.570   0.273 -0.2556  1.1488 -0.3804
 9704TIP3   OH250526   1.189   4.187  15.631  0.1990  0.2829 -0.2393
 9704TIP3    H150527   1.106   4.197  15.676  0.7038 -0.6411  0.9622
 9704TIP3    H250528   1.204   4.092  15.629 -0.3254  0.1435 -3.4128
 9705TIP3   OH250529   6.392   2.682  12.320  0.0206  0.3794  0.3436
 9705TIP3    H150530   6.305   2.671  12.282  1.0901 -1.6915 -1.6684
 9705TIP3    H250531   6.448   2.704  12.246  1.7981 -1.6202  1.0229
 9706TIP3   OH250532   0.328   6.489   5.636  0.1648  0.2772  0.7732
 9706TIP3    H150533   0.343   6.494   5.542  0.1448 -0.9203  0.6971
 9706TIP3    H250534   0.393   6.549   5.673  0.2508  0.6712  0.0132
 9707TIP3   OH250535   5.564   5.033  16.696 -0.0211  0.2692  0.5057
 9707TIP3    H150536   5.650   5.041  16.737  0.4203 -0.1937 -0.2873
 9707TIP3    H250537   5.578   5.061  16.606 -0.5751 -0.3200  0.2262
 9708TIP3   OH250538   4.146   4.269  13.795 -0.1998  0.1680 -0.2823
 9708TIP3    H150539   4.087   4.322  13.849  0.2725  0.5231 -0.1116
 9708TIP3    H250540   4.099   4.258  13.713 -0.3814  0.6941 -0.2548
 9709TIP3   OH250541   0.920   3.964  15.551  0.6697  0.5273  0.4973
 9709TIP3    H150542   0.840   4.008  15.580 -0.6315 -0.9744 -0.6345
 9709TIP3    H250543   0.921   3.976  15.456  0.6953 -1.1816  0.2572
 9710TIP3   OH250544   4.168   1.968   0.306  0.0681 -0.7274 -0.1224
 9710TIP3    H150545   4.121   2.052   0.304  0.9373 -0.2331 -0.2766
 9710TIP3    H250546   4.256   1.990   0.275  0.0358 -1.8711 -1.0767
 9711TIP3   OH250547   3.032   3.302  14.448 -0.2987 -0.2040 -0.6842
 9711TIP3    H150548   2.953   3.272  14.403 -0.1553 -2.7787  0.6097
 9711TIP3    H250549   3.024   3.266  14.536  1.4741  1.0650  0.0429
 9712TIP3   OH250550   1.737   5.245   2.191  0.4243  0.4559  0.3637
 9712TIP3    H150551   1.803   5.313   2.207  0.2349  0.5139  0.8867
 9712TIP3    H250552   1.712   5.214   2.278  0.3269 -0.1121  0.1365
 9713TIP3   OH250553   6.208   2.051   0.466  0.6309 -0.1978 -0.1392
 9713TIP3    H150554   6.201   1.956   0.474  0.3135 -0.0633  1.6700
 9713TIP3    H250555   6.157   2.072   0.388 -0.9466 -1.3682  0.5067
 9714TIP3   OH250556   5.731   4.165   6.245  0.2764 -0.1498 -0.2385
 9714TIP3    H150557   5.779   4.084   6.261  2.2398  0.8682 -0.7564
 9714TIP3    H250558   5.785   4.234   6.282  0.0770  1.2261 -2.3174
 9715TIP3   OH250559   5.076   5.048  11.297  0.0426 -0.0618  0.1511
 9715TIP3    H150560   5.159   5.096  11.296  0.1988 -0.3361 -0.4990
 9715TIP3    H250561   5.091   4.976  11.358 -0.1834  0.6848  1.1075
 9716TIP3   OH250562   3.764   6.798   2.668 -1.3163 -0.4932 -0.1797
 9716TIP3    H150563   3.689   6.842   2.707 -0.3792  0.0639  1.0254
 9716TIP3    H250564   3.829   6.867   2.654 -1.3538 -0.7868 -2.1288
 9717TIP3   OH250565   6.223   5.632   1.865 -0.2761 -0.1869  0.0590
 9717TIP3    H150566   6.295   5.693   1.850  0.4202 -0.6892  1.2135
 9717TIP3    H250567   6.199   5.601   1.778  1.2411 -0.3962 -0.3146
 9718TIP3   OH250568   2.256   4.675  14.961  0.3524 -0.4659 -0.0577
 9718TIP3    H150569   2.351   4.686  14.968  0.3872 -1.3222  1.0639
 9718TIP3    H250570   2.245   4.595  14.909  0.2918 -1.1972  1.0428
 9719TIP3   OH250571   2.566   4.377   5.077  0.0749  0.1401  0.1596
 9719TIP3    H150572   2.547   4.379   5.171  1.0472  1.4766  0.3482
 9719TIP3    H250573   2.488   4.416   5.036 -0.1074  0.0844  0.4495
 9720TIP3   OH250574   1.798   4.515   6.444  0.0708 -0.3778  0.1348
 9720TIP3    H150575   1.759   4.470   6.370 -0.8796  1.7684 -0.7543
 9720TIP3    H250576   1.867   4.569   6.405  0.6808 -0.4824  1.0457
 9721TIP3   OH250577   0.819   1.511  15.626  0.0929 -0.6104 -0.4728
 9721TIP3    H150578   0.913   1.498  15.611  0.2965 -0.1804  0.3841
 9721TIP3    H250579   0.782   1.423  15.626  0.4688 -0.7719 -0.9863
 9722TIP3   OH250580   4.839   3.008  14.290  0.4571 -0.7369  0.5510
 9722TIP3    H150581   4.929   3.040  14.286  0.7529 -1.2413  2.2215
 9722TIP3    H250582   4.816   2.990  14.199  1.4856  0.8557 -0.0632
 9723TIP3   OH250583   3.384   1.016   5.811 -0.3031  0.1953  0.2690
 9723TIP3    H150584   3.321   1.056   5.751  0.6257 -1.0000 -1.6106
 9723TIP3    H250585   3.467   1.061   5.791 -0.1671  0.4433  1.3624
 9724TIP3   OH250586   0.510   1.652  15.737 -0.0661  0.5914  0.0845
 9724TIP3    H150587   0.589   1.692  15.775  0.2311 -0.0315  0.1342
 9724TIP3    H250588   0.495   1.700  15.656 -0.4470  1.6424  0.7659
 9725TIP3   OH250589   5.753   3.742   0.096 -0.0996  0.8019 -0.1107
 9725TIP3    H150590   5.845   3.738   0.120 -0.1637  0.0816  0.0408
 9725TIP3    H250591   5.751   3.789   0.013  0.4064  0.7699 -0.1378
 9726TIP3   OH250592   3.331   2.988   1.864 -0.1308  0.1266 -0.0384
 9726TIP3    H150593   3.398   2.965   1.799 -0.3680  1.4691 -0.7866
 9726TIP3    H250594   3.328   2.912   1.922  1.7156 -0.1609 -0.2455
 9727TIP3   OH250595   6.602   5.444   4.443  1.2342  0.1667 -0.0551
 9727TIP3    H150596   6.583   5.537   4.455  1.2147  0.5703 -2.5200
 9727TIP3    H250597   6.574   5.426   4.353  1.6773 -2.1211  0.2068
 9728TIP3   OH250598   2.382   1.883  11.648  0.1745 -0.0853 -0.1753
 9728TIP3    H150599   2.346   1.794  11.649  0.3630 -0.1927 -1.4609
 9728TIP3    H250600   2.473   1.872  11.619  1.1810  0.2392  2.4769
 9729TIP3   OH250601   2.029   2.740   3.614 -0.2747 -0.1036 -0.1003
 9729TIP3    H150602   2.120   2.746   3.583 -0.2286 -1.2688 -0.2465
 9729TIP3    H250603   1.987   2.819   3.580  0.5832  0.2516 -0.3731
 9730TIP3   OH250604   1.324   0.085  15.831 -0.1027  0.1663  0.2633
 9730TIP3    H150605   1.287   0.093  15.743 -1.3048 -0.2154  0.7091
 9730TIP3    H250606   1.401   0.029  15.820 -0.6917 -0.5326 -0.4417
 9731TIP3   OH250607   5.872   0.442   4.013 -0.5466 -0.1246 -0.1535
 9731TIP3    H150608   5.897   0.456   4.105  1.3716 -0.4779 -0.5815
 9731TIP3    H250609   5.879   0.529   3.973 -3.2802  0.4472  0.3764
 9732TIP3   OH250610   3.065   5.011  15.325 -0.1102  0.3559  0.0267
 9732TIP3    H150611   3.131   5.027  15.258 -0.0939  0.0649 -0.0263
 9732TIP3    H250612   2.982   5.026  15.281 -0.2032 -1.6882 -0.6069
 9733TIP3   OH250613   1.053   0.624   0.169 -0.1149 -0.2309 -0.7749
 9733TIP3    H150614   1.093   0.709   0.154 -0.8186  0.7273  2.1250
 9733TIP3    H250615   1.066   0.607   0.262 -1.0361 -2.7677 -1.0119
 9734TIP3   OH250616   2.922   4.098   2.692 -0.5239 -0.1295  0.2706
 9734TIP3    H150617   2.908   4.169   2.629  2.1250 -0.7782 -1.2152
 9734TIP3    H250618   2.838   4.053   2.696 -1.3081  1.0737 -1.3789
 9735TIP3   OH250619   3.747   3.031   4.899  0.1222  0.5152  0.3802
 9735TIP3    H150620   3.776   3.057   4.986 -1.1729 -0.4636  1.1352
 9735TIP3    H250621   3.658   3.065   4.892 -0.7932 -1.6987  0.5368
 9736TIP3   OH250622   0.289   5.077  12.605  0.0721 -0.5062 -0.0084
 9736TIP3    H150623   0.270   5.158  12.652 -1.0328 -0.9460  0.3389
 9736TIP3    H250624   0.324   5.105  12.521 -0.8073  0.3516 -0.1079
 9737TIP3   OH250625   3.579   3.737   6.342  0.5119  0.3870 -0.0845
 9737TIP3    H150626   3.614   3.690   6.418 -3.4760 -1.6344  0.7676
 9737TIP3    H250627   3.533   3.812   6.379 -1.7146 -0.7761 -0.3778
 9738TIP3   OH250628   0.531   2.501   0.916  0.7987 -0.4846  0.3794
 9738TIP3    H150629   0.499   2.578   0.869 -0.0203 -0.3793  1.0995
 9738TIP3    H250630   0.457   2.472   0.970  1.8327 -0.3732  1.9098
 9739TIP3   OH250631   5.673   1.638   2.195 -0.1380 -0.6087  0.0315
 9739TIP3    H150632   5.658   1.730   2.215  1.4622 -0.6750  1.8499
 9739TIP3    H250633   5.760   1.635   2.156  0.8107 -1.5339  2.0825
 9740TIP3   OH250634   2.961   3.034  16.109 -0.1111 -0.1171  0.0754
 9740TIP3    H150635   3.011   3.094  16.052  1.2653 -1.3066 -0.0492
 9740TIP3    H250636   3.000   3.046  16.195 -1.1897  0.5864  0.4869
 9741TIP3   OH250637   0.243   4.341   3.023 -0.5062 -0.2200 -0.6854
 9741TIP3    H150638   0.305   4.282   2.980 -1.6342 -2.2232  0.2841
 9741TIP3    H250639   0.210   4.397   2.952 -0.3525 -1.6292 -1.9170
 9742TIP3   OH250640   4.345   1.527  13.617 -0.2859  0.0682 -0.4702
 9742TIP3    H150641   4.306   1.561  13.697 -1.4172  0.2522 -1.0761
 9742TIP3    H250642   4.311   1.437  13.610  2.3561 -1.1370  0.9132
 9743TIP3   OH250643   1.799   6.257   3.214 -0.1198 -0.3185 -0.1648
 9743TIP3    H150644   1.708   6.229   3.218  0.0107 -0.6514  0.7125
 9743TIP3    H250645   1.804   6.314   3.137 -1.0745 -0.2664 -0.1936
 9744TIP3   OH250646   3.418   3.309  11.692  0.3638 -0.0916  0.5534
 9744TIP3    H150647   3.426   3.404  11.701 -1.5020  0.4037 -1.8337
 9744TIP3    H250648   3.341   3.286  11.745 -0.0316 -0.0292  0.0114
 9745TIP3   OH250649   2.077   2.436   3.746  0.8147 -0.1770  0.4414
 9745TIP3    H150650   2.031   2.511   3.709  2.2937  2.2804  3.1677
 9745TIP3    H250651   2.167   2.444   3.713  0.9386 -0.9074  0.5874
 9746TIP3   OH250652   1.579   3.652   2.830 -0.1460 -0.0842  0.0753
 9746TIP3    H150653   1.669   3.630   2.805  0.1394  0.2674  0.7750
 9746TIP3    H250654   1.588   3.695   2.915 -1.0909 -1.3025  0.8216
 9747TIP3   OH250655   0.689   6.403  17.090  0.4025  0.2965 -0.2203
 9747TIP3    H150656   0.717   6.404  16.999 -0.5238 -1.9272 -0.6086
 9747TIP3    H250657   0.599   6.435  17.087  0.6272  0.9647  0.0411
 9748TIP3   OH250658   4.823   4.073   3.252  0.0010  0.5148 -0.7260
 9748TIP3    H150659   4.773   4.153   3.267 -0.9961 -0.1585 -0.3012
 9748TIP3    H250660   4.832   4.033   3.338 -1.8585 -1.1417 -1.1994
 9749TIP3   OH250661   1.796   5.374   5.285  0.3443  0.5862  0.1126
 9749TIP3    H150662   1.753   5.324   5.354 -0.4332  1.1371  0.0310
 9749TIP3    H250663   1.890   5.361   5.301  0.1778  0.7334  1.2905
 9750TIP3   OH250664   5.651   1.860  13.289 -0.0509  0.0055 -0.2778
 9750TIP3    H150665   5.565   1.856  13.330 -1.2384  2.0985 -2.3005
 9750TIP3    H250666   5.691   1.939  13.325  1.1521 -1.0439  0.7756
 9751TIP3   OH250667   4.326   6.126   6.106  0.2433 -0.1035 -0.6342
 9751TIP3    H150668   4.419   6.127   6.080 -0.1991  1.1419 -2.3653
 9751TIP3    H250669   4.300   6.218   6.103 -0.9242 -0.3791  0.4174
 9752TIP3   OH250670   5.859   5.194   6.474 -0.2962 -0.1849  0.4140
 9752TIP3    H150671   5.782   5.153   6.435  1.2519 -2.0676 -0.8391
 9752TIP3    H250672   5.863   5.281   6.434 -0.5043 -0.9308 -1.3441
 9753TIP3   OH250673   4.404   0.635  13.005  0.5163  0.1584  0.4680
 9753TIP3    H150674   4.396   0.678  12.920 -2.3762 -2.5137 -0.8225
 9753TIP3    H250675   4.330   0.670  13.056  1.2719  0.5446  1.3272
 9754TIP3   OH250676   4.377   3.475   1.960 -0.3111  0.5896 -0.1267
 9754TIP3    H150677   4.381   3.569   1.979 -0.3666  0.9623 -1.7751
 9754TIP3    H250678   4.459   3.456   1.915  0.3292 -0.4883  1.4228
 9755TIP3   OH250679   0.582   0.365   3.140  0.5795  0.1491 -0.3691
 9755TIP3    H150680   0.535   0.411   3.210  1.0215 -0.6412  0.4629
 9755TIP3    H250681   0.649   0.315   3.185  0.3755 -1.0017 -1.2961
 9756TIP3   OH250682   0.294   5.137   6.675  0.0916 -0.0151 -0.2570
 9756TIP3    H150683   0.248   5.213   6.640 -1.3458 -0.5019  0.5073
 9756TIP3    H250684   0.334   5.096   6.598 -0.0908  0.8641 -0.8316
 9757TIP3   OH250685   5.908   1.113  12.779  0.2433  0.6292 -0.1431
 9757TIP3    H150686   5.835   1.097  12.840  0.8959  1.5184  0.9018
 9757TIP3    H250687   5.985   1.119  12.834  0.7679  2.1406 -0.9683
 9758TIP3   OH250688   0.898   4.569  10.982 -0.1387 -0.4012 -0.2047
 9758TIP3    H150689   0.806   4.596  10.978  0.4698  2.4547  1.5779
 9758TIP3    H250690   0.909   4.537  11.072  0.8439  0.5257  0.0294
 9759TIP3   OH250691   3.343   3.440   6.193 -0.0739 -0.1301 -0.1331
 9759TIP3    H150692   3.366   3.496   6.119  0.1718 -1.6363 -1.2406
 9759TIP3    H250693   3.265   3.393   6.164  1.0362 -2.0378 -0.1840
 9760TIP3   OH250694   3.755   0.852   6.011 -0.4343  0.5996 -0.1448
 9760TIP3    H150695   3.699   0.809   5.947  1.2792 -2.1343  0.0667
 9760TIP3    H250696   3.758   0.792   6.085  4.0569 -0.3584 -0.8077
 9761TIP3   OH250697   5.285   2.991  15.603  0.2644 -0.0772 -0.3269
 9761TIP3    H150698   5.288   3.085  15.616  0.2461 -0.0888 -0.2384
 9761TIP3    H250699   5.335   2.954  15.676 -0.3162 -0.1688  0.0266
 9762TIP3   OH250700   5.914   3.422  16.315  0.3008 -0.1435 -0.1409
 9762TIP3    H150701   5.892   3.385  16.229  1.0373 -1.0976  0.0682
 9762TIP3    H250702   5.922   3.346  16.372  1.9156  0.3240  0.2918
 9763TIP3   OH250703   3.268   5.217  16.399  0.2588 -0.1891 -0.6975
 9763TIP3    H150704   3.274   5.177  16.486  0.6482  0.5128 -0.3927
 9763TIP3    H250705   3.175   5.213  16.377 -0.0108  0.5616  0.2119
 9764TIP3   OH250706   3.822   5.756  16.863 -0.1404  0.3480  0.2387
 9764TIP3    H150707   3.858   5.745  16.951 -2.0624 -0.3684  0.9981
 9764TIP3    H250708   3.796   5.668  16.837 -0.7347  0.7409 -0.5325
 9765TIP3   OH250709   1.142   2.328  12.631  0.3091  0.5798 -0.1704
 9765TIP3    H150710   1.058   2.358  12.664  0.2297  0.4030 -0.2117
 9765TIP3    H250711   1.125   2.302  12.541  0.2143 -0.2699  0.0837
 9766TIP3   OH250712   4.883   4.643  11.446 -0.0438  0.4674 -0.2452
 9766TIP3    H150713   4.873   4.599  11.531 -1.6972  2.6415  0.7925
 9766TIP3    H250714   4.960   4.700  11.458 -2.8423  4.3339  1.6965
 9767TIP3   OH250715   0.209   2.267   2.879 -0.0081 -0.8496 -0.0750
 9767TIP3    H150716   0.152   2.208   2.831  1.6476 -2.5979  0.0129
 9767TIP3    H250717   0.200   2.240   2.971 -0.2308 -0.0449  0.1585
 9768TIP3   OH250718   0.141   2.709   1.055 -0.0792  0.2833  0.4978
 9768TIP3    H150719   0.174   2.728   0.968 -0.0921  1.0768  0.6548
 9768TIP3    H250720   0.219   2.691   1.107 -0.0726 -0.2022  0.3216
 9769TIP3   OH250721   3.580   1.197   4.955  0.3192  0.0380  0.0285
 9769TIP3    H150722   3.535   1.153   5.027  0.8366 -0.9398 -0.2344
 9769TIP3    H250723   3.654   1.242   4.996  0.4422 -0.2721  0.1452
 9770TIP3   OH250724   2.915   0.185   0.959  0.1123 -0.0240 -0.0523
 9770TIP3    H150725   2.854   0.257   0.975 -0.2509 -0.5436  0.9670
 9770TIP3    H250726   2.997   0.212   1.001 -0.7961 -1.3219  2.7881
 9771TIP3   OH250727   2.880   4.202   1.310 -0.0749 -0.7293  0.7451
 9771TIP3    H150728   2.865   4.111   1.285  0.1724 -0.7430  0.6397
 9771TIP3    H250729   2.958   4.228   1.261  0.2710 -0.6803  1.3139
 9772TIP3   OH250730   4.759   0.073   4.399 -0.6253  0.0702  0.2794
 9772TIP3    H150731   4.788   0.005   4.338 -0.5079 -1.9585  2.4465
 9772TIP3    H250732   4.669   0.092   4.373 -0.2085  0.1413 -1.2110
 9773TIP3   OH250733   6.056   1.106   1.492  0.0749  0.4164 -0.6064
 9773TIP3    H150734   6.064   1.011   1.502 -0.6605 -0.1855 -4.2823
 9773TIP3    H250735   6.146   1.139   1.498  0.4018 -0.5589  0.0767
 9774TIP3   OH250736   3.261   0.580  14.326 -0.1040 -0.0584 -0.3370
 9774TIP3    H150737   3.212   0.645  14.276  1.5421  0.9413 -0.7053
 9774TIP3    H250738   3.344   0.623  14.348  0.4047 -1.4966  0.7456
 9775TIP3   OH250739   2.846   0.329  11.308 -0.2318 -0.2538  0.1529
 9775TIP3    H150740   2.834   0.418  11.272  0.3307 -0.7040 -1.2238
 9775TIP3    H250741   2.900   0.342  11.386 -0.4749  0.6515  0.1872
 9776TIP3   OH250742   4.174   4.555   5.997  0.4527  0.2630 -0.4170
 9776TIP3    H150743   4.138   4.619   5.936 -0.3233 -0.3508 -0.6296
 9776TIP3    H250744   4.119   4.564   6.075  0.7288  0.2755 -0.2230
 9777TIP3   OH250745   0.895   3.015   0.163  0.1194  0.1075 -0.4724
 9777TIP3    H150746   0.832   3.066   0.112  0.4196 -0.1750 -1.1456
 9777TIP3    H250747   0.934   2.955   0.099 -0.9619 -1.7085  0.4732
 9778TIP3   OH250748   0.392   3.895   3.788  0.0441  1.1072 -0.3600
 9778TIP3    H150749   0.331   3.920   3.719 -1.4596 -0.2973  0.3914
 9778TIP3    H250750   0.419   3.807   3.765  0.3172  1.0093  0.3028
 9779TIP3   OH250751   4.039   4.137  15.172  0.5326  0.5221  0.1113
 9779TIP3    H150752   4.054   4.130  15.078  1.0813 -2.0762  0.3247
 9779TIP3    H250753   3.974   4.069  15.191  0.1736  1.2389  1.5704
 9780TIP3   OH250754   3.185   2.289   5.920 -0.1842  0.1169 -0.6260
 9780TIP3    H150755   3.157   2.367   5.968  0.6850 -0.4459  0.8842
 9780TIP3    H250756   3.154   2.216   5.974  2.5955 -0.5337  0.2461
 9781TIP3   OH250757   2.450   6.091  16.839 -0.8147  0.1025 -0.0103
 9781TIP3    H150758   2.466   6.112  16.747 -0.5402  0.0998  0.0364
 9781TIP3    H250759   2.393   6.161  16.871 -2.1151 -0.6732 -0.5657
 9782TIP3   OH250760   3.080   0.599   2.064 -0.9331 -0.5684  0.4892
 9782TIP3    H150761   3.121   0.637   1.987  2.1477 -2.1752  1.1452
 9782TIP3    H250762   3.081   0.669   2.129  1.2377 -0.5975  0.5577
 9783TIP3   OH250763   3.492   1.702   2.901  0.1850 -0.0393  0.3708
 9783TIP3    H150764   3.400   1.680   2.890 -0.4210  1.7941  1.2877
 9783TIP3    H250765   3.518   1.739   2.817 -0.7837  2.0622  0.9136
 9784TIP3   OH250766   5.380   4.189  10.233  0.0074 -0.0879  0.2879
 9784TIP3    H150767   5.307   4.164  10.290  0.6749  0.7687  1.5681
 9784TIP3    H250768   5.436   4.243  10.289  1.9033 -1.1393 -0.5049
 9785TIP3   OH250769   3.177   5.932  12.771 -0.6071 -0.2492  0.4382
 9785TIP3    H150770   3.236   5.862  12.797 -0.6361 -0.8231 -0.9753
 9785TIP3    H250771   3.146   5.907  12.684 -2.2627  0.4640  0.7812
 9786TIP3   OH250772   1.132   1.599   0.911 -0.2821 -0.5421 -0.2949
 9786TIP3    H150773   1.139   1.506   0.892 -0.6674 -0.5704 -0.3110
 9786TIP3    H250774   1.171   1.642   0.835 -0.0366 -0.6902 -0.2539
 9787TIP3   OH250775   4.747   0.434   2.280 -0.2307 -0.0542  0.7787
 9787TIP3    H150776   4.652   0.449   2.279 -0.1582  0.5345 -1.0175
 9787TIP3    H250777   4.784   0.515   2.243  0.9434 -0.4086  1.1566
 9788TIP3   OH250778   0.167   1.862  13.258 -0.3060  0.1091  0.4223
 9788TIP3    H150779   0.133   1.782  13.217  0.2530  0.1580 -0.1564
 9788TIP3    H250780   0.253   1.836  13.293 -1.2023 -0.2206  2.5532
 9789TIP3   OH250781   3.332   3.471  11.382 -0.7229 -0.2637  0.2979
 9789TIP3    H150782   3.399   3.422  11.333 -0.5003  0.7616 -0.4442
 9789TIP3    H250783   3.298   3.535  11.319 -1.0948  0.4537  1.2106
 9790TIP3   OH250784   6.338   2.678   3.490 -0.1344  0.1164 -0.0685
 9790TIP3    H150785   6.314   2.754   3.544  0.5955  0.1685  0.2005
 9790TIP3    H250786   6.268   2.615   3.505 -2.0688  1.6123 -2.1608
 9791TIP3   OH250787   4.662   0.692   1.883 -0.1403  0.5159 -0.2375
 9791TIP3    H150788   4.607   0.698   1.805 -0.3374 -0.1867 -0.1574
 9791TIP3    H250789   4.725   0.764   1.874 -0.5677  0.8332 -0.7217
 9792TIP3   OH250790   2.393   3.807   2.518  0.1761  0.5755 -0.2852
 9792TIP3    H150791   2.386   3.870   2.446  0.6614  1.4225  0.3899
 9792TIP3    H250792   2.455   3.742   2.487  1.0020  1.3732 -0.3410
 9793TIP3   OH250793   4.555   0.220  16.661  0.4325 -0.5708 -0.4193
 9793TIP3    H150794   4.564   0.263  16.577  1.1614 -1.2093 -0.6736
 9793TIP3    H250795   4.626   0.254  16.714  0.4962 -0.8151 -0.3448
 9794TIP3   OH250796   6.612   5.595  14.640 -0.4527  0.0599 -0.1947
 9794TIP3    H150797   6.577   5.580  14.728  1.5649 -0.1000  0.6361
 9794TIP3    H250798   6.551   5.549  14.582 -2.1138  0.6103  1.0464
 9795TIP3   OH250799   0.103   5.943  16.819  0.0852 -0.0138  0.7748
 9795TIP3    H150800   0.088   5.904  16.733 -1.5599 -0.2592  1.1452
 9795TIP3    H250801   0.087   5.871  16.881 -3.0863  1.1314  1.4772
 9796TIP3   OH250802   4.634   4.103  15.608  0.7120 -0.1243 -0.4233
 9796TIP3    H150803   4.648   4.197  15.623  1.3112 -0.2202 -0.3337
 9796TIP3    H250804   4.718   4.072  15.573  0.7489 -0.7548  0.1949
 9797TIP3   OH250805   4.263   6.482   4.160 -0.4730 -0.0645 -0.2231
 9797TIP3    H150806   4.267   6.467   4.255  0.0316 -0.5715 -0.3200
 9797TIP3    H250807   4.222   6.568   4.151  2.4644  1.5268  0.5580
 9798TIP3   OH250808   2.533   2.623  17.081  0.1173  0.0928  0.3582
 9798TIP3    H150809   2.498   2.712  17.073 -0.3144  0.1744  2.5834
 9798TIP3    H250810   2.472   2.579  17.139  2.0363 -0.6893  1.8652
 9799TIP3   OH250811   4.469   5.455  14.058  0.3268 -0.0354 -0.3446
 9799TIP3    H150812   4.425   5.400  14.123 -1.9364  0.0582 -1.6885
 9799TIP3    H250813   4.527   5.394  14.012 -0.7240 -0.9240 -0.5487
 9800TIP3   OH250814   5.144   1.514   2.844 -0.8940 -0.1177  0.0171
 9800TIP3    H150815   5.158   1.451   2.773  1.5573 -0.7531  0.9583
 9800TIP3    H250816   5.051   1.505   2.866 -0.8911 -2.6265 -0.6580
 9801TIP3   OH250817   2.194   3.968  15.889 -0.2974 -0.0668 -0.2003
 9801TIP3    H150818   2.231   3.912  15.821  1.4123 -0.9602  1.3993
 9801TIP3    H250819   2.250   4.046  15.890  0.6408 -0.7277  1.1677
 9802TIP3   OH250820   3.046   4.570   3.984 -0.1375  0.4044  0.3783
 9802TIP3    H150821   2.992   4.509   4.034  1.2830 -1.6539 -0.4517
 9802TIP3    H250822   3.087   4.625   4.051 -2.5838  1.5303  1.0590
 9803TIP3   OH250823   0.673   6.205   1.015  0.3075 -0.8155  0.1863
 9803TIP3    H150824   0.709   6.246   1.094 -1.8562  3.3854 -0.7161
 9803TIP3    H250825   0.590   6.168   1.043 -0.8377  1.3623 -0.0952
 9804TIP3   OH250826   0.656   2.209  17.081  0.2175  0.1907 -0.9584
 9804TIP3    H150827   0.726   2.187  17.142 -0.8969  1.5981  0.9564
 9804TIP3    H250828   0.617   2.125  17.058  0.7498 -0.4099  0.2234
 9805TIP3   OH250829   6.797   3.191  15.954  0.4769 -0.3880 -0.2605
 9805TIP3    H150830   6.795   3.218  16.046  0.5004  1.9054 -0.8814
 9805TIP3    H250831   6.749   3.260  15.908  0.5618 -1.4399 -1.9947
 9806TIP3   OH250832   5.135   1.085  11.619  0.0720 -0.2757  0.2683
 9806TIP3    H150833   5.112   1.042  11.702 -0.5332 -0.2390  0.1234
 9806TIP3    H250834   5.228   1.106  11.628  0.1380 -0.7400  0.7322
 9807TIP3   OH250835   2.087   4.906   3.113  0.4548 -0.5177 -0.6323
 9807TIP3    H150836   2.123   4.989   3.082  1.2841 -0.9790 -0.9457
 9807TIP3    H250837   2.100   4.908   3.208  1.5853 -0.7918 -0.7681
 9808TIP3   OH250838   6.363   3.710  14.592  0.2739  0.0360 -0.1387
 9808TIP3    H150839   6.303   3.714  14.519 -0.9719 -2.1755  0.6723
 9808TIP3    H250840   6.314   3.746  14.666  1.4652  2.1134 -0.2860
 9809TIP3   OH250841   4.903   4.312  11.072 -0.6935 -0.4094 -0.0021
 9809TIP3    H150842   4.814   4.295  11.102 -0.5946 -0.2935  0.3577
 9809TIP3    H250843   4.934   4.227  11.041 -0.2057 -0.9176  1.7932
 9810TIP3   OH250844   4.526   5.137  12.961  0.1668 -0.0375  0.4185
 9810TIP3    H150845   4.541   5.209  12.900 -0.8930  0.7366  1.0449
 9810TIP3    H250846   4.544   5.058  12.910 -1.7119  0.5307 -1.2509
 9811TIP3   OH250847   4.155   5.120  12.019 -0.6595  0.0389  0.0872
 9811TIP3    H150848   4.079   5.073  12.053 -1.9792  1.3838 -0.8734
 9811TIP3    H250849   4.226   5.056  12.021 -2.2007 -1.7666 -0.5257
 9812TIP3   OH250850   1.301   5.965  12.003  0.6906  0.3244 -0.1762
 9812TIP3    H150851   1.389   6.002  11.996  1.2964 -0.9883  0.1215
 9812TIP3    H250852   1.316   5.871  12.017 -0.7717 -0.0301 -0.8166
 9813TIP3   OH250853   4.946   3.705   0.325 -0.2889 -0.2394 -0.2479
 9813TIP3    H150854   5.016   3.704   0.390 -0.4515  0.1395 -0.0634
 9813TIP3    H250855   4.990   3.682   0.243  0.0732  0.0699 -0.1476
 9814TIP3   OH250856   4.584   0.391  15.191 -0.0748 -0.4156  0.3891
 9814TIP3    H150857   4.506   0.338  15.173  1.0073 -1.9880  0.1852
 9814TIP3    H250858   4.610   0.367  15.279 -0.8673  1.5245  1.2099
 9815TIP3   OH250859   1.174   3.417  16.802  0.4490  0.1318  0.5236
 9815TIP3    H150860   1.238   3.445  16.737 -1.2614  3.4542  0.0365
 9815TIP3    H250861   1.156   3.496  16.854 -0.8721 -1.4988  2.7308
 9816TIP3   OH250862   3.566   2.544   2.412 -0.0133  0.6622 -0.3258
 9816TIP3    H150863   3.606   2.628   2.389 -2.2713  1.7812 -0.4169
 9816TIP3    H250864   3.624   2.479   2.373  1.9526  2.1299 -0.0390
 9817TIP3   OH250865   4.780   4.375  13.893 -0.0833  0.0871  0.3906
 9817TIP3    H150866   4.843   4.305  13.906 -1.0413 -0.6376  1.2417
 9817TIP3    H250867   4.831   4.456  13.906  0.8073 -0.4578  0.3735
 9818TIP3   OH250868   1.280   4.507   1.700 -0.5456 -0.2548 -0.2652
 9818TIP3    H150869   1.319   4.447   1.637 -1.5304  0.7599 -1.9194
 9818TIP3    H250870   1.211   4.456   1.744  0.3996 -1.0757  0.2915
 9819TIP3   OH250871   6.721   3.078   5.078  0.4871  0.0618 -0.1849
 9819TIP3    H150872   6.684   3.157   5.039  0.5533  0.2315  0.0950
 9819TIP3    H250873   6.717   3.012   5.008  1.3459  0.5734 -0.7297
 9820TIP3   OH250874   4.374   1.970  12.599  0.2073  0.2183  0.6589
 9820TIP3    H150875   4.412   2.058  12.596 -0.1814  0.4534  1.8796
 9820TIP3    H250876   4.357   1.947  12.508  1.9079  0.7029  0.1771
 9821TIP3   OH250877   4.933   4.151   0.540  0.1258  0.5027  0.0243
 9821TIP3    H150878   4.892   4.138   0.455  0.7057 -0.9860 -0.0689
 9821TIP3    H250879   5.026   4.166   0.520  0.3024 -0.0564  0.3828
 9822TIP3   OH250880   6.279   3.780  12.917 -0.2412 -0.5678  0.3554
 9822TIP3    H150881   6.365   3.812  12.947 -0.3577  1.0545 -0.9172
 9822TIP3    H250882   6.217   3.845  12.950 -1.0083 -1.6667  1.1559
 9823TIP3   OH250883   5.811   0.219   2.181 -0.2372 -0.0073  0.0059
 9823TIP3    H150884   5.879   0.186   2.240 -0.3395 -1.1931 -0.5153
 9823TIP3    H250885   5.819   0.165   2.102 -1.4457  0.1839 -0.2679
 9824TIP3   OH250886   5.329   2.761   4.289 -0.6620  0.8267 -0.5918
 9824TIP3    H150887   5.256   2.732   4.235 -0.8880  1.3286 -0.5611
 9824TIP3    H250888   5.403   2.767   4.228  0.3830 -3.1882 -0.0418
 9825TIP3   OH250889   1.843   2.666  13.641  0.3784  0.6413 -0.0945
 9825TIP3    H150890   1.933   2.695  13.651  0.9252 -0.9648 -0.0802
 9825TIP3    H250891   1.842   2.619  13.557 -0.9823  2.4768 -1.2065
 9826TIP3   OH250892   5.562   0.167   5.084  0.1043  0.3890  0.1393
 9826TIP3    H150893   5.485   0.206   5.045  0.8552  2.6779  0.7792
 9826TIP3    H250894   5.616   0.241   5.111  1.6233 -1.1052  1.5051
 9827TIP3   OH250895   6.127   5.731   5.520 -0.4831 -0.1757  0.6354
 9827TIP3    H150896   6.076   5.737   5.439 -1.6791 -0.6157  1.3235
 9827TIP3    H250897   6.117   5.817   5.560 -1.4561 -0.5297  1.1919
 9828TIP3   OH250898   6.289   2.273  13.829 -0.1761 -0.1849  0.0651
 9828TIP3    H150899   6.237   2.243  13.904  0.2241 -2.6501 -0.5287
 9828TIP3    H250900   6.380   2.264  13.860 -0.0374  1.4293  0.1745
 9829TIP3   OH250901   6.780   6.500  12.609  0.6159  0.1626 -1.0023
 9829TIP3    H150902   6.712   6.435  12.588  0.4915  0.2398 -0.8435
 9829TIP3    H250903   6.817   6.470  12.692 -0.9104  1.4329  0.2198
 9830TIP3   OH250904   2.664   2.422   3.194  0.3701 -0.0036 -0.1367
 9830TIP3    H150905   2.709   2.506   3.195 -2.4131  1.6803 -2.2321
 9830TIP3    H250906   2.690   2.380   3.276  2.6070  2.4357  0.5356
 9831TIP3   OH250907   1.492   4.529  12.625  0.7929 -0.4839 -0.1298
 9831TIP3    H150908   1.557   4.495  12.685  0.8786 -1.3630 -0.7034
 9831TIP3    H250909   1.444   4.452  12.595 -1.3728  0.2394  1.2369
 9832TIP3   OH250910   4.887   1.962  16.097  0.7995 -0.4604 -0.6145
 9832TIP3    H150911   4.810   1.932  16.049 -0.5157  2.0232 -0.1795
 9832TIP3    H250912   4.861   1.959  16.189  1.3264  0.1027 -0.4411
 9833TIP3   OH250913   5.102   1.561  14.635 -0.0127  0.6725  0.0509
 9833TIP3    H150914   5.154   1.488  14.601  0.5925  1.3629 -0.5599
 9833TIP3    H250915   5.119   1.560  14.730  0.5245  0.4201 -0.0404
 9834TIP3   OH250916   1.831   4.998  10.888  0.0623 -0.1189 -0.3144
 9834TIP3    H150917   1.897   5.065  10.869 -0.7827  0.9099  0.2221
 9834TIP3    H250918   1.838   4.936  10.815  3.5197 -1.6514  1.0735
 9835TIP3   OH250919   0.080   6.569  13.564 -0.5818 -0.1042 -0.2867
 9835TIP3    H150920   0.021   6.584  13.638 -1.0851 -0.4848 -0.6064
 9835TIP3    H250921   0.168   6.575  13.602 -0.8025  0.9869  0.0985
 9836TIP3   OH250922   0.996   2.754   0.838  0.2818 -0.0417  0.0056
 9836TIP3    H150923   1.061   2.757   0.908  0.8869  0.7402 -0.5834
 9836TIP3    H250924   1.015   2.830   0.784  0.5165 -1.2037 -1.6207
 9837TIP3   OH250925   5.839   1.586   5.640 -0.3418 -0.2376  0.0685
 9837TIP3    H150926   5.890   1.507   5.659  2.9433  1.3373 -1.4507
 9837TIP3    H250927   5.841   1.635   5.723 -1.3038 -1.1372  0.6452
 9838TIP3   OH250928   2.328   1.754   1.024 -0.7850 -0.5110 -0.0828
 9838TIP3    H150929   2.377   1.773   0.944  1.5354  0.0977  1.4144
 9838TIP3    H250930   2.306   1.661   1.017  0.4756 -0.7702 -0.8696
 9839TIP3   OH250931   3.466   3.955   1.700 -0.0888  0.4071  0.0585
 9839TIP3    H150932   3.517   3.942   1.620  0.5246  0.2751  0.4710
 9839TIP3    H250933   3.414   4.034   1.683  0.5099  0.7389 -0.2290
 9840TIP3   OH250934   2.882   1.786   4.207 -0.0192 -0.1698  0.3021
 9840TIP3    H150935   2.820   1.737   4.153 -1.3444  0.4763  1.1870
 9840TIP3    H250936   2.928   1.843   4.144 -1.0464  0.0726 -0.2564
 9841TIP3   OH250937   2.635   2.874   6.109 -0.4514  0.2673 -0.3608
 9841TIP3    H150938   2.572   2.904   6.175  0.6275  1.7576  0.0387
 9841TIP3    H250939   2.718   2.912   6.136  0.7696 -2.0204 -0.6158
 9842TIP3   OH250940   4.758   3.485   5.601 -0.1243  0.1529  0.0284
 9842TIP3    H150941   4.666   3.496   5.577  0.4476  1.5992 -1.7444
 9842TIP3    H250942   4.789   3.573   5.621  0.6491 -0.4462  1.7143
 9843TIP3   OH250943   4.242   3.682   3.493 -0.6162  0.1969  0.3974
 9843TIP3    H150944   4.177   3.749   3.514  0.2019  1.2550 -0.3871
 9843TIP3    H250945   4.326   3.726   3.499 -0.0493 -0.7932  0.0020
 9844TIP3   OH250946   3.118   2.810  16.399  0.2296  0.2125 -0.5647
 9844TIP3    H150947   3.178   2.791  16.326 -0.6310  0.4997 -1.3736
 9844TIP3    H250948   3.143   2.748  16.468  2.3253  1.2203 -0.3559
 9845TIP3   OH250949   6.337   1.146   1.546 -0.4591  0.2147  0.0987
 9845TIP3    H150950   6.364   1.062   1.509 -1.0421  0.2839 -0.4869
 9845TIP3    H250951   6.347   1.208   1.473  1.4873  0.9784  0.9301
 9846TIP3   OH250952   6.721   6.723  16.723 -0.0876 -0.0388  0.2100
 9846TIP3    H150953   6.712   6.737  16.628  1.3415  0.6169  0.1368
 9846TIP3    H250954   6.767   6.639  16.730  2.1035  1.0650  0.1655
 9847TIP3   OH250955   0.460   4.874   5.204 -0.2819  0.4930  0.3464
 9847TIP3    H150956   0.389   4.811   5.211 -0.7314  0.8344 -0.8176
 9847TIP3    H250957   0.539   4.821   5.193 -0.5685  0.1185  0.0810
 9848TIP3   OH250958   5.816   5.441  17.022 -0.0640 -0.4326 -0.0247
 9848TIP3    H150959   5.850   5.353  17.036 -1.4400 -0.9093  0.4939
 9848TIP3    H250960   5.748   5.452  17.089  0.4189  1.2210  0.2410
 9849TIP3   OH250961   1.850   0.090  12.477  0.0026  0.3438  0.1260
 9849TIP3    H150962   1.886   0.031  12.543  1.6595  0.4546 -0.6327
 9849TIP3    H250963   1.848   0.176  12.521 -4.5728 -0.4379  2.0543
 9850TIP3   OH250964   1.897   1.250  14.797 -0.2610 -0.7078  0.1203
 9850TIP3    H150965   1.834   1.220  14.732  0.7695 -1.2542 -0.6573
 9850TIP3    H250966   1.854   1.323  14.841 -1.6099 -1.3629 -0.0669
 9851TIP3   OH250967   3.434   0.755   3.671 -0.2870 -0.6162  0.6512
 9851TIP3    H150968   3.497   0.689   3.698 -1.2464 -1.2737  1.3472
 9851TIP3    H250969   3.487   0.823   3.629  1.2306  0.1994  3.6267
 9852TIP3   OH250970   2.893   3.599   1.392  1.0616  0.1700  0.1681
 9852TIP3    H150971   2.901   3.602   1.487  2.3734  2.0826  0.0698
 9852TIP3    H250972   2.970   3.551   1.362  0.5745 -0.5614  0.0475
 9853TIP3   OH250973   2.278   4.109  13.279 -0.2574 -0.0415 -0.0227
 9853TIP3    H150974   2.315   4.097  13.366 -1.2493  1.3475  0.6444
 9853TIP3    H250975   2.185   4.091  13.289 -0.1331 -1.5018 -1.1990
 9854TIP3   OH250976   4.607   1.864   0.645 -0.2468  0.4717 -0.4183
 9854TIP3    H150977   4.685   1.817   0.674 -0.7188  0.3245  0.6694
 9854TIP3    H250978   4.599   1.937   0.706 -0.1638  1.3104 -1.3958
 9855TIP3   OH250979   2.934   1.009  14.773 -0.7401 -0.1017  0.6831
 9855TIP3    H150980   2.925   0.954  14.696 -0.6664  0.7219  0.0766
 9855TIP3    H250981   2.997   1.077  14.748 -2.1891  1.3328  0.7841
 9856TIP3   OH250982   6.668   3.849   0.480 -0.6060 -0.3758  0.6631
 9856TIP3    H150983   6.604   3.913   0.447 -0.7634 -1.4534 -1.2826
 9856TIP3    H250984   6.669   3.781   0.413  2.9596 -0.1821  0.3474
 9857TIP3   OH250985   2.370   1.147  14.608  0.2629  0.0172 -0.1347
 9857TIP3    H150986   2.319   1.167  14.687 -0.3648 -1.4902 -0.1210
 9857TIP3    H250987   2.461   1.157  14.636  0.0618  2.5245 -0.0938
 9858TIP3   OH250988   6.117   0.813  16.124  0.4944 -0.4764  0.3407
 9858TIP3    H150989   6.175   0.861  16.184  2.1764  0.1451 -1.6750
 9858TIP3    H250990   6.057   0.767  16.182  1.5510  0.6710  2.4896
 9859TIP3   OH250991   5.502   4.987  12.286 -0.3715  0.0174  0.0167
 9859TIP3    H150992   5.578   4.929  12.279 -0.0043  0.4267  0.5735
 9859TIP3    H250993   5.462   4.963  12.369  0.4717  1.3632  0.8493
 9860TIP3   OH250994   2.707   4.167  14.903 -0.8002 -0.3574 -0.2721
 9860TIP3    H150995   2.688   4.177  14.810 -1.0784 -2.0939 -0.4359
 9860TIP3    H250996   2.622   4.170  14.946 -0.5781  1.7589  0.1057
 9861TIP3   OH250997   5.963   4.012   5.259  0.1089 -0.8500  0.0660
 9861TIP3    H150998   5.942   4.021   5.166  1.1386  1.1272 -0.0230
 9861TIP3    H250999   6.014   3.931   5.264 -0.7705 -1.4963 -0.9078
 9862TIP3   OH251000   5.441   2.510  11.649  0.1643  0.1211 -0.4079
 9862TIP3    H151001   5.402   2.598  11.654  0.1859  0.0863  0.3827
 9862TIP3    H251002   5.386   2.456  11.706  0.3733 -0.3040 -0.6043
 9863TIP3   OH251003   5.608   1.282   3.293  0.0680 -0.1306 -0.4593
 9863TIP3    H151004   5.600   1.354   3.355  2.5300  0.2530 -0.4854
 9863TIP3    H251005   5.632   1.324   3.210  1.5864 -0.9611 -0.4627
 9864TIP3   OH251006   5.552   1.524   3.422 -0.6037  0.1902  0.7740
 9864TIP3    H151007   5.495   1.499   3.494 -1.9375  1.6141  0.2835
 9864TIP3    H251008   5.551   1.620   3.423  0.5328  0.2369 -0.2210
 9865TIP3   OH251009   0.556   2.627   5.345  0.5990  0.4237 -0.2125
 9865TIP3    H151010   0.525   2.542   5.376  0.9145  0.7025  0.9144
 9865TIP3    H251011   0.605   2.663   5.419  1.4898  1.0680 -1.0941
 9866TIP3   OH251012   0.970   5.090  14.698 -0.2556  0.4192  0.0998
 9866TIP3    H151013   1.049   5.135  14.729 -0.2796 -0.6056  1.7509
 9866TIP3    H251014   0.906   5.104  14.767  0.0059 -2.8632  1.1770
 9867TIP3   OH251015   3.328   2.911  12.906 -0.0949  0.3754 -0.1574
 9867TIP3    H151016   3.385   2.980  12.940 -0.6246  0.1284  1.2951
 9867TIP3    H251017   3.367   2.888  12.822  0.3932  2.0728 -0.4377
 9868TIP3   OH251018   0.346   3.567   2.981  0.1134 -0.0870  0.1434
 9868TIP3    H151019   0.429   3.602   3.014  0.8426 -1.2380 -0.3780
 9868TIP3    H251020   0.343   3.477   3.014 -0.0436 -0.6449 -1.2958
 9869TIP3   OH251021   4.632   6.708   2.291 -0.1878 -0.6366  0.2280
 9869TIP3    H151022   4.719   6.687   2.256 -0.0044  1.7649 -1.0244
 9869TIP3    H251023   4.643   6.794   2.331 -1.9717 -0.3057  0.0791
 9870TIP3   OH251024   5.402   1.881  12.796  0.7148 -0.4541  0.1040
 9870TIP3    H151025   5.459   1.875  12.872 -2.1123 -2.1332  2.3017
 9870TIP3    H251026   5.334   1.942  12.822  0.8740  0.7314 -2.0355
 9871TIP3   OH251027   4.302   3.328  14.077 -0.1777 -0.1687 -0.0562
 9871TIP3    H151028   4.303   3.234  14.090 -0.6412 -0.3506 -1.2420
 9871TIP3    H251029   4.381   3.346  14.025 -0.2507  0.0576 -0.0915
 9872TIP3   OH251030   4.500   0.635  15.311  0.2150  0.0284 -0.5311
 9872TIP3    H151031   4.560   0.708  15.290  1.3605 -0.2208  1.5718
 9872TIP3    H251032   4.538   0.560  15.267  1.3917 -0.0758  0.5910
 9873TIP3   OH251033   2.442   5.516  16.358 -0.3373  0.3238 -0.1641
 9873TIP3    H151034   2.354   5.543  16.384 -0.0319  2.2755 -0.9524
 9873TIP3    H251035   2.489   5.505  16.440 -0.8589  0.9971  0.2354
 9874TIP3   OH251036   4.799   3.262  10.183 -0.0651  0.1453  0.7191
 9874TIP3    H151037   4.844   3.186  10.147 -1.0638 -0.7317  1.2604
 9874TIP3    H251038   4.712   3.230  10.206 -1.7442  2.2415 -2.1401
 9875TIP3   OH251039   0.558   5.352   5.040  0.1531 -0.3417  0.2711
 9875TIP3    H151040   0.631   5.302   5.077  0.0684 -1.1416 -0.5904
 9875TIP3    H251041   0.484   5.334   5.099  0.0137 -1.6188 -0.2562
 9876TIP3   OH251042   6.092   6.657   2.455  0.1047  0.1339 -0.5448
 9876TIP3    H151043   6.075   6.602   2.379 -1.0489 -1.2768  0.6701
 9876TIP3    H251044   6.021   6.720   2.455 -0.2863 -0.3024 -0.2644
 9877TIP3   OH251045   4.600   3.701  12.000  0.1809 -0.5499  0.3333
 9877TIP3    H151046   4.540   3.638  12.040 -0.3905 -0.2363 -0.0309
 9877TIP3    H251047   4.652   3.735  12.073 -0.2006 -0.6943  0.6703
 9878TIP3   OH251048   5.227   4.430  15.858  0.0355 -0.1928 -0.2289
 9878TIP3    H151049   5.245   4.396  15.945 -3.0568  0.8421  0.9397
 9878TIP3    H251050   5.188   4.357  15.810 -1.1183  0.0368  0.3257
 9879TIP3   OH251051   2.196   1.168   6.347 -0.0082 -0.0287 -0.2021
 9879TIP3    H151052   2.156   1.255   6.339  0.8733  0.2935 -1.2043
 9879TIP3    H251053   2.171   1.122   6.267  1.6209  0.1882 -0.8724
 9880TIP3   OH251054   2.978   4.075  14.173  0.1739  0.0354  0.0178
 9880TIP3    H151055   3.006   4.035  14.255 -0.7215  0.2376  0.4405
 9880TIP3    H251056   3.047   4.137  14.151  0.8470 -0.6644  0.1494
 9881TIP3   OH251057   1.325   2.240  14.563 -0.3329  0.1211  0.6053
 9881TIP3    H151058   1.421   2.246  14.560 -0.2189 -0.5393  2.0204
 9881TIP3    H251059   1.299   2.225  14.472  0.6995  2.5925 -0.1840
 9882TIP3   OH251060   4.048   0.594  14.966 -0.5109 -0.4658 -0.2940
 9882TIP3    H151061   4.031   0.674  15.016  1.1986  0.2466 -0.7756
 9882TIP3    H251062   4.100   0.623  14.891  0.9364 -2.1144 -0.0071
 9883TIP3   OH251063   3.739   2.326  12.896 -0.1728 -0.3746  0.3399
 9883TIP3    H151064   3.787   2.368  12.825  0.1836 -0.5521  0.4733
 9883TIP3    H251065   3.807   2.282  12.948 -0.3124  0.4455  1.2641
 9884TIP3   OH251066   0.557   1.408  15.023 -0.4671 -0.4074 -0.2292
 9884TIP3    H151067   0.620   1.466  14.979 -0.4393 -0.8204 -0.7373
 9884TIP3    H251068   0.590   1.320  15.007 -0.2717 -0.5546  0.9133
 9885TIP3   OH251069   3.466   5.951   0.785 -0.0353  0.0452  0.3219
 9885TIP3    H151070   3.511   5.876   0.823 -0.2226 -1.2002 -1.7736
 9885TIP3    H251071   3.535   6.012   0.761  0.2643 -0.2753  0.3693
 9886TIP3   OH251072   1.758   4.628  11.709 -0.0041  0.1348 -0.0039
 9886TIP3    H151073   1.802   4.686  11.647 -0.7245  0.4599 -0.2239
 9886TIP3    H251074   1.681   4.678  11.737  0.6385  0.2556  1.6348
 9887TIP3   OH251075   0.694   2.364  12.826 -0.3026  0.1037 -0.6993
 9887TIP3    H151076   0.626   2.353  12.759  0.4441 -1.0835 -1.3049
 9887TIP3    H251077   0.659   2.320  12.903 -0.1837 -0.6238 -1.0504
 9888TIP3   OH251078   0.361   4.485   4.017  0.3241  0.4448 -0.5601
 9888TIP3    H151079   0.397   4.511   4.103 -0.3934 -0.0618 -0.0970
 9888TIP3    H251080   0.344   4.568   3.973 -0.4617  0.7592  0.2883
 9889TIP3   OH251081   4.874   2.631   3.103 -0.2982 -0.1868 -0.4192
 9889TIP3    H151082   4.864   2.536   3.094 -1.7331 -0.2140  0.9823
 9889TIP3    H251083   4.896   2.644   3.196  0.2463  0.8277 -0.6807
 9890TIP3   OH251084   2.619   2.174   2.351 -0.5241 -1.1906  0.5709
 9890TIP3    H151085   2.592   2.083   2.349 -0.9195 -1.0662 -0.0947
 9890TIP3    H251086   2.561   2.215   2.416 -0.9585 -1.2291  0.2119
 9891TIP3   OH251087   2.708   3.429  15.821 -0.1207  0.0610 -0.1238
 9891TIP3    H151088   2.687   3.340  15.792 -0.2278 -0.1069  0.4658
 9891TIP3    H251089   2.658   3.440  15.902  0.3793  0.4398  0.1348
 9892TIP3   OH251090   1.014   2.422   0.208  0.2405 -0.2496 -0.3661
 9892TIP3    H151091   1.093   2.392   0.252 -0.2534 -0.3065  0.5032
 9892TIP3    H251092   1.040   2.502   0.162  0.6084  0.1786  0.5760
 9893TIP3   OH251093   1.694   1.810   4.021 -0.0431  0.0172  0.6036
 9893TIP3    H151094   1.782   1.843   4.004 -0.2298  0.4247  0.3957
 9893TIP3    H251095   1.643   1.838   3.944  0.1642 -2.2366 -0.4317
 9894TIP3   OH251096   1.784   5.867   1.943  0.6982 -0.4741  0.4383
 9894TIP3    H151097   1.874   5.878   1.973  0.4053  0.5461  0.9715
 9894TIP3    H251098   1.735   5.937   1.986 -0.0880 -0.1286 -0.9707
 9895TIP3   OH251099   1.574   5.023   5.950  1.0148 -0.4279  0.7329
 9895TIP3    H151100   1.648   5.084   5.948 -0.5049  1.5305  0.5473
 9895TIP3    H251101   1.524   5.043   5.870  0.3497 -1.8081  0.7642
 9896TIP3   OH251102   3.693   5.366   0.060  0.4392 -0.0042  0.5211
 9896TIP3    H151103   3.692   5.316  -0.022  1.6344 -1.0273  1.1045
 9896TIP3    H251104   3.760   5.433   0.046  0.8460 -0.3588  0.7588
 9897TIP3   OH251105   1.193   0.024   0.974 -0.0177 -0.5238 -0.1368
 9897TIP3    H151106   1.238   0.041   1.056  0.0366  1.4724 -0.5167
 9897TIP3    H251107   1.262   0.027   0.907 -0.4736  1.6244 -0.6138
 9898TIP3   OH251108   5.412   2.977   5.356  0.5026  0.0722  0.2568
 9898TIP3    H151109   5.354   2.922   5.408 -0.3097  0.5416 -0.1426
 9898TIP3    H251110   5.486   2.995   5.415  0.1121 -0.2951  0.8715
 9899TIP3   OH251111   3.939   1.411  10.354 -0.3351  0.5050 -0.6370
 9899TIP3    H151112   3.993   1.334  10.335 -1.5363 -0.7478  0.7936
 9899TIP3    H251113   4.003   1.482  10.362  0.7897 -0.2533 -2.2178
 9900TIP3   OH251114   0.387   1.010  13.775 -0.1739  0.2012  0.3144
 9900TIP3    H151115   0.317   1.059  13.818 -0.5884  1.3791 -1.5579
 9900TIP3    H251116   0.342   0.948  13.718  0.3520 -0.6621  0.8107
 9901TIP3   OH251117   1.977   2.013   2.440  0.0244  0.1696  0.1722
 9901TIP3    H151118   1.971   2.010   2.345  0.4268 -0.7486  0.1644
 9901TIP3    H251119   2.040   2.083   2.458 -0.1338  0.4207 -0.2276
 9902TIP3   OH251120   1.192   0.866   0.118  0.3039  0.2734  0.7022
 9902TIP3    H151121   1.213   0.955   0.145  0.7510  0.2840  0.3302
 9902TIP3    H251122   1.269   0.814   0.144 -0.5980 -0.3061  2.3685
 9903TIP3   OH251123   6.602   4.078   5.162  0.0960 -0.3799  0.0455
 9903TIP3    H151124   6.683   4.125   5.180  1.6160 -3.0927  0.6969
 9903TIP3    H251125   6.566   4.058   5.248 -1.3755  0.8494 -0.2353
 9904TIP3   OH251126   6.114   3.399   1.048  0.2496  0.3056 -0.4934
 9904TIP3    H151127   6.183   3.449   1.092  0.5700  1.2158 -1.9550
 9904TIP3    H251128   6.159   3.356   0.975 -0.8882  1.9225 -2.2387
 9905TIP3   OH251129   4.723   5.892  15.109  0.3849  0.3087 -0.4042
 9905TIP3    H151130   4.660   5.845  15.163  1.3811 -0.4578  0.1309
 9905TIP3    H251131   4.691   5.883  15.020  0.0304 -0.5177 -0.1961
 9906TIP3   OH251132   5.590   3.468  14.039 -0.2530 -0.2027 -0.0067
 9906TIP3    H151133   5.602   3.562  14.046 -0.8682 -0.2393  2.4731
 9906TIP3    H251134   5.510   3.457  13.987 -0.4898  0.6637  0.1713
 9907TIP3   OH251135   6.208   0.613   2.812 -0.9162 -0.1932  0.1863
 9907TIP3    H151136   6.123   0.658   2.802 -1.3749 -1.1002 -0.0698
 9907TIP3    H251137   6.204   0.540   2.750  0.2703  0.0594 -0.2099
 9908TIP3   OH251138   6.200   0.777   0.648 -0.2966 -0.1814 -0.6727
 9908TIP3    H151139   6.191   0.688   0.682 -0.6881 -0.4119 -1.3662
 9908TIP3    H251140   6.110   0.811   0.643 -0.1600  0.2140 -0.5197
 9909TIP3   OH251141   1.548   5.642   4.073 -0.2887  0.5192  0.0319
 9909TIP3    H151142   1.639   5.658   4.049  0.5335 -1.9156  1.1837
 9909TIP3    H251143   1.547   5.647   4.168 -1.3549  0.4974  0.0318
 9910TIP3   OH251144   0.108   1.530  11.156 -0.4366 -0.4950 -0.1152
 9910TIP3    H151145   0.081   1.509  11.246 -0.9292 -1.2771 -0.4381
 9910TIP3    H251146   0.081   1.454  11.105 -0.1200 -0.0693 -0.9237
 9911TIP3   OH251147   5.127   1.999   5.250  0.0216 -0.1098  0.1769
 9911TIP3    H151148   5.166   1.971   5.168  0.2113  0.6303  0.0044
 9911TIP3    H251149   5.064   2.067   5.225  0.9328  0.9772  0.7242
 9912TIP3   OH251150   3.036   5.481   3.026 -0.8747  0.0552  0.0447
 9912TIP3    H151151   3.130   5.496   3.037 -0.6044 -1.8607  0.8901
 9912TIP3    H251152   2.998   5.568   3.020  0.9610  0.8819 -0.4006
 9913TIP3   OH251153   1.206   5.453   0.882  0.3483  0.7187 -0.0500
 9913TIP3    H151154   1.147   5.525   0.861  2.1690  2.7351  1.4084
 9913TIP3    H251155   1.199   5.442   0.976  1.6105  0.3905  0.0220
 9914TIP3   OH251156   3.992   5.182  11.341  0.9025  0.2372  0.0611
 9914TIP3    H151157   3.999   5.229  11.424  3.3403  0.0306  0.0462
 9914TIP3    H251158   3.998   5.251  11.274  0.8153  0.2268  0.0421
 9915TIP3   OH251159   0.231   2.269  12.978  0.4565  0.4257 -0.3783
 9915TIP3    H151160   0.284   2.302  12.906 -1.0621  1.7937 -0.9392
 9915TIP3    H251161   0.141   2.286  12.951 -0.1926 -0.1489  1.3124
 9916TIP3   OH251162   5.978   0.179   1.678  0.3965 -0.1827  0.1380
 9916TIP3    H151163   5.901   0.127   1.657  0.3162  0.1277 -0.3598
 9916TIP3    H251164   6.040   0.116   1.715  0.3629 -0.6671 -0.6024
 9917TIP3   OH251165   0.110   5.781   6.660  0.0111 -0.2802 -0.4838
 9917TIP3    H151166   0.037   5.728   6.693 -0.7843  0.1931 -1.4475
 9917TIP3    H251167   0.185   5.722   6.664  0.1583 -0.0468  2.8295
 9918TIP3   OH251168   3.078   2.098  16.755 -0.7703 -0.0799 -0.4310
 9918TIP3    H151169   3.032   2.092  16.671 -1.3885 -1.5663 -0.0238
 9918TIP3    H251170   3.064   2.013  16.796 -0.0966  0.4616  0.9935
 9919TIP3   OH251171   5.181   2.704  14.853  0.0114 -0.1990 -0.2881
 9919TIP3    H151172   5.273   2.701  14.878 -0.1055  1.8195  0.6279
 9919TIP3    H251173   5.175   2.777  14.791 -0.8324 -0.8714 -1.0202
 9920TIP3   OH251174   0.924   0.394  11.538 -0.2245 -0.0390  0.0135
 9920TIP3    H151175   0.891   0.396  11.628  0.2270  0.3623  0.1739
 9920TIP3    H251176   0.861   0.448  11.489 -0.7827 -0.7126 -0.0266
 9921TIP3   OH251177   0.929   6.392  10.311 -0.1986 -0.2060 -0.6307
 9921TIP3    H151178   0.847   6.344  10.300  0.1089 -0.4003 -2.5063
 9921TIP3    H251179   0.917   6.471  10.258  0.7630 -0.1489 -0.7800
 9922TIP3   OH251180   1.703   2.778   3.208 -0.0871  0.7054 -0.1897
 9922TIP3    H151181   1.662   2.700   3.169 -1.0911  0.8851  0.4787
 9922TIP3    H251182   1.747   2.744   3.286  0.4481  0.6273 -0.5231
 9923TIP3   OH251183   5.317   5.878  13.159  0.5341  0.5281  0.4489
 9923TIP3    H151184   5.386   5.829  13.114  0.0405  1.0139 -0.9009
 9923TIP3    H251185   5.361   5.921  13.232  1.4010 -0.1526  0.3389
 9924TIP3   OH251186   5.992   2.880   2.889 -0.1335  0.4575  0.1890
 9924TIP3    H151187   5.923   2.886   2.822 -1.6733  2.9568  1.8277
 9924TIP3    H251188   6.062   2.936   2.856 -1.1289  2.1587  0.8345
 9925TIP3   OH251189   3.799   2.379   5.309  0.0825  0.0100  0.4554
 9925TIP3    H151190   3.721   2.341   5.268 -2.0219  2.4308  1.9604
 9925TIP3    H251191   3.864   2.381   5.239 -2.0687  0.3680 -1.6593
 9926TIP3   OH251192   2.677   1.503  11.382  0.1070  0.3152  0.1799
 9926TIP3    H151193   2.677   1.458  11.466  1.2609  0.7380  0.4254
 9926TIP3    H251194   2.682   1.596  11.405  0.7657  0.4182 -0.3585
 9927TIP3   OH251195   0.371   1.697  11.487 -0.2034 -0.0983  0.1903
 9927TIP3    H151196   0.349   1.731  11.400 -0.9115  0.6632  0.6576
 9927TIP3    H251197   0.331   1.758  11.548  0.5118 -0.4786  1.0673
 9928TIP3   OH251198   4.875   3.249   5.500 -1.0503 -0.3328 -0.3432
 9928TIP3    H151199   4.851   3.336   5.533 -0.7089 -0.8392  1.3693
 9928TIP3    H251200   4.935   3.214   5.566  1.7907 -0.4612 -2.7803
 9929TIP3   OH251201   0.954   6.641  10.182  0.3656  0.1215  0.1753
 9929TIP3    H151202   1.036   6.654  10.230 -0.5210  0.9673  1.5351
 9929TIP3    H251203   0.912   6.727  10.184 -0.7216 -0.3946 -0.1717
 9930TIP3   OH251204   1.613   2.639  17.072 -0.4414  0.1675  0.3559
 9930TIP3    H151205   1.678   2.705  17.049 -0.7205  0.3867  0.1859
 9930TIP3    H251206   1.550   2.686  17.127 -0.3594 -0.0878  0.6670
 9931TIP3   OH251207   6.591   2.814  12.148 -0.0392 -0.3252 -0.1672
 9931TIP3    H151208   6.677   2.784  12.119  0.5943  1.0934  0.1382
 9931TIP3    H251209   6.610   2.891  12.203 -1.4602 -0.3720  0.4303
 9932TIP3   OH251210   3.993   6.197  12.963  1.3230 -0.2424 -0.0412
 9932TIP3    H151211   4.088   6.209  12.959  1.2068  0.4936 -0.9751
 9932TIP3    H251212   3.968   6.232  13.049  1.6634  1.5089 -0.6084
 9933TIP3   OH251213   4.795   1.214   4.848  0.2705  0.4165  1.0136
 9933TIP3    H151214   4.723   1.238   4.906 -0.2286  1.0184  0.1773
 9933TIP3    H251215   4.830   1.133   4.885 -1.2489 -0.2519  1.1055
 9934TIP3   OH251216   1.082   3.400  13.533  0.2251 -0.6244  0.9956
 9934TIP3    H151217   1.116   3.355  13.457  1.5817  1.6237  0.1721
 9934TIP3    H251218   1.141   3.376  13.604  2.4956  1.6221  0.0246
 9935TIP3   OH251219   5.229   4.366  16.705  0.6599  0.3578 -0.2278
 9935TIP3    H151220   5.298   4.313  16.745  0.8152  1.5830  1.2310
 9935TIP3    H251221   5.241   4.355  16.611  2.2360 -0.1949  0.0104
 9936TIP3   OH251222   5.958   5.624  15.638  0.0455 -0.0161  0.1264
 9936TIP3    H151223   5.867   5.642  15.617  0.5640  0.9710 -1.4131
 9936TIP3    H251224   5.988   5.703  15.684  0.2381 -0.1845  0.2958
 9937TIP3   OH251225   0.653   4.309   0.685  0.3414 -0.4285 -0.3238
 9937TIP3    H151226   0.730   4.363   0.700 -0.2062  0.2802 -0.0226
 9937TIP3    H251227   0.608   4.351   0.611 -1.2157  0.8384  1.2469
 9938TIP3   OH251228   5.708   6.060   0.359 -0.5796  0.0989 -0.4400
 9938TIP3    H151229   5.616   6.068   0.386 -0.2857  2.3272  0.0388
 9938TIP3    H251230   5.735   5.974   0.393 -2.5613 -0.7791 -0.9178
 9939TIP3   OH251231   2.178   2.242   5.318  0.1458  0.4019  0.1998
 9939TIP3    H151232   2.120   2.190   5.262  2.1078 -0.6405 -1.0025
 9939TIP3    H251233   2.132   2.247   5.402 -1.1628 -1.3338 -0.3395
 9940TIP3   OH251234   2.318   3.577   2.659  0.4075  0.3587 -0.2798
 9940TIP3    H151235   2.390   3.533   2.613 -0.3256 -0.2495 -0.8755
 9940TIP3    H251236   2.328   3.669   2.636 -1.0033 -0.1160 -3.2507
 9941TIP3   OH251237   3.641   5.025  12.613  0.7073 -0.8502  0.0915
 9941TIP3    H151238   3.639   5.101  12.554 -0.3321 -1.5897 -0.8588
 9941TIP3    H251239   3.606   5.058  12.695 -0.6439 -0.5171 -0.5928
 9942TIP3   OH251240   4.261   0.325  11.938 -0.2207 -0.3034 -0.3452
 9942TIP3    H151241   4.215   0.247  11.906  1.3369 -1.1107 -0.7390
 9942TIP3    H251242   4.265   0.383  11.862  0.1231 -0.5839 -0.5433
 9943TIP3   OH251243   6.497   4.847   0.564 -0.6301  0.0491 -0.0265
 9943TIP3    H151244   6.467   4.859   0.654  1.4112  3.7024  0.3709
 9943TIP3    H251245   6.548   4.766   0.567 -3.9200 -2.1927  0.9679
 9944TIP3   OH251246   6.595   0.971   4.497  0.2932 -0.3907  0.2450
 9944TIP3    H151247   6.536   1.045   4.485  0.1988 -0.7227 -1.6858
 9944TIP3    H251248   6.650   0.972   4.419  2.7895 -0.1887  1.8951
 9945TIP3   OH251249   5.846   2.093  11.460  0.2717 -0.2878  0.3192
 9945TIP3    H151250   5.898   2.170  11.438  0.5760 -0.1593  1.4073
 9945TIP3    H251251   5.774   2.094  11.396  0.2145  0.9622  0.3638
 9946TIP3   OH251252   0.016   6.416   4.690 -0.1599 -0.2457 -0.0390
 9946TIP3    H151253   0.086   6.460   4.641 -0.9989  1.4541  0.1944
 9946TIP3    H251254   0.062   6.371   4.761  0.9367 -1.5685 -1.5194
 9947TIP3   OH251255   6.488   5.219  14.130  0.1516 -0.1478  0.6150
 9947TIP3    H151256   6.402   5.192  14.162  0.3680 -0.5780  0.8366
 9947TIP3    H251257   6.470   5.297  14.078 -0.5167 -0.8791 -0.2841
 9948TIP3   OH251258   4.894   1.780   5.887  0.3525  0.2913 -0.3451
 9948TIP3    H151259   4.945   1.767   5.968 -1.9720  1.0902  1.3523
 9948TIP3    H251260   4.843   1.700   5.878 -0.8814  1.0105  0.1339
 9949TIP3   OH251261   3.980   5.003  12.377 -0.3074  0.0244  0.5727
 9949TIP3    H151262   3.993   4.925  12.324 -2.0997 -0.8693  1.3663
 9949TIP3    H251263   3.910   5.052  12.333 -0.2760  0.3933  0.9182
 9950TIP3   OH251264   4.170   1.723   3.426 -0.1245  0.1972  0.5540
 9950TIP3    H151265   4.196   1.796   3.481 -2.4606  0.0403  1.9953
 9950TIP3    H251266   4.084   1.748   3.393 -0.0821 -1.0497 -0.5794
 9951TIP3   OH251267   2.487   2.584  12.804  0.2079 -0.1172 -0.3369
 9951TIP3    H151268   2.493   2.562  12.897  0.5682  1.0489 -0.0666
 9951TIP3    H251269   2.544   2.521  12.760 -0.7834 -1.3390  0.1085
 9952TIP3   OH251270   2.185   6.360   2.999  0.6437  0.2083 -0.0026
 9952TIP3    H151271   2.223   6.357   3.087 -0.0345 -3.1906  0.3160
 9952TIP3    H251272   2.124   6.286   2.997 -0.0590  0.7394 -3.0676
 9953TIP3   OH251273   3.629   2.544   6.345 -0.4503 -0.1966 -0.1097
 9953TIP3    H151274   3.695   2.563   6.278 -1.3835 -0.9088 -1.2642
 9953TIP3    H251275   3.677   2.497   6.413  0.8798  1.9811  0.5633
 9954TIP3   OH251276   1.850   1.784   4.887 -0.3747 -0.5592 -0.0975
 9954TIP3    H151277   1.788   1.795   4.958 -1.2574 -1.3915 -0.7228
 9954TIP3    H251278   1.841   1.693   4.861  0.2668 -0.3838 -0.9736
 9955TIP3   OH251279   3.293   0.595  13.291 -0.6243 -0.2113  0.2294
 9955TIP3    H151280   3.248   0.656  13.232  0.0694 -2.1868 -2.5331
 9955TIP3    H251281   3.386   0.620  13.285 -0.4880 -0.7395  0.0506
 9956TIP3   OH251282   5.745   5.273   3.902 -0.3784 -0.6645  0.2561
 9956TIP3    H151283   5.802   5.197   3.915  0.5680 -0.1270 -0.6056
 9956TIP3    H251284   5.673   5.260   3.963  0.1856 -1.8489  0.6910
 9957TIP3   OH251285   4.727   5.371  12.417 -0.2990  0.0376 -0.1300
 9957TIP3    H151286   4.684   5.366  12.503 -0.4152 -2.0113 -0.2570
 9957TIP3    H251287   4.657   5.398  12.357 -0.2087  1.5155  0.3985
 9958TIP3   OH251288   6.192   6.759  15.097  0.6387 -0.0451  0.3232
 9958TIP3    H151289   6.116   6.713  15.131  0.5106  1.3527  2.1007
 9958TIP3    H251290   6.248   6.773  15.173  0.2409  3.4442  0.1450
 9959TIP3   OH251291   4.075   6.528   3.015 -0.2334  0.1662  0.3873
 9959TIP3    H151292   4.112   6.584   3.084  1.0308  1.3715 -1.1826
 9959TIP3    H251293   4.064   6.587   2.940 -2.2691 -0.9399 -0.2449
 9960TIP3   OH251294   5.674   6.087  16.598 -0.7288 -0.2306  0.4854
 9960TIP3    H151295   5.704   6.001  16.627 -2.4357 -0.8120  0.6516
 9960TIP3    H251296   5.593   6.102  16.646 -1.9181  0.2377 -1.5338
 9961TIP3   OH251297   4.611   0.908  14.644  0.3289 -0.2677  0.5047
 9961TIP3    H151298   4.636   0.820  14.616 -2.2592 -1.4138  1.5017
 9961TIP3    H251299   4.573   0.948  14.566 -2.9757 -1.9172  1.0975
 9962TIP3   OH251300   4.450   5.536  10.913  0.5020  0.3019 -0.1592
 9962TIP3    H151301   4.376   5.567  10.861  0.2572 -0.0506 -0.0303
 9962TIP3    H251302   4.525   5.586  10.882  0.0575  1.2884  0.3031
 9963TIP3   OH251303   1.027   6.557   2.593 -0.3852  0.0035 -0.0203
 9963TIP3    H151304   0.950   6.565   2.649 -0.3567 -0.1604  0.0417
 9963TIP3    H251305   1.041   6.646   2.560 -0.1270  0.1920  0.5906
 9964TIP3   OH251306   4.622   5.882  16.183  0.5186  0.0884  0.2644
 9964TIP3    H151307   4.683   5.911  16.251  0.9665  1.9472 -0.8646
 9964TIP3    H251308   4.537   5.878  16.226  1.1706 -1.1098  1.4993
 9965TIP3   OH251309   2.300   5.378  11.842 -0.0953  0.3534 -0.1003
 9965TIP3    H151310   2.350   5.459  11.850 -1.6487  1.2806  0.6015
 9965TIP3    H251311   2.340   5.332  11.768  3.1020  0.0661  1.6217
 9966TIP3   OH251312   0.256   2.591  15.380  0.4385 -0.0122 -0.5969
 9966TIP3    H151313   0.304   2.577  15.461  1.4398 -0.1601 -1.1956
 9966TIP3    H251314   0.234   2.503  15.349 -1.1300  0.0676  0.1682
 9967TIP3   OH251315   3.999   1.341   1.621 -0.0729 -0.0247 -0.2298
 9967TIP3    H151316   3.951   1.368   1.700 -0.4616 -0.0963 -0.4386
 9967TIP3    H251317   3.931   1.304   1.564 -0.3013  2.6241 -1.8182
 9968TIP3   OH251318   1.081   5.830  10.921 -0.0404 -0.6014 -0.1875
 9968TIP3    H151319   1.068   5.853  11.013 -0.2579 -2.8238  0.4174
 9968TIP3    H251320   1.162   5.874  10.895  0.3222 -0.3810  1.2469
 9969TIP3   OH251321   5.782   5.015   5.420  0.4853  0.5488  0.5095
 9969TIP3    H151322   5.743   4.967   5.493  0.4503 -1.2149 -0.6027
 9969TIP3    H251323   5.867   5.044   5.452  0.5573 -0.3934  1.1905
 9970TIP3   OH251324   1.413   6.318  12.487 -0.7540  0.1014 -0.0804
 9970TIP3    H151325   1.481   6.291  12.548 -0.3647  2.2507  0.5220
 9970TIP3    H251326   1.348   6.361  12.543  0.4524  3.7554 -1.2416
 9971TIP3   OH251327   2.503   3.709   6.145 -0.0578  0.2354  0.0226
 9971TIP3    H151328   2.537   3.746   6.226  1.4431  2.9750 -1.6934
 9971TIP3    H251329   2.551   3.626   6.135  0.5827  0.4171  1.3466
 9972TIP3   OH251330   2.951   1.323  12.043 -0.8023  0.7481  0.1098
 9972TIP3    H151331   2.862   1.329  12.009 -1.0823  1.3036  0.8946
 9972TIP3    H251332   2.986   1.412  12.034 -1.1262  1.0864  1.8410
 9973TIP3   OH251333   3.006   3.924   3.594  0.2891  0.3627  0.3103
 9973TIP3    H151334   3.007   4.011   3.554  0.7352  0.1628 -0.1278
 9973TIP3    H251335   3.094   3.890   3.579 -0.0158 -0.3381  0.0987
 9974TIP3   OH251336   3.032   6.274  12.168  0.1862 -0.3524 -0.3631
 9974TIP3    H151337   2.941   6.293  12.187  0.2924 -0.8871  0.8097
 9974TIP3    H251338   3.071   6.359  12.148 -0.4601 -0.0631 -0.4127
 9975TIP3   OH251339   3.750   4.143  12.459  0.6778  0.0427 -0.2598
 9975TIP3    H151340   3.732   4.064  12.407  1.1159 -0.2707  0.0529
 9975TIP3    H251341   3.697   4.211  12.418 -0.0482 -0.5118 -0.2731
 9976TIP3   OH251342   2.042   3.891   5.547  0.0230  0.2876  0.1733
 9976TIP3    H151343   1.986   3.911   5.622  1.1997 -0.5380  1.3196
 9976TIP3    H251344   1.984   3.847   5.485 -0.9394  0.8570  0.6560
 9977TIP3   OH251345   2.945   2.007  13.676 -0.0905 -0.0797 -0.2361
 9977TIP3    H151346   2.899   1.953  13.612  0.5134 -0.8984 -0.0032
 9977TIP3    H251347   2.885   2.013  13.751 -0.7069  0.6973 -0.7782
 9978TIP3   OH251348   3.736   4.349   5.924 -0.1602  0.3692  0.1029
 9978TIP3    H151349   3.827   4.336   5.900 -0.2092 -1.5804  0.8135
 9978TIP3    H251350   3.739   4.414   5.995  0.9022 -1.0185  1.3999
 9979TIP3   OH251351   0.292   1.234  11.515 -0.0793 -0.3124  0.2138
 9979TIP3    H151352   0.303   1.203  11.424  2.1658  0.4979  0.1413
 9979TIP3    H251353   0.355   1.182  11.565  0.3887  0.8850  0.8880
 9980TIP3   OH251354   3.169   6.238  15.890 -0.2847  0.3352 -0.0430
 9980TIP3    H151355   3.223   6.317  15.887  0.2717 -0.0551 -1.3113
 9980TIP3    H251356   3.198   6.191  15.968  0.1393  0.8555  0.1156
 9981TIP3   OH251357   6.750   6.379   2.495 -0.3251  0.1380  0.1416
 9981TIP3    H151358   6.809   6.305   2.478 -1.7820 -0.8008 -1.0902
 9981TIP3    H251359   6.704   6.354   2.575 -0.2568  0.0728  0.1612
 9982TIP3   OH251360   5.212   3.727   4.730 -0.2138 -0.0905 -0.4210
 9982TIP3    H151361   5.291   3.774   4.755 -0.7385  0.3980  0.3667
 9982TIP3    H251362   5.242   3.639   4.708  0.4615 -0.1168  0.5573
 9983TIP3   OH251363   0.328   5.983   4.460 -0.0007  0.1204 -0.2159
 9983TIP3    H151364   0.365   6.059   4.413 -1.0301  0.3706 -0.6515
 9983TIP3    H251365   0.342   5.910   4.400 -0.1234  0.1957 -0.3368
 9984TIP3   OH251366   4.942   0.695  13.672  0.0011  0.5236  0.4104
 9984TIP3    H151367   4.871   0.755  13.649 -0.8126 -0.4948  0.2078
 9984TIP3    H251368   4.912   0.609  13.640  1.6752  0.2116 -0.4266
 9985TIP3   OH251369   6.304   1.323  11.655 -0.3073 -0.2401  0.2658
 9985TIP3    H151370   6.283   1.350  11.565  0.1402 -0.4289  0.1004
 9985TIP3    H251371   6.296   1.228  11.653  0.2956 -0.2928  0.2661
 9986TIP3   OH251372   6.538   5.622   1.308  0.2769 -0.2628 -0.1001
 9986TIP3    H151373   6.488   5.551   1.349 -0.1589  0.6482  0.9949
 9986TIP3    H251374   6.619   5.580   1.280  0.4217 -1.0315  1.3395
 9987TIP3   OH251375   0.594   6.719  13.635 -0.1653  0.2599  0.0966
 9987TIP3    H151376   0.619   6.775  13.561  1.5170 -0.7461 -0.1641
 9987TIP3    H251377   0.638   6.758  13.710  0.0118 -0.0116  0.1353
 9988TIP3   OH251378   2.148   6.133  13.550  0.1386  0.8882  0.1151
 9988TIP3    H151379   2.078   6.150  13.488  0.3647  0.1217 -0.3601
 9988TIP3    H251380   2.213   6.201  13.533  0.7729 -0.0478 -1.3688
 9989TIP3   OH251381   5.889   0.640   1.192 -0.0018  0.1444 -0.3655
 9989TIP3    H151382   5.867   0.693   1.114 -0.0633  1.0426  0.2418
 9989TIP3    H251383   5.817   0.578   1.198 -2.3009  2.7274  1.2976
 9990TIP3   OH251384   2.551   1.001   4.396 -1.1672 -0.6588 -0.0363
 9990TIP3    H151385   2.643   0.992   4.423  0.2481  0.3880 -3.8340
 9990TIP3    H251386   2.525   0.912   4.371 -1.1960 -0.9439  0.9651
 9991TIP3   OH251387   6.085   4.839   3.121  0.1669 -0.2507  0.7091
 9991TIP3    H151388   6.113   4.781   3.050  0.0701  0.5785 -0.0191
 9991TIP3    H251389   6.163   4.889   3.143  0.0192 -0.0235  0.7154
 9992TIP3   OH251390   3.835   3.774  11.812 -0.1893  0.6725 -0.0716
 9992TIP3    H151391   3.824   3.866  11.790  0.2075  0.8166  0.3103
 9992TIP3    H251392   3.923   3.752  11.780  0.1115  0.6970  0.7075
 9993TIP3   OH251393   6.479   3.923   2.156  0.0953 -0.1123  0.5523
 9993TIP3    H151394   6.461   3.929   2.062  1.2351  1.3565  0.3753
 9993TIP3    H251395   6.413   3.863   2.190  0.3028 -1.5205 -1.3455
 9994TIP3   OH251396   2.251   3.167   0.121 -0.0464  0.4189 -0.1192
 9994TIP3    H151397   2.235   3.147   0.213 -0.6500  0.3240 -0.2407
 9994TIP3    H251398   2.213   3.094   0.073 -2.1716  1.7235 -0.5640
 9995TIP3   OH251399   0.918   2.415   6.007  0.1004 -0.1299  0.3129
 9995TIP3    H151400   0.911   2.332   5.959  0.8090 -0.0581  0.0674
 9995TIP3    H251401   0.931   2.390   6.098  0.3786 -0.2925  0.2295
 9996TIP3   OH251402   2.427   4.694   1.205 -0.4159 -0.2442 -0.1406
 9996TIP3    H151403   2.392   4.735   1.284  0.8153 -0.1861  0.3986
 9996TIP3    H251404   2.408   4.756   1.135  1.4328  1.3272  0.6614
 9997TIP3   OH251405   2.225   0.021  10.343 -0.1525 -0.0721 -0.7454
 9997TIP3    H151406   2.161  -0.015  10.281  1.0827 -1.5026 -1.2663
 9997TIP3    H251407   2.309   0.011  10.298  0.4807  1.6186 -0.0218
 9998TIP3   OH251408   2.383   3.464  14.829  0.4124  0.2446  0.3538
 9998TIP3    H151409   2.366   3.370  14.830  0.6180  0.2150  0.9878
 9998TIP3    H251410   2.455   3.475  14.766 -0.3823  0.1165 -0.6076
 9999TIP3   OH251411   0.433   5.668   3.824  0.2438 -0.2639  0.3711
 9999TIP3    H151412   0.486   5.588   3.826  3.4134  1.6101 -1.3592
 9999TIP3    H251413   0.412   5.680   3.732 -3.0333 -0.6545  0.9308
10000TIP3   OH251414   2.965   6.540  12.191  0.2070 -0.0946  0.4613
10000TIP3    H151415   2.871   6.531  12.206  0.2667 -1.5165  0.1039
10000TIP3    H251416   2.976   6.630  12.158 -1.1157 -0.1643 -0.2134
10001TIP3   OH251417   6.581   5.088   4.382  0.0524  0.5257  0.0927
10001TIP3    H151418   6.644   5.090   4.309 -0.9284  0.5349 -0.7800
10001TIP3    H251419   6.514   5.151   4.357  0.9677  2.4987  2.2493
10002TIP3   OH251420   1.744   1.874  15.842 -0.4053 -0.3643  0.1902
10002TIP3    H151421   1.723   1.831  15.925 -0.2296  0.3888  0.6336
10002TIP3    H251422   1.759   1.966  15.866 -0.5684 -0.0970 -0.7051
10003TIP3   OH251423   4.342   6.258   3.139  0.0703 -0.2802 -0.0342
10003TIP3    H151424   4.265   6.218   3.179  0.0908  1.5953  2.0842
10003TIP3    H251425   4.389   6.297   3.212  1.0512  1.8653 -1.6989
10004TIP3   OH251426   1.265   0.459   0.863 -0.6853  0.2225 -0.2347
10004TIP3    H151427   1.188   0.495   0.821 -1.3944  0.2300  1.0326
10004TIP3    H251428   1.331   0.528   0.856 -0.8830  0.3419 -1.0207
10005TIP3   OH251429   5.743   1.758  13.767  0.7533  0.3522 -0.1452
10005TIP3    H151430   5.756   1.807  13.848  0.9420  0.9023 -0.5089
10005TIP3    H251431   5.779   1.814  13.698  1.4546 -0.5157 -0.5050
10006TIP3   OH251432   2.469   3.709  12.482 -0.5928  0.0005  0.0754
10006TIP3    H151433   2.560   3.678  12.477 -0.9230 -0.8513 -1.0250
10006TIP3    H251434   2.436   3.673  12.565  0.2381  0.8274  0.7860
10007TIP3   OH251435   2.414   2.831   0.475 -0.4572  0.1899  0.1398
10007TIP3    H151436   2.423   2.787   0.560  2.8355 -2.2273 -1.2379
10007TIP3    H251437   2.462   2.913   0.486  1.6171 -0.9482  0.2456
10008TIP3   OH251438   0.551   2.002  10.806 -0.0157 -0.0264  0.3603
10008TIP3    H151439   0.481   1.984  10.868  0.5461  1.7242  1.5615
10008TIP3    H251440   0.509   2.050  10.735 -0.8696 -2.9100 -1.2642
10009TIP3   OH251441   3.219   5.616   2.439 -0.6228 -0.1081  0.3838
10009TIP3    H151442   3.292   5.605   2.378  1.2081 -0.2215  2.4741
10009TIP3    H251443   3.231   5.703   2.477  1.3681 -1.7454  4.1434
10010TIP3   OH251444   1.457   5.997  14.524 -0.1874  0.4104  0.0979
10010TIP3    H151445   1.436   5.908  14.552 -0.4207  0.4242 -0.0356
10010TIP3    H251446   1.399   6.052  14.576 -0.8030  0.4237 -0.5908
10011TIP3   OH251447   6.087   0.085  13.427  0.1413 -0.0575 -0.0857
10011TIP3    H151448   6.009   0.111  13.475  0.1469  1.7474 -0.9847
10011TIP3    H251449   6.132   0.167  13.407  0.8456 -0.8423 -1.9634
10012TIP3   OH251450   2.039   4.715  15.136 -0.8695 -0.0169  0.3524
10012TIP3    H151451   2.106   4.660  15.095 -0.8684  1.0974 -1.2170
10012TIP3    H251452   1.957   4.688  15.094 -1.1639 -0.1848  1.0202
10013TIP3   OH251453   0.536   5.799   2.905  0.3110  0.2196  0.0458
10013TIP3    H151454   0.517   5.759   2.989 -1.3247 -0.7553 -0.7505
10013TIP3    H251455   0.453   5.799   2.858  1.2461  0.4453 -1.7041
10014TIP3   OH251456   0.903   4.338  14.945 -0.4526 -0.0646 -0.5480
10014TIP3    H151457   0.920   4.326  15.038  1.9623 -1.2608 -1.0683
10014TIP3    H251458   0.808   4.340  14.938 -0.6976 -0.5867  1.8630
10015TIP3   OH251459   5.762   2.147   2.390 -0.1393  0.6541 -1.0141
10015TIP3    H151460   5.833   2.184   2.339  0.9887  0.7799  0.5716
10015TIP3    H251461   5.805   2.096   2.459 -1.5870  0.3765 -0.2625
10016TIP3   OH251462   5.602   4.795   4.053  0.1564  0.0540 -0.2067
10016TIP3    H151463   5.658   4.723   4.080  1.8170  1.2759 -0.2302
10016TIP3    H251464   5.617   4.803   3.959 -1.7251 -0.9465 -0.6384
10017TIP3   OH251465   0.311   6.698  14.160 -0.2064 -0.4602 -0.5071
10017TIP3    H151466   0.351   6.647  14.231 -0.8312 -0.1392  0.0878
10017TIP3    H251467   0.219   6.671  14.160 -0.1545 -0.6431 -1.3703
10018TIP3   OH251468   5.663   3.463   0.637  0.5423 -0.2767 -0.0686
10018TIP3    H151469   5.757   3.484   0.630  0.2283  1.5431  0.6361
10018TIP3    H251470   5.630   3.522   0.705 -1.3558 -0.0232 -1.1361
10019TIP3   OH251471   2.829   5.783   2.176  0.2535 -0.2678 -0.6033
10019TIP3    H151472   2.803   5.692   2.168 -1.2225  0.0157  0.4686
10019TIP3    H251473   2.870   5.789   2.263 -0.1677  0.1896 -0.4280
10020TIP3   OH251474   5.994   3.072  15.522 -0.3105 -0.0241  0.3159
10020TIP3    H151475   6.033   3.149  15.564 -1.1628  1.2472 -1.1331
10020TIP3    H251476   6.046   3.059  15.443  0.4333 -1.5771  1.0090
10021TIP3   OH251477   6.280   4.949   0.445  0.3678 -0.0382 -0.1292
10021TIP3    H151478   6.199   4.917   0.485 -0.4745 -2.3210 -3.3309
10021TIP3    H251479   6.349   4.898   0.486 -0.2521 -0.9218 -0.1688
10022TIP3   OH251480   3.443   1.900  13.128  0.2009 -0.4515 -0.3411
10022TIP3    H151481   3.446   1.811  13.162 -0.9659 -0.2771  0.2994
10022TIP3    H251482   3.365   1.938  13.168  1.3423  1.2639  0.3999
10023TIP3   OH251483   3.471   6.421  11.057  0.1407 -0.2509 -0.2349
10023TIP3    H151484   3.518   6.341  11.034  1.9217  0.6513  0.1061
10023TIP3    H251485   3.390   6.391  11.098  1.3107 -1.9075  0.9788
10024TIP3   OH251486   3.999   3.901   2.987 -0.2774  0.1780  0.3172
10024TIP3    H151487   4.055   3.837   2.942  0.8815  1.6982 -0.5364
10024TIP3    H251488   4.029   3.899   3.078 -0.1748 -0.4178  0.2733
10025TIP3   OH251489   6.629   0.158  13.134 -0.2951  0.0574 -0.9824
10025TIP3    H151490   6.538   0.185  13.151 -0.4637  0.5685 -2.4862
10025TIP3    H251491   6.622   0.096  13.062  0.4886 -0.6193 -0.4838
10026TIP3   OH251492   0.448   2.660   3.771  0.7398 -0.2034 -0.0088
10026TIP3    H151493   0.374   2.640   3.713 -1.8559 -0.1294  2.9927
10026TIP3    H251494   0.463   2.578   3.819  1.4288  0.2957  0.6484
10027TIP3   OH251495   1.483   0.432  13.552 -0.0479  0.7271 -0.2016
10027TIP3    H151496   1.502   0.339  13.544 -1.6608  0.2498  1.0030
10027TIP3    H251497   1.569   0.475  13.550  0.7961 -0.8703  0.2971
10028TIP3   OH251498   6.235   6.617   5.964  0.1701  0.0385  0.2170
10028TIP3    H151499   6.302   6.686   5.964  1.2551 -0.9654 -0.9030
10028TIP3    H251500   6.275   6.544   6.011  0.1395 -0.7899 -0.9810
10029TIP3   OH251501   4.799   6.755  10.443 -0.4062 -0.3125 -0.4186
10029TIP3    H151502   4.827   6.780  10.531 -0.7094  1.3620 -0.7659
10029TIP3    H251503   4.757   6.670  10.454  0.8974 -0.8424  0.7946
10030TIP3   OH251504   3.442   0.414  10.576  0.2549 -0.6639  0.3559
10030TIP3    H151505   3.435   0.322  10.602 -4.4597  0.1630  3.3010
10030TIP3    H251506   3.401   0.416  10.489  0.7631 -1.4024  0.0908
10031TIP3   OH251507   5.789   3.843  11.525 -0.2417  0.2301  0.1223
10031TIP3    H151508   5.852   3.914  11.538 -0.8406  0.3622  3.0439
10031TIP3    H251509   5.704   3.886  11.522 -0.8023 -0.2606  3.7086
10032TIP3   OH251510   6.615   2.872  13.168 -0.1745  0.0705  0.0804
10032TIP3    H151511   6.563   2.807  13.121 -2.8414  1.9759  0.2065
10032TIP3    H251512   6.639   2.829  13.250 -1.0225 -1.0624 -0.2405
10033TIP3   OH251513   2.423   4.845  12.761 -0.0946  0.2360 -0.2978
10033TIP3    H151514   2.388   4.889  12.838  0.7128  2.7988 -1.3011
10033TIP3    H251515   2.500   4.797  12.793 -0.2720  0.5493  0.6222
10034TIP3   OH251516   2.418   0.264   5.089 -0.2845  0.1786 -0.4029
10034TIP3    H151517   2.354   0.311   5.035 -1.6391 -2.9210 -1.7346
10034TIP3    H251518   2.369   0.239   5.167  0.6689  1.5763  0.6953
10035TIP3   OH251519   1.848   1.860  15.565  0.0439  0.5494  0.0291
10035TIP3    H151520   1.830   1.863  15.659 -0.0781 -0.6562  0.0676
10035TIP3    H251521   1.877   1.948  15.542 -1.9752  1.4674  0.7757
10036TIP3   OH251522   3.770   1.398   1.246  0.1888 -0.2330  0.1670
10036TIP3    H151523   3.747   1.373   1.157  0.3347  0.1744  0.0111
10036TIP3    H251524   3.840   1.462   1.235  0.2260 -0.2022  0.5755
10037TIP3   OH251525   5.122   5.177   3.834  0.1601  0.3936 -0.4858
10037TIP3    H151526   5.107   5.083   3.821 -1.7372  0.6979 -0.7411
10037TIP3    H251527   5.216   5.187   3.824  0.2687 -1.2951 -1.7314
10038TIP3   OH251528   3.721   3.944   4.081 -0.0641 -0.4650 -0.3702
10038TIP3    H151529   3.717   3.979   4.170 -0.0987 -0.1232 -0.5051
10038TIP3    H251530   3.654   3.876   4.078 -0.2320 -0.3036 -0.2109
10039TIP3   OH251531   1.540   6.704   1.852 -0.4983 -0.6143 -0.8825
10039TIP3    H151532   1.465   6.742   1.897 -0.1293  0.7671 -1.3837
10039TIP3    H251533   1.597   6.779   1.833  1.9319 -1.7603  1.1191
10040TIP3   OH251534   5.673   3.188  15.496  0.2720  0.3274  0.3929
10040TIP3    H151535   5.645   3.201  15.405  1.9728  1.6465 -0.0079
10040TIP3    H251536   5.763   3.157  15.489 -0.2885 -1.7836  1.6422
10041TIP3   OH251537   1.150   5.261  10.589  0.3606  0.1363  0.1712
10041TIP3    H151538   1.150   5.353  10.617 -0.2724 -0.2510  1.5330
10041TIP3    H251539   1.218   5.220  10.643  0.5209 -0.2364 -0.3119
10042TIP3   OH251540   3.932   6.267  13.226 -0.0141  0.2879 -0.4873
10042TIP3    H151541   4.010   6.301  13.270 -0.2011 -0.4625  0.4532
10042TIP3    H251542   3.861   6.282  13.289 -0.5036  0.2722 -1.0221
10043TIP3   OH251543   5.284   1.930   3.354 -0.4335 -0.1342  0.1895
10043TIP3    H151544   5.374   1.933   3.386 -0.9049  1.7173  1.5055
10043TIP3    H251545   5.237   1.878   3.419 -0.5992  0.1473  0.2951
10044TIP3   OH251546   0.167   2.214  14.510 -0.1327 -0.7706 -0.0141
10044TIP3    H151547   0.230   2.174  14.449 -0.8631 -1.6639 -0.2140
10044TIP3    H251548   0.156   2.303  14.478  0.4243 -0.8557 -0.4592
10045TIP3   OH251549   5.143   1.403  13.487 -0.4789  0.2013 -0.0296
10045TIP3    H151550   5.162   1.363  13.572 -0.9340  0.7071  0.3186
10045TIP3    H251551   5.170   1.337  13.423  0.1729 -0.0550  0.4976
10046TIP3   OH251552   5.122   5.390  10.304 -0.1685  0.2311  0.2550
10046TIP3    H151553   5.117   5.475  10.347 -0.2713  0.6810 -0.6237
10046TIP3    H251554   5.032   5.369  10.281  0.0782  1.0199 -1.6448
10047TIP3   OH251555   6.330   4.042   4.421 -0.0291 -0.5588  0.1525
10047TIP3    H151556   6.394   4.064   4.354 -0.4677  1.2747  0.2890
10047TIP3    H251557   6.382   4.027   4.500  0.4071 -1.7531 -0.3306
10048TIP3   OH251558   0.948   1.382  11.176  0.8349 -0.5624  0.1919
10048TIP3    H151559   1.000   1.461  11.165  1.8395 -1.3857 -1.2997
10048TIP3    H251560   0.939   1.372  11.271 -0.5213  2.0686  0.4413
10049TIP3   OH251561   0.225   3.102   3.403 -0.7967  0.0468 -0.2301
10049TIP3    H151562   0.248   3.105   3.496 -1.3963  1.1516 -0.1029
10049TIP3    H251563   0.300   3.060   3.362  0.2984  1.1757  0.5229
10050TIP3   OH251564   1.896   3.863   4.133 -0.3810  0.0061 -0.0717
10050TIP3    H151565   1.903   3.799   4.062 -1.2040  0.3437 -0.4595
10050TIP3    H251566   1.863   3.942   4.092  0.2468  0.5718  0.4842
10051TIP3   OH251567   4.647   2.404  13.157  0.3094  0.0698 -0.4886
10051TIP3    H151568   4.710   2.332  13.151  0.8165 -0.0099  3.2275
10051TIP3    H251569   4.575   2.377  13.100  2.5205 -0.9868 -2.9849
10052TIP3   OH251570   1.818   1.146  10.782  0.2621 -0.3515  0.0961
10052TIP3    H151571   1.892   1.090  10.803  0.1258  0.2400  2.4683
10052TIP3    H251572   1.743   1.088  10.780  0.7147 -0.9973 -2.5660
10053TIP3   OH251573   2.263   2.660  16.810  0.4322 -0.3876  0.6126
10053TIP3    H151574   2.342   2.625  16.770  1.6050  0.9227  1.6930
10053TIP3    H251575   2.219   2.706  16.738  0.7142 -0.9909  0.0422
10054TIP3   OH251576   6.161   5.121  16.230  0.7092  0.3418  0.3346
10054TIP3    H151577   6.195   5.155  16.312 -2.1510 -0.5831  2.0839
10054TIP3    H251578   6.097   5.054  16.257 -0.3804  0.0234 -2.6415
10055TIP3   OH251579   0.804   4.417  15.430 -0.0352  0.7158  0.3015
10055TIP3    H151580   0.761   4.369  15.501  1.4961  0.2652  0.9608
10055TIP3    H251581   0.766   4.505  15.435 -2.4974 -0.1969 -0.5987
10056TIP3   OH251582   4.539   2.814  15.635 -0.3746 -0.3134 -0.0189
10056TIP3    H151583   4.550   2.900  15.595 -1.3165 -1.1905 -2.3184
10056TIP3    H251584   4.623   2.796  15.677  0.7070  0.6852 -1.6634
10057TIP3   OH251585   1.354   4.926  17.095 -0.4490  0.4437 -0.0884
10057TIP3    H151586   1.317   4.841  17.117  1.1333  0.1267  1.5442
10057TIP3    H251587   1.352   4.976  17.177  2.0899  0.6074 -0.0486
10058TIP3   OH251588   4.690   2.000  11.324 -0.1932  0.0586  0.1226
10058TIP3    H151589   4.761   2.062  11.309 -0.9740  0.5360 -1.9163
10058TIP3    H251590   4.621   2.052  11.365  0.0412 -0.0560  0.6789
10059TIP3   OH251591   0.006   3.248   2.370  0.5979  0.2185  0.1865
10059TIP3    H151592   0.048   3.162   2.368  2.3184  0.9703 -3.4246
10059TIP3    H251593  -0.088   3.229   2.361  0.8727 -1.2673  0.2933
10060TIP3   OH251594   6.425   4.113   2.982  0.2281  0.0031 -0.2509
10060TIP3    H151595   6.431   4.118   2.887 -0.1815  0.2964 -0.2585
10060TIP3    H251596   6.446   4.022   3.002 -0.1841 -0.1806 -0.6562
10061TIP3   OH251597   3.426   4.713   0.268 -0.0241 -0.0279  0.5542
10061TIP3    H151598   3.377   4.792   0.293 -0.4329 -0.1508  0.1547
10061TIP3    H251599   3.376   4.676   0.196 -0.1175 -0.9397  1.0817
10062TIP3   OH251600   6.702   5.164   3.723  0.2100  0.4699  0.6393
10062TIP3    H151601   6.679   5.164   3.816  1.1109  2.6642  0.9229
10062TIP3    H251602   6.646   5.232   3.684  2.0146  1.7864  0.2346
10063TIP3   OH251603   0.362   0.499  11.474  0.1332  0.3466 -0.5013
10063TIP3    H151604   0.400   0.427  11.424 -0.7301 -1.1358  0.8944
10063TIP3    H251605   0.437   0.550  11.504  0.9678 -1.4608  0.6366
10064TIP3   OH251606   0.915   5.355  11.883  0.0626  0.8847 -0.1864
10064TIP3    H151607   0.878   5.383  11.800  0.5104  0.8365 -0.4036
10064TIP3    H251608   0.987   5.297  11.859 -0.5238 -0.0433  0.2463
10065TIP3   OH251609   2.212   0.041   0.214  0.0858 -0.7945  0.0402
10065TIP3    H151610   2.226   0.133   0.231 -1.8362 -0.3035 -0.6832
10065TIP3    H251611   2.298   0.000   0.223  1.1445  1.2014 -0.5340
10066TIP3   OH251612   3.012   2.835  12.474 -0.3749 -0.7162  0.3003
10066TIP3    H151613   2.946   2.776  12.438 -1.8581  0.3366  1.1743
10066TIP3    H251614   3.042   2.886  12.399  0.6051 -2.2165 -0.3840
10067TIP3   OH251615   6.185   6.441   0.506 -0.2607  0.0275 -0.4098
10067TIP3    H151616   6.149   6.515   0.457  1.0869 -0.4675 -2.2911
10067TIP3    H251617   6.127   6.431   0.581 -1.3621  2.0164 -0.9133
10068TIP3   OH251618   1.106   4.405   0.480 -0.3183 -0.1262 -0.1857
10068TIP3    H151619   1.181   4.457   0.453  0.3373 -1.1940 -0.5017
10068TIP3    H251620   1.143   4.341   0.541 -1.1622  0.0085  0.4815
10069TIP3   OH251621   1.852   2.990   1.645 -0.3253 -0.5629 -0.1771
10069TIP3    H151622   1.912   2.931   1.690 -0.9004  0.1625  1.6675
10069TIP3    H251623   1.800   2.933   1.588  0.6037 -1.4928 -0.1159
10070TIP3   OH251624   6.577   0.364  16.895 -0.4269  0.1676 -0.3195
10070TIP3    H151625   6.591   0.299  16.826  1.4628  0.4141 -0.2155
10070TIP3    H251626   6.658   0.362  16.947 -1.6239  0.3001  1.6437
10071TIP3   OH251627   3.411   4.432   2.403  0.5010 -0.3236 -0.3500
10071TIP3    H151628   3.368   4.440   2.318 -0.3949 -0.3610  0.0845
10071TIP3    H251629   3.466   4.355   2.396 -0.2850 -0.8714 -0.6027
10072TIP3   OH251630   3.230   6.183  14.625  0.2713  0.2809 -0.3731
10072TIP3    H151631   3.259   6.236  14.551  1.0407 -1.6552 -1.5234
10072TIP3    H251632   3.214   6.097  14.588  0.2527 -0.6386  1.6427
10073TIP3   OH251633   1.721   1.781   2.146 -0.0765 -0.2523 -0.3142
10073TIP3    H151634   1.724   1.866   2.102 -2.2086 -0.3838 -0.8608
10073TIP3    H251635   1.724   1.801   2.239 -2.0023  0.6192 -0.3768
10074TIP3   OH251636   3.745   1.520   2.378  0.0551 -0.1983  0.2434
10074TIP3    H151637   3.765   1.600   2.426 -0.8780  0.1127  0.1341
10074TIP3    H251638   3.784   1.450   2.430  0.9832  0.3369  0.2765
10075TIP3   OH251639   0.672   6.345  16.805  0.1185 -0.0073 -0.5556
10075TIP3    H151640   0.714   6.298  16.733 -0.3763 -0.2376 -0.6992
10075TIP3    H251641   0.589   6.376  16.768 -0.7101 -1.1827  0.2544
10076TIP3   OH251642   5.448   5.636  13.078 -0.1004 -0.0407  0.2714
10076TIP3    H151643   5.396   5.564  13.042  0.0433 -0.5571  1.0735
10076TIP3    H251644   5.530   5.634  13.029  0.3648 -1.1664  1.0490
10077TIP3   OH251645   0.902   1.496   3.161  0.1042 -0.0290  0.0074
10077TIP3    H151646   0.985   1.509   3.115  2.1068 -0.6299  3.1618
10077TIP3    H251647   0.870   1.584   3.178  1.7525  0.3579  1.3917
10078TIP3   OH251648   4.343   0.093   2.215  0.3045 -0.1572 -0.1578
10078TIP3    H151649   4.349   0.067   2.307  0.2882 -0.0674 -0.1320
10078TIP3    H251650   4.267   0.150   2.210  0.4052 -0.0242 -0.1944
10079TIP3   OH251651   2.457   4.471   5.332  0.2834  0.0403 -0.3749
10079TIP3    H151652   2.406   4.430   5.403 -0.2431  1.0828 -0.1140
10079TIP3    H251653   2.532   4.510   5.377 -0.6230  1.6773 -0.1528
10080TIP3   OH251654   2.269   2.799   1.066  0.0407 -0.2077  0.1599
10080TIP3    H151655   2.196   2.801   1.127 -0.8973 -0.9710 -0.8926
10080TIP3    H251656   2.241   2.740   0.996  1.0926  0.5840 -0.9852
10081TIP3   OH251657   6.305   2.775   5.163  0.0202  0.4427 -0.3776
10081TIP3    H151658   6.319   2.770   5.258 -1.1356  2.2118 -0.0661
10081TIP3    H251659   6.313   2.869   5.143  0.3094  0.0899 -2.0608
10082TIP3   OH251660   6.257   4.563  12.371 -0.1903  0.6084  0.1191
10082TIP3    H151661   6.291   4.640  12.416 -0.8649  0.5167  0.7956
10082TIP3    H251662   6.171   4.548  12.409 -0.2442 -0.2324 -0.3013
10083TIP3   OH251663   3.909   4.593  12.927 -0.3410  0.6527 -0.1171
10083TIP3    H151664   3.846   4.521  12.921 -1.8591  1.6791  2.2129
10083TIP3    H251665   3.939   4.591  13.017  0.6375  2.1067 -0.3736
10084TIP3   OH251666   4.785   4.499  16.225 -0.1677  0.1605 -0.3965
10084TIP3    H151667   4.865   4.502  16.173 -0.0737 -0.6484 -0.3161
10084TIP3    H251668   4.728   4.437  16.178  0.0653 -0.8750  0.6333
10085TIP3   OH251669   5.608   2.811  16.150  0.1212 -0.4080  0.6993
10085TIP3    H151670   5.637   2.886  16.097  0.6400 -1.2164 -0.2056
10085TIP3    H251671   5.525   2.784  16.109  0.2069 -0.6507  0.6835
10086TIP3   OH251672   5.588   3.231  15.752 -0.0176  0.3758  0.2636
10086TIP3    H151673   5.660   3.282  15.788 -0.3387  1.0636 -0.0467
10086TIP3    H251674   5.607   3.223  15.659  1.0059 -1.7315  0.5943
10087TIP3   OH251675   0.623   4.232  16.586  0.1446 -0.1368 -1.0331
10087TIP3    H151676   0.635   4.185  16.669  0.9603  0.4987 -0.7851
10087TIP3    H251677   0.677   4.310  16.594 -0.4479  0.3738 -1.8303
10088TIP3   OH251678   6.348   0.577   5.630  0.1300 -0.6273 -0.4276
10088TIP3    H151679   6.415   0.512   5.651  2.6226  1.6939 -0.7039
10088TIP3    H251680   6.347   0.581   5.535 -1.1044 -1.2503 -0.4676
10089TIP3   OH251681   6.599   5.154  16.847 -0.2646 -0.0310 -0.3766
10089TIP3    H151682   6.629   5.130  16.935 -1.4961 -0.3430 -0.0173
10089TIP3    H251683   6.652   5.101  16.788 -0.7326 -1.2561  0.2678
10090TIP3   OH251684   5.983   6.187   0.416  0.0922 -0.1415  0.5596
10090TIP3    H151685   5.905   6.142   0.447  2.1079 -2.4177  2.7213
10090TIP3    H251686   6.004   6.250   0.485  0.9090 -0.5016  0.6511
10091TIP3   OH251687   6.361   4.956   6.382 -0.2118 -0.1379  0.0938
10091TIP3    H151688   6.424   5.000   6.439 -0.3192  1.1796 -0.7789
10091TIP3    H251689   6.391   4.974   6.293 -2.2604  1.3258 -0.3875
10092TIP3   OH251690   4.737   2.141  13.095 -0.0971  0.4503 -0.7021
10092TIP3    H151691   4.776   2.066  13.139  0.6429  0.9987 -0.3898
10092TIP3    H251692   4.675   2.104  13.033 -0.8393 -0.3557  0.5013
10093TIP3   OH251693   3.928   1.226   0.821  0.2117 -0.2168 -0.3994
10093TIP3    H151694   3.924   1.248   0.727  0.7043 -0.4596 -0.4786
10093TIP3    H251695   3.995   1.284   0.856  0.1683 -0.2676 -0.2334
10094TIP3   OH251696   5.434   0.589  14.612  0.5106 -0.2123 -0.3832
10094TIP3    H151697   5.437   0.493  14.602  2.2470 -0.0471 -2.0463
10094TIP3    H251698   5.417   0.622  14.524  0.7224  1.0565  0.0286
10095TIP3   OH251699   1.145   4.847  13.299  0.2722  0.6100 -0.7143
10095TIP3    H151700   1.172   4.756  13.292 -0.1269  0.3667  0.5947
10095TIP3    H251701   1.050   4.843  13.314  0.6173  1.0313  2.2262
10096TIP3   OH251702   1.705   2.289  11.742 -0.0106  0.0976  0.3189
10096TIP3    H151703   1.711   2.314  11.650 -1.4926  0.0826  0.2027
10096TIP3    H251704   1.694   2.194  11.741  0.0389  0.0872  0.5226
10097TIP3   OH251705   4.498   3.789   2.276 -0.2537 -0.4665 -0.9660
10097TIP3    H151706   4.583   3.750   2.298 -0.2840 -0.2040 -0.3759
10097TIP3    H251707   4.438   3.714   2.269  0.0980 -0.6897 -1.7741
10098TIP3   OH251708   2.214   2.881  12.736  0.3502 -0.2942  0.1765
10098TIP3    H151709   2.309   2.891  12.728  0.2117  0.4254 -0.7532
10098TIP3    H251710   2.179   2.910  12.652 -0.7594  0.3974  0.8428
10099TIP3   OH251711   3.455   5.985   1.178  0.0104  0.3604  0.2520
10099TIP3    H151712   3.396   5.960   1.249  0.2984 -1.5502 -0.1355
10099TIP3    H251713   3.527   5.923   1.183  1.3048  1.7801 -0.1674
10100TIP3   OH251714   3.748   0.641   2.823  0.4961  0.3955 -0.0657
10100TIP3    H151715   3.821   0.642   2.761  0.8182 -0.4119  0.2911
10100TIP3    H251716   3.677   0.597   2.776 -0.1428  2.1290 -0.8068
10101TIP3   OH251717   3.838   0.949   1.169  0.2538  0.0491  0.6164
10101TIP3    H151718   3.929   0.976   1.185  0.3492  0.4746 -0.5638
10101TIP3    H251719   3.787   0.999   1.233  0.8584 -0.3292  1.4132
10102TIP3   OH251720   4.902   1.518  13.770 -0.8372 -0.1788  0.4391
10102TIP3    H151721   4.883   1.544  13.680  1.7385  0.0602 -0.1050
10102TIP3    H251722   4.902   1.422  13.768  2.8482 -0.3116 -0.8326
10103TIP3   OH251723   0.360   2.656   4.458 -0.5763 -0.3584  0.0414
10103TIP3    H151724   0.454   2.673   4.454 -0.2116 -1.7595  1.5649
10103TIP3    H251725   0.324   2.733   4.501  0.3808 -1.1449  2.4632
10104TIP3   OH251726   0.273   5.808  10.809 -0.2444 -0.5503 -0.3887
10104TIP3    H151727   0.214   5.883  10.813  0.1290 -0.2128 -1.1522
10104TIP3    H251728   0.219   5.733  10.835 -0.4777  0.0492  0.9534
10105TIP3   OH251729   0.684   5.452  15.046 -0.2266 -0.4934 -0.3879
10105TIP3    H151730   0.775   5.422  15.049  0.0906  0.4677 -0.1328
10105TIP3    H251731   0.663   5.475  15.137 -0.9494 -1.3229 -0.3244
10106TIP3   OH251732   6.402   5.911  12.576  0.2830  0.0594 -0.1381
10106TIP3    H151733   6.497   5.921  12.571  0.3825 -0.5076  0.4687
10106TIP3    H251734   6.388   5.817  12.584 -0.2475  0.2440  1.3354
10107TIP3   OH251735   3.772   5.120   3.462 -0.1377  0.6225 -0.2392
10107TIP3    H151736   3.746   5.109   3.370  1.1870  0.4792 -0.6286
10107TIP3    H251737   3.742   5.207   3.486 -0.3124  0.7425 -0.8770
10108TIP3   OH251738   6.448   2.934   2.527  0.1404  0.3729  0.1842
10108TIP3    H151739   6.468   2.920   2.619  1.2064 -0.3415 -0.1381
10108TIP3    H251740   6.457   3.029   2.515  0.3021  0.4332  0.7462
10109TIP3   OH251741   1.560   2.558   3.114 -0.0520  0.1606 -0.0552
10109TIP3    H151742   1.467   2.560   3.094  0.0623 -0.6057 -0.6937
10109TIP3    H251743   1.601   2.515   3.039  0.5913 -1.2091  1.0235
10110TIP3   OH251744   5.317   2.955   1.264 -0.3749 -0.6625  0.3945
10110TIP3    H151745   5.389   2.958   1.327 -0.4684 -0.2097  0.4800
10110TIP3    H251746   5.239   2.935   1.316 -0.4777 -0.1337  0.4477
10111TIP3   OH251747   4.169   4.579   2.575  0.0685 -0.1413 -0.1977
10111TIP3    H151748   4.257   4.610   2.594 -0.0403  0.3857 -0.5085
10111TIP3    H251749   4.181   4.510   2.510  0.2531 -0.0831 -0.2245
10112TIP3   OH251750   6.539   1.414  15.053  0.1928  0.6698 -0.5709
10112TIP3    H151751   6.553   1.334  15.103  0.5925  1.1026  0.0144
10112TIP3    H251752   6.620   1.426  15.005 -0.4788 -0.1940 -2.0001
10113TIP3   OH251753   0.694   6.631   1.680  0.2808  0.6474 -0.3488
10113TIP3    H151754   0.652   6.716   1.670  0.9394  0.9862 -0.2911
10113TIP3    H251755   0.688   6.612   1.773 -0.9573  0.0485 -0.5289
10114TIP3   OH251756   4.015   2.303  14.085 -0.0833  0.0036 -0.2330
10114TIP3    H151757   3.955   2.342  14.021 -1.0171  0.5019  0.8973
10114TIP3    H251758   3.961   2.238  14.131  0.6967 -0.6640 -0.2537
10115TIP3   OH251759   6.763   0.725  12.012  0.0364  0.0557  0.0031
10115TIP3    H151760   6.813   0.648  11.985  2.7073  0.7479  2.3778
10115TIP3    H251761   6.696   0.691  12.071 -0.0735 -0.6345 -0.5124
10116TIP3   OH251762   0.266   3.376  16.112  0.3965 -0.0684  0.0372
10116TIP3    H151763   0.242   3.417  16.194 -2.7928 -0.1226 -0.7285
10116TIP3    H251764   0.291   3.287  16.136  0.2101  0.1366  1.0258
10117TIP3   OH251765   4.156   6.061   1.268  0.7451 -0.0825  0.1219
10117TIP3    H151766   4.138   5.972   1.301  1.5992  0.0366  0.9752
10117TIP3    H251767   4.234   6.088   1.316  0.1454  1.3751  0.3193
10118TIP3   OH251768   3.612   3.940  12.316  0.6370 -0.0309 -0.0404
10118TIP3    H151769   3.566   3.910  12.238  1.3158 -1.1997 -0.0152
10118TIP3    H251770   3.635   3.860  12.363 -1.0480  0.6661  2.1579
10119TIP3   OH251771   3.102   1.596   1.913 -0.4036 -0.3299 -0.1308
10119TIP3    H151772   3.008   1.587   1.897 -0.6897 -0.2722  1.3518
10119TIP3    H251773   3.136   1.507   1.912  0.2900 -0.2184 -4.4366
10120TIP3   OH251774   2.309   2.782   3.548  0.5783  0.0664  0.4430
10120TIP3    H151775   2.331   2.740   3.465 -0.8551 -2.1405  1.0893
10120TIP3    H251776   2.384   2.765   3.605  0.1022 -1.5223  0.6272
10121TIP3   OH251777   1.439   3.339  16.344  0.2045  0.0774 -0.6055
10121TIP3    H151778   1.376   3.297  16.402  0.5383 -0.5813 -0.7144
10121TIP3    H251779   1.430   3.292  16.261 -0.8194  1.5017 -1.3563
10122TIP3   OH251780   3.784   4.122  11.436  0.6533 -0.3458  0.1854
10122TIP3    H151781   3.719   4.159  11.376 -0.2097 -1.6315  0.2764
10122TIP3    H251782   3.742   4.128  11.522  2.2349  2.3118  0.8833
10123TIP3   OH251783   4.973   2.560  15.999  0.1911 -0.3759  0.0304
10123TIP3    H151784   4.991   2.468  15.978  1.5034  0.1195 -1.2001
10123TIP3    H251785   5.024   2.609  15.935 -0.8208  1.2215  0.4077
10124TIP3   OH251786   0.599   4.971  15.720  0.0404 -0.1157  0.1429
10124TIP3    H151787   0.647   4.906  15.771 -1.5549 -1.6008 -0.1878
10124TIP3    H251788   0.541   5.013  15.784 -0.2805 -0.3345 -0.0052
10125TIP3   OH251789   6.091   4.171   1.370  0.3181 -0.4074  0.0954
10125TIP3    H151790   6.059   4.116   1.299  1.0444 -1.1145  0.3064
10125TIP3    H251791   6.070   4.261   1.343  0.2137 -0.7039 -0.8132
10126TIP3   OH251792   3.297   4.759   2.092 -0.0786 -0.2689 -0.4345
10126TIP3    H151793   3.318   4.782   2.183  0.4177  1.4161 -0.9361
10126TIP3    H251794   3.374   4.788   2.042 -1.2863  0.9991 -1.6588
10127TIP3   OH251795   2.579   1.233  11.545 -0.0371  0.0894  0.2555
10127TIP3    H151796   2.573   1.148  11.502  0.2454  0.2688 -0.1406
10127TIP3    H251797   2.672   1.257  11.538 -0.0835  0.3511  0.5200
10128TIP3   OH251798   1.931   4.257   1.302  0.8004 -0.3235  0.1964
10128TIP3    H151799   1.909   4.349   1.320  1.9317  0.3190 -1.4514
10128TIP3    H251800   1.943   4.218   1.389  0.4109  1.1079  0.9359
10129TIP3   OH251801   1.755   1.856  13.521  0.5480  0.6050 -0.0428
10129TIP3    H151802   1.833   1.812  13.555  1.2768 -0.6920 -3.0949
10129TIP3    H251803   1.683   1.820  13.573  1.4375 -2.2824 -0.6343
10130TIP3   OH251804   4.054   1.937  16.549 -0.0559 -0.3483  0.3481
10130TIP3    H151805   4.145   1.965  16.555 -0.3197  1.0227 -1.1978
10130TIP3    H251806   4.004   2.015  16.572 -0.8352 -0.8849  0.4983
10131TIP3   OH251807   6.192   4.721  10.980 -0.2899 -0.2455 -0.3690
10131TIP3    H151808   6.255   4.672  10.927  1.3386 -0.3706  1.5425
10131TIP3    H251809   6.234   4.805  10.996 -0.8659 -0.0954  0.4406
10132TIP3   OH251810   3.221   4.875   0.875 -0.0840 -0.2981  0.7360
10132TIP3    H151811   3.304   4.921   0.879 -1.1341  2.3270 -2.5547
10132TIP3    H251812   3.229   4.816   0.799 -1.0766 -0.2588  0.5774
10133TIP3   OH251813   3.790   5.492   0.366  0.4638  0.2253  0.4251
10133TIP3    H151814   3.731   5.418   0.379  1.2699 -0.2621  1.4399
10133TIP3    H251815   3.854   5.460   0.302 -0.4001  0.7918 -0.7616
10134TIP3   OH251816   4.814   3.741  11.690  0.8070  0.1954 -0.1139
10134TIP3    H151817   4.877   3.700  11.631 -1.5205 -3.1057 -0.6151
10134TIP3    H251818   4.817   3.688  11.770 -2.4272 -1.3364 -0.8230
10135TIP3   OH251819   2.366   0.471   2.024  0.2455 -0.1098 -0.1327
10135TIP3    H151820   2.446   0.495   2.071 -0.1996  0.0750  0.5655
10135TIP3    H251821   2.297   0.479   2.091 -0.4983  0.7590 -0.9762
10136TIP3   OH251822   1.992   4.764   6.400  0.2080  0.4298 -0.5580
10136TIP3    H151823   1.947   4.791   6.480 -0.1367 -1.3728 -0.1020
10136TIP3    H251824   1.926   4.772   6.332 -0.0255  0.3106 -0.3489
10137TIP3   OH251825   2.237   5.763   3.737  0.1040 -0.0879 -0.1399
10137TIP3    H151826   2.218   5.674   3.767  0.0461 -0.6271 -1.6731
10137TIP3    H251827   2.227   5.817   3.815 -3.7330 -0.8710  0.1301
10138TIP3   OH251828   3.763   1.813  14.981 -0.4912 -0.1065  0.2361
10138TIP3    H151829   3.704   1.801  15.055  1.7877 -1.7440  1.9331
10138TIP3    H251830   3.743   1.901  14.948 -2.5932  0.0746  1.8058
10139TIP3   OH251831   6.538   0.599   1.991 -0.8679 -0.0598  0.3135
10139TIP3    H151832   6.507   0.659   2.058  0.1675  0.4146  0.3854
10139TIP3    H251833   6.538   0.513   2.034 -0.3740  0.2150  0.8833
10140TIP3   OH251834   3.469   6.049  10.741  0.7334 -0.5842 -0.0068
10140TIP3    H151835   3.514   6.085  10.665 -0.5503  1.0064 -0.0691
10140TIP3    H251836   3.395   6.001  10.705  0.8223 -0.8788  0.1987
10141TIP3   OH251837   3.790   2.846  14.065  0.8058 -0.0774 -0.2587
10141TIP3    H151838   3.762   2.917  14.008  0.4938 -0.1774 -0.2292
10141TIP3    H251839   3.864   2.883  14.114  0.9676  0.0612 -0.6047
10142TIP3   OH251840   2.737   2.761   1.717  0.5005  0.2966  0.0880
10142TIP3    H151841   2.712   2.669   1.713  0.6924  0.2731 -2.8115
10142TIP3    H251842   2.821   2.761   1.764  1.3752 -1.2780 -1.3444
10143TIP3   OH251843   4.077   4.280   4.820 -0.3299  0.9487 -0.0350
10143TIP3    H151844   4.134   4.345   4.861 -0.1651  1.1259 -0.5351
10143TIP3    H251845   4.050   4.223   4.892  0.5656  0.7934  0.1837
10144TIP3   OH251846   3.542   0.528   4.816 -0.2188  0.2756 -0.6510
10144TIP3    H151847   3.597   0.592   4.772  1.0909  0.2470  0.8655
10144TIP3    H251848   3.469   0.578   4.852  0.6493  0.9107  0.2792
10145TIP3   OH251849   6.127   1.772   0.440 -0.7796 -0.0752  0.5652
10145TIP3    H151850   6.170   1.792   0.357 -1.8406 -0.1780 -0.0190
10145TIP3    H251851   6.034   1.783   0.423 -0.9589  1.4419  2.1599
10146TIP3   OH251852   2.805   5.206  16.818  0.3839 -0.2190  0.0019
10146TIP3    H151853   2.809   5.282  16.877  0.9672  0.5079 -0.9525
10146TIP3    H251854   2.713   5.200  16.793  0.0046 -0.9339  1.4813
10147TIP3   OH251855   0.026   1.643   3.073  0.6339  0.3774  0.4033
10147TIP3    H151856  -0.035   1.614   3.006 -1.2357  0.7738  1.8527
10147TIP3    H251857   0.097   1.578   3.071 -1.3985 -1.9914  0.8074
10148TIP3   OH251858   1.878   0.575  14.732  0.5235 -0.8359 -0.2374
10148TIP3    H151859   1.943   0.521  14.688  0.7449 -0.2031 -0.7105
10148TIP3    H251860   1.809   0.587  14.666 -0.3098 -1.8909  0.4138
10149TIP3   OH251861   5.537   3.778   2.857 -0.1406 -0.3902 -0.3722
10149TIP3    H151862   5.572   3.857   2.815 -0.6598  0.5412  0.8666
10149TIP3    H251863   5.453   3.806   2.893  0.1725 -1.1904  1.0497
10150TIP3   OH251864   4.825   0.530  12.562 -0.0829  0.1959  0.1039
10150TIP3    H151865   4.864   0.483  12.488  0.6654 -1.0899  1.2768
10150TIP3    H251866   4.899   0.577  12.601 -0.3943  0.5301  0.2880
10151TIP3   OH251867   2.082   2.439  12.795  0.1956 -0.2283  0.1544
10151TIP3    H151868   2.087   2.475  12.884  0.5269 -0.7795  0.3596
10151TIP3    H251869   2.152   2.374  12.791  1.1796  0.8355 -0.9912
10152TIP3   OH251870   5.557   3.750   2.011  0.3670  0.3334  0.2813
10152TIP3    H151871   5.526   3.812   2.077  0.1604  0.4771  0.0503
10152TIP3    H251872   5.538   3.664   2.048  1.7371  0.3709  1.1434
10153TIP3   OH251873   6.145   0.994   2.222  0.3771 -0.6786 -0.0830
10153TIP3    H151874   6.146   0.899   2.224  2.2160 -0.7003  0.4277
10153TIP3    H251875   6.069   1.020   2.274  0.9978 -1.8641  1.4720
10154TIP3   OH251876   5.817   3.104   1.231 -0.1093 -0.0840  0.7245
10154TIP3    H151877   5.905   3.129   1.203 -0.9990  3.1238  0.3578
10154TIP3    H251878   5.764   3.109   1.151 -0.8761 -0.6831  1.1756
10155TIP3   OH251879   0.531   1.861  12.779 -0.7153  0.4025 -0.7175
10155TIP3    H151880   0.543   1.821  12.865 -0.3570  0.8418 -0.5526
10155TIP3    H251881   0.458   1.922  12.791  0.4906  1.8346 -0.1950
10156TIP3   OH251882   4.312   0.135  14.053 -0.6035  0.3614 -0.0860
10156TIP3    H151883   4.322   0.098  14.141  1.0838  2.8255  0.8392
10156TIP3    H251884   4.380   0.202  14.047 -2.6854  2.4606 -2.0939
10157TIP3   OH251885   5.986   2.802   4.173  0.4624 -0.8412 -0.0629
10157TIP3    H151886   6.066   2.839   4.210  0.1790 -0.2829  0.0037
10157TIP3    H251887   5.978   2.716   4.215  1.2190 -1.0637 -0.3451
10158TIP3   OH251888   3.937   5.280   6.323 -0.3697 -0.3545  0.6957
10158TIP3    H151889   3.904   5.280   6.413 -1.0804  0.3012  0.4420
10158TIP3    H251890   4.013   5.222   6.326 -0.6546 -0.7020  1.6186
10159TIP3   OH251891   5.167   5.122  11.028  0.6734 -0.2380 -0.5864
10159TIP3    H151892   5.155   5.214  11.051  2.0811 -0.5344  1.6516
10159TIP3    H251893   5.186   5.123  10.934  1.9914  1.9135 -0.3665
10160TIP3   OH251894   5.674   0.595   2.651  0.6550  0.1725  0.2972
10160TIP3    H151895   5.704   0.529   2.713 -0.6947  0.1245  0.9463
10160TIP3    H251896   5.592   0.560   2.616  1.5283  0.0399 -1.7987
10161TIP3   OH251897   3.787   5.492  16.797  0.9313  0.5708  0.5825
10161TIP3    H151898   3.823   5.455  16.717 -1.7572  0.5596 -0.7486
10161TIP3    H251899   3.725   5.426  16.829 -0.4010  1.8650  0.8171
10162TIP3   OH251900   2.521   0.825   4.916 -0.0733  0.2993 -0.7292
10162TIP3    H151901   2.450   0.799   4.857  1.0167 -0.1457 -1.8881
10162TIP3    H251902   2.481   0.822   5.003 -2.1932  2.4906 -1.4926
10163TIP3   OH251903   4.111   1.607  12.743 -0.1621  0.3418 -0.3371
10163TIP3    H151904   4.125   1.513  12.730  1.5561  0.5068 -0.0120
10163TIP3    H251905   4.139   1.647  12.660  2.6594  0.7743  0.7068
10164TIP3   OH251906   4.832   4.690  12.238  0.3655 -0.1939 -0.2501
10164TIP3    H151907   4.760   4.661  12.294  1.1286  0.2762  1.0144
10164TIP3    H251908   4.891   4.616  12.233  1.1717  0.3359  1.0636
10165TIP3   OH251909   2.795   4.957   5.305  0.4093 -0.2973  0.0223
10165TIP3    H151910   2.804   4.968   5.211  0.6447  1.9943  0.2663
10165TIP3    H251911   2.704   4.930   5.318 -0.0957  0.9788 -0.7535
10166TIP3   OH251912   1.533   0.859   1.651 -0.2705  0.1349  0.0608
10166TIP3    H151913   1.606   0.879   1.710 -0.4928 -0.3523  0.5165
10166TIP3    H251914   1.483   0.940   1.646 -0.3779  0.1207  0.7346
10167TIP3   OH251915   1.011   2.590   3.715  0.1603 -0.2641  0.0128
10167TIP3    H151916   0.942   2.547   3.664  1.0237 -0.4794 -1.0157
10167TIP3    H251917   1.078   2.612   3.650  0.6288  0.8273  0.8374
10168TIP3   OH251918   3.764   2.214   3.322 -0.0451  0.1460 -0.6741
10168TIP3    H151919   3.778   2.280   3.390 -1.5154  1.1114 -1.2545
10168TIP3    H251920   3.849   2.171   3.312  0.4942  0.7526  0.9538
10169TIP3   OH251921   4.667   0.607  14.998 -0.0386 -0.1152  0.5891
10169TIP3    H151922   4.671   0.527  15.050 -0.8392 -1.7006 -1.6370
10169TIP3    H251923   4.722   0.669  15.046  0.8395 -2.0554  2.2731
10170TIP3   OH251924   4.266   2.971  10.544 -0.1836 -0.2403 -0.0681
10170TIP3    H151925   4.222   3.030  10.482  0.6546 -0.6343 -1.0678
10170TIP3    H251926   4.233   2.998  10.630 -0.0124  1.5227 -0.5160
10171TIP3   OH251927   2.959   4.811  16.018  0.2633  0.3033  0.5045
10171TIP3    H151928   2.948   4.784  15.927  0.4580 -0.6160  0.7502
10171TIP3    H251929   2.871   4.813  16.054  0.3761 -2.4524  1.1556
10172TIP3   OH251930   1.054   2.323  11.404 -0.0038  0.6500  0.4310
10172TIP3    H151931   0.970   2.291  11.438 -0.0879  1.6533  1.2274
10172TIP3    H251932   1.085   2.252  11.347 -1.8078  0.6098 -0.6064
10173TIP3   OH251933   4.676   6.381   4.100 -0.1289  0.1116 -0.5436
10173TIP3    H151934   4.637   6.432   4.029 -0.1834  0.1771 -0.4677
10173TIP3    H251935   4.765   6.364   4.071  0.0309  0.6377 -0.3732
10174TIP3   OH251936   0.739   5.400   0.164  0.1577 -0.2604 -0.4464
10174TIP3    H151937   0.811   5.406   0.227 -0.3361  1.1157  0.0098
10174TIP3    H251938   0.781   5.377   0.081  1.4259  2.4539 -0.6660
10175TIP3   OH251939   3.649   1.042  11.793  0.0261 -0.3652 -0.2197
10175TIP3    H151940   3.557   1.066  11.801  0.1001 -0.1369 -0.0632
10175TIP3    H251941   3.669   0.996  11.875  1.0269  2.7576  1.4646
10176TIP3   OH251942   1.465   1.308   4.740 -0.4417  0.6451 -0.0404
10176TIP3    H151943   1.490   1.223   4.778 -1.1508  1.1154  1.5751
10176TIP3    H251944   1.489   1.301   4.648  1.5437 -0.5077  0.5014
10177TIP3   OH251945   0.746   3.572   5.563  0.2604 -0.5131 -0.2072
10177TIP3    H151946   0.712   3.490   5.601 -0.8575 -0.3190 -0.7528
10177TIP3    H251947   0.747   3.556   5.469 -0.8515  0.4095 -0.3961
10178TIP3   OH251948   0.941   1.359   4.780  0.2721 -0.6438  0.0646
10178TIP3    H151949   0.942   1.340   4.874  0.2440 -2.6768 -0.3055
10178TIP3    H251950   0.894   1.285   4.741  0.5307  0.0199 -1.5886
10179TIP3   OH251951   2.846   6.106   4.121  0.5631 -0.4422  0.7653
10179TIP3    H151952   2.888   6.177   4.073  1.6774 -0.5066  1.5928
10179TIP3    H251953   2.881   6.114   4.210 -0.8580 -0.7841  1.3785
10180TIP3   OH251954   0.614   2.773   2.343  0.4540  0.3929 -0.8859
10180TIP3    H151955   0.598   2.679   2.341  0.1492  0.4431 -2.5482
10180TIP3    H251956   0.624   2.794   2.436 -1.5083 -0.9279 -0.3247
10181TIP3   OH251957   1.527   2.894  16.358 -0.2448 -0.1756 -0.6089
10181TIP3    H151958   1.513   2.826  16.425  1.1906 -1.0674 -1.1815
10181TIP3    H251959   1.599   2.861  16.305 -0.4624  1.1599 -1.7837
10182TIP3   OH251960   4.014   2.951   4.850  0.1862 -0.4962 -0.3087
10182TIP3    H151961   4.068   2.955   4.929 -0.0049  0.5932 -0.2145
10182TIP3    H251962   3.942   3.013   4.867  0.8136  0.7078 -1.8212
10183TIP3   OH251963   4.430   5.572  15.450  0.0033  0.1354 -0.1382
10183TIP3    H151964   4.345   5.593  15.488 -0.0717  1.8858 -1.1466
10183TIP3    H251965   4.480   5.535  15.522 -1.4151 -0.4050  0.6108
10184TIP3   OH251966   4.964   6.474   1.377  0.3144 -0.3714 -0.1069
10184TIP3    H151967   4.919   6.478   1.461  1.2829 -1.6373  0.5038
10184TIP3    H251968   4.904   6.425   1.320 -0.7566  1.2898 -0.4632
10185TIP3   OH251969   6.756   2.986   2.788 -0.2791  0.0214  0.2962
10185TIP3    H151970   6.760   2.898   2.751  0.7013 -0.8259  2.2822
10185TIP3    H251971   6.717   3.039   2.718 -2.2831 -2.2276 -0.4544
10186TIP3   OH251972   0.276   3.471  15.355  0.1669  0.5236 -0.3649
10186TIP3    H151973   0.293   3.566  15.355  3.1819  0.1700  2.5338
10186TIP3    H251974   0.349   3.434  15.306 -0.6591 -0.4025 -0.9355
10187TIP3   OH251975   0.807   5.759   1.306 -0.3932 -0.1021  0.5639
10187TIP3    H151976   0.871   5.740   1.237 -0.2237  0.9779  0.4153
10187TIP3    H251977   0.792   5.674   1.348  0.8891 -0.4340  0.3974
10188TIP3   OH251978   4.528   4.807   2.660 -0.6535 -0.7051 -0.3895
10188TIP3    H151979   4.616   4.785   2.691 -0.2058  0.1848 -0.9874
10188TIP3    H251980   4.489   4.722   2.639 -0.2038 -1.1654  0.5456
10189TIP3   OH251981   4.457   1.263  13.769 -0.9374  0.0410 -0.4293
10189TIP3    H151982   4.455   1.341  13.824  0.3283  0.0595 -0.3791
10189TIP3    H251983   4.517   1.285  13.698  0.4264 -1.3040  0.2690
10190TIP3   OH251984   1.852   3.312   0.483  0.3651 -0.5884  0.1622
10190TIP3    H151985   1.886   3.234   0.437 -2.2610 -0.2363 -2.7352
10190TIP3    H251986   1.904   3.384   0.448 -0.1445 -0.5849 -0.6239
10191TIP3   OH251987   6.799   0.778   6.409 -0.2137  0.6649 -0.3848
10191TIP3    H151988   6.727   0.727   6.447  0.0195  0.5592 -0.0854
10191TIP3    H251989   6.875   0.721   6.415  0.0815  1.1002  0.0834
10192TIP3   OH251990   5.560   0.448   1.541  0.2058 -0.1704  0.5597
10192TIP3    H151991   5.640   0.482   1.582  1.2396 -1.6284 -0.1350
10192TIP3    H251992   5.528   0.520   1.488  2.3822 -0.2413 -0.9743
10193TIP3   OH251993   4.425   0.896   3.585 -0.2043  0.3184  0.4209
10193TIP3    H151994   4.471   0.821   3.547 -0.9365  0.0424  0.0568
10193TIP3    H251995   4.493   0.947   3.628  0.2393 -0.8935  1.2418
10194TIP3   OH251996   4.598   6.161   1.996  0.0628  0.1481 -0.3645
10194TIP3    H151997   4.664   6.113   1.945  1.4338  1.0712  0.4739
10194TIP3    H251998   4.525   6.100   2.005  0.7948 -0.9109 -1.3212
10195TIP3   OH251999   5.562   5.720  11.813 -0.1851 -0.4774 -0.1277
10195TIP3    H152000   5.526   5.639  11.776  1.2784 -1.0900 -0.2717
10195TIP3    H252001   5.592   5.769  11.737 -0.4356 -0.0918  0.0161
10196TIP3   OH252002   1.990   3.492   3.982  0.3360  0.5364  0.3094
10196TIP3    H152003   2.058   3.477   3.917 -0.6155  0.0391 -0.6063
10196TIP3    H252004   2.020   3.568   4.032  1.0269  1.0207 -0.8096
10197TIP3   OH252005   2.692   1.388  12.504 -0.1444 -0.2510  0.0775
10197TIP3    H152006   2.690   1.297  12.533 -0.3268 -0.2278  0.1392
10197TIP3    H252007   2.674   1.384  12.410  1.5203 -0.4139 -0.2484
10198TIP3   OH252008   1.808   2.137  12.353 -0.4420  0.1577 -0.6660
10198TIP3    H152009   1.745   2.197  12.393  0.1199  0.3754 -0.0833
10198TIP3    H252010   1.760   2.096  12.281 -1.2797  0.2410 -0.1722
10199TIP3   OH252011   0.522   1.786  13.998 -0.1777  0.1404  0.3779
10199TIP3    H152012   0.508   1.861  14.055  1.3998  1.2373 -0.6087
10199TIP3    H252013   0.486   1.812  13.913  1.1849  0.2129 -0.2222
10200TIP3   OH252014   3.172   6.492  12.386 -0.5804  0.6460  0.0813
10200TIP3    H152015   3.087   6.492  12.343  0.4745  0.6186 -2.1197
10200TIP3    H252016   3.220   6.563  12.343  0.8995 -0.0807  0.4873
10201TIP3   OH252017   6.331   6.382  15.934  0.3657  0.5014  0.2219
10201TIP3    H152018   6.356   6.403  15.844  0.8901 -1.5233 -0.1706
10201TIP3    H252019   6.236   6.391  15.935  0.0890 -1.4965 -1.1958
10202TIP3   OH252020   0.981   6.119  17.010  0.1369  0.6559  0.4070
10202TIP3    H152021   0.905   6.104  16.953  0.5006  4.3136 -1.2933
10202TIP3    H252022   0.948   6.174  17.080  0.8057  0.5527  0.8122
10203TIP3   OH252023   2.333   3.376  15.921  0.1240 -0.0281  0.3737
10203TIP3    H152024   2.407   3.340  15.969  0.7379  0.4737 -0.1717
10203TIP3    H252025   2.319   3.315  15.849 -1.3082 -1.2120  1.5989
10204TIP3   OH252026   5.200   4.561   5.624  0.0703  0.4582  0.0761
10204TIP3    H152027   5.175   4.523   5.708 -1.0969 -0.9260 -0.8634
10204TIP3    H252028   5.214   4.486   5.567  1.5816  1.3509 -0.7986
10205TIP3   OH252029   3.605   5.716   5.809 -0.1835 -0.5568  0.6662
10205TIP3    H152030   3.617   5.697   5.716  0.2735  0.0904  0.5852
10205TIP3    H252031   3.511   5.725   5.820 -0.2400 -0.6614  0.2719
10206TIP3   OH252032   5.306   4.206   6.206 -0.4526 -0.1040 -0.3227
10206TIP3    H152033   5.313   4.300   6.218 -0.6037 -0.3526  2.0616
10206TIP3    H252034   5.389   4.181   6.166  0.3540  0.8040  0.7294
10207TIP3   OH252035   5.661   1.136  15.624  0.0549  0.0689  0.5794
10207TIP3    H152036   5.650   1.042  15.631  0.0610  0.0230  0.0019
10207TIP3    H252037   5.713   1.149  15.545  0.0599  0.5545  0.6561
10208TIP3   OH252038   5.923   6.542  12.263  0.0117 -0.6368  0.0506
10208TIP3    H152039   5.907   6.522  12.355 -0.5796  1.3362  0.4289
10208TIP3    H252040   6.017   6.561  12.258 -0.1661  0.4574  0.5331
10209TIP3   OH252041   3.439   5.414   4.180  0.2809 -0.3140 -0.2950
10209TIP3    H152042   3.532   5.393   4.182  0.7677  1.6388  0.6235
10209TIP3    H252043   3.434   5.504   4.213 -1.9230 -0.3122 -0.4524
10210TIP3   OH252044   6.548   4.614   4.611  0.4062  0.0551 -0.6832
10210TIP3    H152045   6.637   4.650   4.621  0.2204  0.6955 -1.2328
10210TIP3    H252046   6.504   4.676   4.553 -0.4418 -0.1964 -0.3236
10211TIP3   OH252047   0.433   5.356  16.179  0.0021 -0.0565 -0.3750
10211TIP3    H152048   0.366   5.335  16.116 -0.4884  0.5174 -0.0598
10211TIP3    H252049   0.513   5.368  16.127  0.0497 -1.5232 -0.6610
10212TIP3   OH252050   4.747   2.871  16.880  0.2236 -0.1822  0.3051
10212TIP3    H152051   4.764   2.894  16.789 -0.5298 -0.6466  0.0357
10212TIP3    H252052   4.719   2.952  16.921 -0.3695 -0.1690 -0.1168
10213TIP3   OH252053   2.056   6.129  11.224  0.2921 -0.2882  0.5485
10213TIP3    H152054   2.085   6.130  11.132 -0.6573  0.1063  0.2463
10213TIP3    H252055   2.001   6.206  11.232 -0.1871 -0.7025  1.2833
10214TIP3   OH252056   1.203   6.339   5.854 -0.2277  0.2498  0.0295
10214TIP3    H152057   1.138   6.327   5.784 -0.2016  0.9623 -0.1205
10214TIP3    H252058   1.257   6.260   5.851 -0.3386  0.1976 -0.6392
10215TIP3   OH252059   4.619   4.751  13.856 -0.3602 -0.0662 -0.7332
10215TIP3    H152060   4.547   4.702  13.895 -0.3241  0.8098  0.4919
10215TIP3    H252061   4.693   4.735  13.915  0.4845 -0.9666 -1.9788
10216TIP3   OH252062   0.454   2.145  15.069 -0.3013  0.0105  0.3032
10216TIP3    H152063   0.414   2.093  14.999  0.3414 -0.8145  0.5365
10216TIP3    H252064   0.536   2.176  15.031  0.7823 -1.6749  1.1418
10217TIP3   OH252065   0.393   6.617  14.462  0.1598  0.2860 -0.0067
10217TIP3    H152066   0.412   6.525  14.442 -1.1390  0.5045 -2.5847
10217TIP3    H252067   0.479   6.660  14.458  0.7016 -0.6905  0.6310
10218TIP3   OH252068   5.224   1.587   1.772  0.4930 -0.2509  0.2159
10218TIP3    H152069   5.163   1.627   1.835  0.0819 -0.2895 -0.1532
10218TIP3    H252070   5.176   1.513   1.736  1.5929 -1.7163  1.6190
10219TIP3   OH252071   5.806   4.897  13.880 -0.2013  0.2853  0.2560
10219TIP3    H152072   5.811   4.807  13.849 -0.5518  1.4823 -3.8002
10219TIP3    H252073   5.893   4.934  13.864 -0.7686  1.3061 -0.6501
10220TIP3   OH252074   5.359   4.198  16.891  0.3910 -0.3550  0.1509
10220TIP3    H152075   5.444   4.212  16.851  0.2501 -0.8459 -0.3326
10220TIP3    H252076   5.372   4.124  16.950  0.5619  0.2720  0.9242
10221TIP3   OH252077   4.498   0.248  11.466 -0.0335 -0.0182 -0.2298
10221TIP3    H152078   4.458   0.266  11.381  1.7962 -0.0100 -1.1260
10221TIP3    H252079   4.557   0.175  11.449  0.1307 -0.2225  1.1237
10222TIP3   OH252080   5.788   5.638   5.772 -0.3779 -0.1383 -0.1974
10222TIP3    H152081   5.725   5.704   5.802 -1.3213 -1.0052 -0.2287
10222TIP3    H252082   5.835   5.612   5.852 -0.4199  0.1228 -0.0855
10223TIP3   OH252083   2.828   6.256  15.503 -0.4744 -0.4247 -0.3688
10223TIP3    H152084   2.907   6.268  15.556 -0.7354 -0.9294  0.1397
10223TIP3    H252085   2.844   6.307  15.424  0.2205 -0.2511 -0.1184
10224TIP3   OH252086   3.824   0.002  13.631  0.2382 -0.3453  0.4745
10224TIP3    H152087   3.748  -0.020  13.576  0.8746  0.0633 -0.5980
10224TIP3    H252088   3.884  -0.072  13.619 -1.0748 -2.0636  3.5098
10225TIP3   OH252089   5.324   1.467   5.640  0.1508 -0.4520 -0.1099
10225TIP3    H152090   5.371   1.386   5.659 -2.9787 -2.0840  1.4203
10225TIP3    H252091   5.243   1.439   5.598 -0.7517  1.9435 -0.1578
10226TIP3   OH252092   4.165   0.109   3.881  0.7854 -0.3237 -0.1258
10226TIP3    H152093   4.124   0.193   3.900  1.2815 -0.4440  1.6744
10226TIP3    H252094   4.104   0.065   3.823 -0.5458  0.3979  0.6744
10227TIP3   OH252095   1.610   3.856  14.411  0.5289 -0.0024  0.1490
10227TIP3    H152096   1.517   3.854  14.387  0.5395  1.1505 -0.0206
10227TIP3    H252097   1.610   3.865  14.506  0.4896 -1.7774  0.3537
10228TIP3   OH252098   0.007   5.205  14.617  0.2169 -0.6356  0.7319
10228TIP3    H152099  -0.055   5.135  14.636  0.1703 -0.5998  0.7102
10228TIP3    H252100   0.082   5.159  14.579 -0.3371 -0.5379 -0.5173
10229TIP3   OH252101   5.691   4.037   5.499 -0.4676  0.6264 -0.2828
10229TIP3    H152102   5.695   4.127   5.529 -0.5282  1.0889 -1.5937
10229TIP3    H252103   5.678   4.043   5.404 -0.1575 -0.7546 -0.4450
10230TIP3   OH252104   6.062   1.757  14.443  0.3904 -0.0011  0.1552
10230TIP3    H152105   6.095   1.840  14.478  1.1133  0.0381 -0.5650
10230TIP3    H252106   6.072   1.766  14.348  0.0697 -0.7455  0.0466
10231TIP3   OH252107   3.902   3.198   1.139  0.0153  0.1072 -0.2816
10231TIP3    H152108   3.952   3.215   1.059  0.5852 -0.0141  0.0440
10231TIP3    H252109   3.968   3.173   1.204 -0.6161 -1.6904 -0.2823
10232TIP3   OH252110   5.919   6.511   0.204 -0.5774 -0.0892  0.1581
10232TIP3    H152111   5.971   6.555   0.271 -0.4509  2.6129 -1.5664
10232TIP3    H252112   5.978   6.445   0.168  1.3338  2.0584 -0.8968
10233TIP3   OH252113   1.826   3.121  13.475 -0.1183  0.2601  0.0294
10233TIP3    H152114   1.825   3.184  13.403  0.9407 -1.0874 -1.2158
10233TIP3    H252115   1.840   3.174  13.553 -2.0350  1.8390 -0.6274
10234TIP3   OH252116   2.602   4.031   1.934  0.0516  0.3674  0.1890
10234TIP3    H152117   2.676   4.009   1.877 -0.0631 -0.0544  0.1999
10234TIP3    H252118   2.585   4.124   1.916 -2.6364 -0.6113 -3.6074
10235TIP3   OH252119   3.474   4.549   2.771  0.9718  0.0021 -0.3126
10235TIP3    H152120   3.468   4.533   2.865  1.0401 -0.2949 -0.3572
10235TIP3    H252121   3.568   4.555   2.754  0.9389  1.0141 -0.2077
10236TIP3   OH252122   2.410   2.098  15.370 -0.8472 -0.0238  0.1162
10236TIP3    H152123   2.338   2.155  15.347  0.5348  1.4579 -0.7434
10236TIP3    H252124   2.487   2.139  15.331  0.2933 -2.2483 -0.1683
10237TIP3   OH252125   0.573   1.676   0.374  0.1340 -0.3600 -0.4461
10237TIP3    H152126   0.573   1.689   0.468 -0.5722 -0.4166 -0.4326
10237TIP3    H252127   0.607   1.758   0.338  0.9478 -0.5516 -0.1211
10238TIP3   OH252128   2.447   2.318  16.059 -0.1511 -0.2894 -0.6524
10238TIP3    H152129   2.440   2.231  16.021 -1.5632 -0.1592 -0.7223
10238TIP3    H252130   2.486   2.372  15.990  1.9514 -1.1028 -0.1812
10239TIP3   OH252131   0.654   5.386  13.593 -0.1616  0.0722 -0.4834
10239TIP3    H152132   0.712   5.321  13.555 -1.6514 -0.9645 -1.0538
10239TIP3    H252133   0.613   5.429  13.518 -1.2820 -0.2910 -0.1057
10240TIP3   OH252134   0.219   5.119  11.245  0.6051  0.3008 -0.0375
10240TIP3    H152135   0.267   5.175  11.184 -1.5729  0.5701 -1.6059
10240TIP3    H252136   0.166   5.062  11.188  0.1539 -0.9727  1.5830
10241TIP3   OH252137   0.798   2.736   2.598 -0.3167 -0.0572 -0.6340
10241TIP3    H152138   0.804   2.740   2.694 -2.5632 -0.6376 -0.4070
10241TIP3    H252139   0.761   2.820   2.573 -0.1843 -0.0921 -0.9505
10242TIP3   OH252140   4.911   5.429   3.044 -0.2602 -0.6394 -0.1510
10242TIP3    H152141   4.986   5.444   3.101  0.9453  0.9219 -2.0095
10242TIP3    H252142   4.853   5.372   3.095  0.7775  0.5233  2.5318
10243TIP3   OH252143   0.250   5.584   5.720 -0.6374 -0.8114 -0.0431
10243TIP3    H152144   0.229   5.494   5.744 -0.3302 -1.0150 -0.5263
10243TIP3    H252145   0.341   5.597   5.750 -1.2106 -0.1137  1.5375
10244TIP3   OH252146   2.594   5.420  13.029 -0.5198 -0.3706 -0.0413
10244TIP3    H152147   2.672   5.414  12.974 -0.7203 -1.2160 -0.2424
10244TIP3    H252148   2.583   5.514  13.045 -0.6919 -0.0759 -1.7833
10245TIP3   OH252149   0.824   0.926  16.475 -1.0954 -0.6104  0.1570
10245TIP3    H152150   0.792   0.992  16.537  0.0175 -0.0120  0.1100
10245TIP3    H252151   0.858   0.856  16.530 -0.7830 -0.4118  0.2160
10246TIP3   OH252152   0.076   3.959   6.307  0.2219  0.3825 -0.0181
10246TIP3    H152153  -0.016   3.953   6.331  0.2856  1.5427  0.6244
10246TIP3    H252154   0.117   4.005   6.381  1.4921 -0.9372  0.1411
10247TIP3   OH252155   3.830   2.912   1.401 -0.1644  0.2378 -0.6596
10247TIP3    H152156   3.783   2.971   1.341  0.4318  1.0915 -0.2986
10247TIP3    H252157   3.922   2.928   1.382  0.0165 -1.5949 -1.5157
10248TIP3   OH252158   1.355   0.316   0.202 -0.1132  0.0355  0.5037
10248TIP3    H152159   1.340   0.393   0.257 -2.1006 -0.2094  0.3710
10248TIP3    H252160   1.389   0.250   0.262  0.6738  0.6916  0.8071
10249TIP3   OH252161   3.966   3.414  16.084 -0.1149 -0.2599 -0.6021
10249TIP3    H152162   4.034   3.356  16.052  0.8262 -0.1774  1.1253
10249TIP3    H252163   3.949   3.475  16.012  3.5160  1.3744 -0.2865
10250TIP3   OH252164   2.959   2.614   1.448  0.1342  0.1277  0.2459
10250TIP3    H152165   2.885   2.675   1.444 -0.1934 -0.2069  1.0092
10250TIP3    H252166   3.030   2.664   1.488 -0.5888 -0.4102  2.2835
10251TIP3   OH252167   4.561   6.528   4.305 -0.4437 -0.0362 -0.1429
10251TIP3    H152168   4.544   6.621   4.292  3.2963  0.8905  0.4278
10251TIP3    H252169   4.601   6.500   4.223 -2.9883 -1.6827 -0.9370
10252TIP3   OH252170   6.039   5.272   3.188  0.1672  0.0727 -0.1119
10252TIP3    H152171   6.003   5.188   3.215  2.2858 -0.8088  0.1745
10252TIP3    H252172   6.024   5.330   3.263 -1.1078 -0.0964 -0.2221
10253TIP3   OH252173   1.004   2.249  12.912  0.4327  0.4503 -0.0386
10253TIP3    H152174   1.095   2.224  12.897  0.6810 -0.8373  3.0385
10253TIP3    H252175   1.005   2.345  12.913  1.4987  0.4743 -1.1599
10254TIP3   OH252176   4.392   4.417  13.778  0.6691 -0.1509  0.0603
10254TIP3    H152177   4.327   4.346  13.776 -0.2900  0.6954  0.3098
10254TIP3    H252178   4.341   4.496  13.796  1.7167  0.6166 -0.2362
10255TIP3   OH252179   3.243   0.976   1.359  0.4099 -0.5487  0.0005
10255TIP3    H152180   3.219   0.939   1.274  1.3844  0.7903 -0.9175
10255TIP3    H252181   3.290   0.906   1.403  0.8993 -0.9186 -1.0587
10256TIP3   OH252182   1.090   3.266   4.565  0.5566  0.0388 -0.0052
10256TIP3    H152183   1.012   3.272   4.620  0.9247 -1.2255  0.7058
10256TIP3    H252184   1.068   3.202   4.498  0.7772  0.1287 -0.1646
10257TIP3   OH252185   4.109   0.815  15.157  0.2365  0.1540  0.3946
10257TIP3    H152186   4.101   0.763  15.237  1.8621  1.0004  1.1447
10257TIP3    H252187   4.022   0.810  15.116 -0.6187 -0.2972  2.2001
10258TIP3   OH252188   1.489   2.048  13.900 -0.1522 -0.1508  0.4057
10258TIP3    H152189   1.515   2.139  13.910 -0.6506  0.0949 -0.4001
10258TIP3    H252190   1.394   2.049  13.912 -0.2381 -0.4578 -0.1851
10259TIP3   OH252191   5.429   6.478  12.816  0.1346 -0.5866  0.1461
10259TIP3    H152192   5.448   6.543  12.749  1.6334 -0.4143  0.7002
10259TIP3    H252193   5.493   6.408  12.801  0.4488 -0.5805  1.3266
10260TIP3   OH252194   6.090   0.295  15.650  1.0110  0.2841  0.2440
10260TIP3    H152195   6.073   0.386  15.626  0.6497  0.1770  0.0854
10260TIP3    H252196   6.094   0.295  15.745 -2.2574 -0.0600  0.4727
10261TIP3   OH252197   6.798   1.143  12.710  0.3956  0.2274 -0.7135
10261TIP3    H152198   6.755   1.072  12.757  1.6587 -0.0796  0.0166
10261TIP3    H252199   6.728   1.184  12.660 -1.1948  0.9785  1.9261
10262TIP3   OH252200   1.518   6.157  13.616 -0.1193  0.0566  0.0998
10262TIP3    H152201   1.560   6.232  13.658 -0.7474  0.0644  0.7509
10262TIP3    H252202   1.429   6.157  13.652 -0.6868  0.0630 -1.2595
10263TIP3   OH252203   6.005   2.319  11.483 -0.0034  0.0840  0.3882
10263TIP3    H152204   6.085   2.279  11.449 -0.6964  0.0663 -1.3066
10263TIP3    H252205   6.027   2.344  11.573  1.6489 -0.6213  0.2128
10264TIP3   OH252206   6.546   0.472  14.551  0.3963 -0.6720  0.0158
10264TIP3    H152207   6.612   0.417  14.593  0.7147 -1.8098 -1.8502
10264TIP3    H252208   6.594   0.525  14.487 -0.3503 -0.8319 -0.7040
10265TIP3   OH252209   5.542   5.881  12.206  0.5350 -0.1152  0.2580
10265TIP3    H152210   5.563   5.924  12.123 -0.8836  0.2512  0.0645
10265TIP3    H252211   5.488   5.806  12.182 -3.0225  1.9842  0.9625
10266TIP3   OH252212   0.397   3.398   0.082 -0.3103 -0.3703  0.2501
10266TIP3    H152213   0.459   3.470   0.070 -0.8147  0.1711  0.8622
10266TIP3    H252214   0.451   3.319   0.074  0.2033  0.0504 -0.7122
10267TIP3   OH252215   3.448   1.015  15.275  0.0241 -0.4245  0.0199
10267TIP3    H152216   3.473   1.022  15.367  0.9109  1.1589 -0.2917
10267TIP3    H252217   3.355   1.039  15.274 -0.0334 -0.6094  0.5128
10268TIP3   OH252218   6.422   5.833   4.211 -0.1615 -0.1165  0.0850
10268TIP3    H152219   6.405   5.791   4.126 -0.3365  2.2256 -1.1321
10268TIP3    H252220   6.336   5.839   4.253 -0.0145 -1.6497  0.6398
10269TIP3   OH252221   6.409   5.047   3.625 -0.4170  0.4309  0.0324
10269TIP3    H152222   6.322   5.084   3.642 -1.1001 -0.4318 -1.3743
10269TIP3    H252223   6.428   4.993   3.701 -1.2517  0.3913  0.2245
10270TIP3   OH252224   4.679   0.660  16.531 -0.2511 -0.5825 -0.6316
10270TIP3    H152225   4.652   0.590  16.590 -0.4200 -0.7911 -0.9528
10270TIP3    H252226   4.616   0.657  16.459  0.4591 -0.9032 -1.2599
10271TIP3   OH252227   2.013   5.913  16.170  0.1707 -0.4438 -0.3488
10271TIP3    H152228   1.989   6.001  16.201  2.2065 -0.2682  0.9413
10271TIP3    H252229   2.106   5.920  16.150  0.1274 -2.0623 -1.2435
10272TIP3   OH252230   4.259   5.698  12.400 -0.5948 -0.2183  0.0059
10272TIP3    H152231   4.260   5.676  12.493 -0.4618 -0.5039 -0.0630
10272TIP3    H252232   4.167   5.706  12.377 -0.6247  1.4851  0.5461
10273TIP3   OH252233   5.503   2.207  12.209  0.1800  0.1111  0.7813
10273TIP3    H152234   5.513   2.277  12.273  0.5250 -0.9421  1.9200
10273TIP3    H252235   5.417   2.223  12.168  0.5134  1.5045  0.6018
10274TIP3   OH252236   2.726   3.225  14.541 -0.0618  0.0973 -0.3625
10274TIP3    H152237   2.646   3.180  14.512  0.1217 -0.9119  0.6115
10274TIP3    H252238   2.702   3.317  14.541 -0.8454 -0.0831 -1.2478
10275TIP3   OH252239   4.557   0.329   0.421  0.1642 -0.3193 -0.1660
10275TIP3    H152240   4.623   0.320   0.353  1.1815 -1.3729  0.9075
10275TIP3    H252241   4.557   0.245   0.466 -0.6420  0.2693  0.9993
10276TIP3   OH252242   0.783   6.603   5.196  0.0667  0.4267  0.5897
10276TIP3    H152243   0.825   6.611   5.110 -0.7715  0.7569  0.1932
10276TIP3    H252244   0.779   6.508   5.212  0.2541  0.3630  0.2759
10277TIP3   OH252245   3.361   5.784  12.349  0.1125 -0.4271  0.2373
10277TIP3    H152246   3.383   5.804  12.440 -0.6941 -0.1104  0.3679
10277TIP3    H252247   3.390   5.861  12.300  1.6320 -1.0869  0.0500
10278TIP3   OH252248   0.076   6.466  16.703 -0.5226  0.3713  0.7220
10278TIP3    H152249   0.131   6.479  16.781  1.6140  2.1235 -0.9514
10278TIP3    H252250   0.125   6.404  16.649 -1.7033 -0.3805  0.4784
10279TIP3   OH252251   2.699   3.371   4.765 -0.4406 -0.5291  0.2638
10279TIP3    H152252   2.747   3.305   4.715  0.6918  0.7911 -0.4739
10279TIP3    H252253   2.617   3.328   4.791 -0.2843 -1.8044 -1.2486
10280TIP3   OH252254   1.762   4.017  14.246 -0.4588 -0.2569 -0.3714
10280TIP3    H152255   1.713   3.946  14.287  1.6969 -0.1230  2.7874
10280TIP3    H252256   1.720   4.097  14.276  0.5396 -0.1738  0.8863
10281TIP3   OH252257   0.114   2.006  15.472 -0.3983  0.7426  0.5583
10281TIP3    H152258   0.175   1.999  15.399  2.0827  1.3724  2.4483
10281TIP3    H252259   0.154   2.069  15.531 -1.4428 -0.9157  3.2245
10282TIP3   OH252260   3.152   3.697  12.974 -0.1365  0.2359  0.2110
10282TIP3    H152261   3.193   3.781  12.996  1.3410 -0.1809 -0.7862
10282TIP3    H252262   3.156   3.646  13.055  0.6926  0.4717  0.3284
10283TIP3   OH252263   4.598   6.333   6.108  0.1284 -0.5605  0.2434
10283TIP3    H152264   4.580   6.302   6.019 -1.8469  0.0456  0.3773
10283TIP3    H252265   4.586   6.255   6.163 -4.4733  0.0327  0.5374
10284TIP3   OH252266   6.476   1.429   0.768  0.2722  0.2258 -0.0135
10284TIP3    H152267   6.419   1.354   0.749 -1.5058  1.5182 -0.0029
10284TIP3    H252268   6.422   1.506   0.749  2.5953  1.5657 -1.7418
10285TIP3   OH252269   4.035   1.599  15.344 -0.1790  0.0569  0.1255
10285TIP3    H152270   4.072   1.588  15.431  0.1191  3.2255  0.5447
10285TIP3    H252271   4.055   1.518  15.298  0.8167 -1.1853  2.5910
10286TIP3   OH252272   3.018   3.548   1.642 -0.1384 -0.4012 -0.0702
10286TIP3    H152273   3.044   3.469   1.595  1.0410 -1.4729  2.2279
10286TIP3    H252274   3.097   3.577   1.687 -0.7888  1.5471 -0.0965
10287TIP3   OH252275   2.938   6.411   3.921 -0.0353 -0.2309  0.1588
10287TIP3    H152276   2.917   6.404   3.828  0.0548 -2.3529  0.2436
10287TIP3    H252277   2.874   6.474   3.955 -0.5693 -0.0137 -1.1859
10288TIP3   OH252278   0.198   1.996  13.511 -0.4935 -0.4120 -0.2579
10288TIP3    H152279   0.278   1.969  13.466  0.0468  1.1009 -0.2727
10288TIP3    H252280   0.128   1.980  13.448  0.1337  0.7728 -1.3124
10289TIP3   OH252281   3.220   5.508  12.226  0.3784 -0.5357 -0.9771
10289TIP3    H152282   3.303   5.551  12.246  0.5005 -1.6877  1.2707
10289TIP3    H252283   3.153   5.571  12.255  0.5453 -0.9404  0.3888
10290TIP3   OH252284   0.464   0.544   2.917  0.0784  0.1664 -0.0775
10290TIP3    H152285   0.492   0.486   2.988  0.2119 -0.6284 -0.7707
10290TIP3    H252286   0.376   0.513   2.895  0.5900 -0.5217 -1.2157
10291TIP3   OH252287   5.554   0.476   4.893 -0.3557 -0.0223  0.2946
10291TIP3    H152288   5.506   0.427   4.960  0.3575 -1.3905 -0.1573
10291TIP3    H252289   5.519   0.443   4.810  0.1412  0.2202 -0.0170
10292TIP3   OH252290   1.638   6.201   3.592  0.1013 -0.1731  0.1760
10292TIP3    H152291   1.559   6.162   3.555 -0.3772  0.0074  0.9687
10292TIP3    H252292   1.629   6.188   3.686  1.6319 -1.2744  0.2004
10293TIP3   OH252293   4.817   3.653  15.700  0.8083  0.4794  0.2350
10293TIP3    H152294   4.884   3.711  15.662  0.4040  1.0901  0.4357
10293TIP3    H252295   4.858   3.620  15.780  1.8596 -1.2159 -0.9520
10294TIP3   OH252296   3.658   6.599   5.997  0.2114  0.7487  0.0035
10294TIP3    H152297   3.583   6.631   5.947  1.6979  2.7131 -1.0719
10294TIP3    H252298   3.704   6.678   6.025  1.5421 -0.3973  1.1974
10295TIP3   OH252299   5.967   6.250   3.431 -0.1815  0.3711  0.3865
10295TIP3    H152300   5.888   6.273   3.480 -0.6092  0.6531 -0.4137
10295TIP3    H252301   6.036   6.247   3.497 -1.1412 -1.5384  1.3766
10296TIP3   OH252302   2.746   4.535   4.853  0.4911 -0.1616 -0.1882
10296TIP3    H152303   2.671   4.565   4.802  1.4958  0.7256 -1.1811
10296TIP3    H252304   2.722   4.446   4.879 -0.9988  0.1812 -0.2645
10297TIP3   OH252305   2.283   6.694  14.001 -0.7138  0.1395 -0.0513
10297TIP3    H152306   2.235   6.752  14.059 -0.6271  0.2719 -0.1103
10297TIP3    H252307   2.239   6.610  14.009  0.8443 -0.5427  2.1621
10298TIP3   OH252308   6.426   6.687   5.476 -0.1103  0.2862  0.3599
10298TIP3    H152309   6.496   6.733   5.521  0.9560  0.4352 -1.3429
10298TIP3    H252310   6.355   6.682   5.540  0.5888  2.2066  1.3725
10299TIP3   OH252311   0.715   0.423   0.634  0.2743 -0.0730 -0.1147
10299TIP3    H152312   0.733   0.408   0.541  1.3344  0.8473 -0.0841
10299TIP3    H252313   0.748   0.512   0.650 -0.7667  0.1378  0.9261
10300TIP3   OH252314   0.021   1.028  10.727  0.2325  0.7315 -0.0475
10300TIP3    H152315   0.065   0.966  10.669  0.7130  0.9660  0.0607
10300TIP3    H252316  -0.059   1.051  10.680 -0.0684 -0.1328  0.0074
10301TIP3   OH252317   2.689   6.173  16.260  0.2321 -0.5232 -0.1633
10301TIP3    H152318   2.665   6.092  16.304 -1.0031 -0.6769 -1.0543
10301TIP3    H252319   2.732   6.145  16.179 -2.6081 -0.4315 -1.8268
10302TIP3   OH252320   5.784   5.004   4.337  0.1083  0.0427  0.3283
10302TIP3    H152321   5.861   4.948   4.324 -0.0703 -0.2878  0.6913
10302TIP3    H252322   5.729   4.956   4.398 -0.1662  0.5023  0.4482
10303TIP3   OH252323   5.064   0.932   4.710 -0.0115 -0.0837  0.4758
10303TIP3    H152324   5.142   0.987   4.724  0.3539 -0.2994 -0.6147
10303TIP3    H252325   5.078   0.856   4.766  0.2352  0.1963  0.8014
10304TIP3   OH252326   0.914   4.770   6.125  0.1780  0.0216 -0.3454
10304TIP3    H152327   0.897   4.864   6.116 -1.0861 -0.2758 -1.2798
10304TIP3    H252328   0.874   4.747   6.209  0.8272  0.3747  0.0720
10305TIP3   OH252329   1.125   2.198   2.037  0.2583 -0.2906 -0.1586
10305TIP3    H152330   1.095   2.114   2.002 -1.8082  0.5536 -0.5663
10305TIP3    H252331   1.071   2.263   1.993 -1.9919  0.9278  3.8590
10306TIP3   OH252332   6.688   6.601  15.529 -0.9204 -0.1874 -0.1878
10306TIP3    H152333   6.601   6.637  15.515 -0.7809 -0.2145 -1.1675
10306TIP3    H252334   6.697   6.597  15.624 -1.6944  0.5190 -0.0759
10307TIP3   OH252335   2.575   1.373  14.495 -0.7166  0.1910 -0.1156
10307TIP3    H152336   2.604   1.332  14.414  0.1937  2.4322 -1.0221
10307TIP3    H252337   2.611   1.318  14.565  0.5537 -0.4619 -1.2377
10308TIP3   OH252338   5.942   2.971  11.091  0.3023 -0.4529  0.2504
10308TIP3    H152339   5.982   3.058  11.099  1.5296 -0.9170 -0.4659
10308TIP3    H252340   5.850   2.988  11.072  0.6375  0.7210 -0.4435
10309TIP3   OH252341   3.580   0.903   5.060  0.7901 -0.0864 -0.1620
10309TIP3    H152342   3.536   0.868   4.982  1.6825 -1.2118 -0.2021
10309TIP3    H252343   3.515   0.957   5.103  0.1853  0.3237 -1.5444
10310TIP3   OH252344   0.930   2.372   3.538 -0.1135 -0.1354  0.0470
10310TIP3    H152345   1.019   2.349   3.511 -0.2460 -3.2092  1.8450
10310TIP3    H252346   0.875   2.301   3.504 -1.1852 -0.6639  2.6488
10311TIP3   OH252347   3.386   2.405   3.304 -0.4777  0.4778 -0.5338
10311TIP3    H152348   3.428   2.419   3.219  2.3826 -0.6612  0.5736
10311TIP3    H252349   3.448   2.441   3.368 -2.3555  0.9202  1.1266
10312TIP3   OH252350   6.259   5.956   2.856  0.3204 -0.4318 -0.2572
10312TIP3    H152351   6.276   6.045   2.827 -0.8160 -0.0457  0.1935
10312TIP3    H252352   6.323   5.903   2.810  1.5293  0.7076  0.0629
10313TIP3   OH252353   4.495   5.026   4.013 -0.1876  0.1399 -0.2358
10313TIP3    H152354   4.560   4.957   4.025 -0.2591  0.1529  0.2136
10313TIP3    H252355   4.478   5.060   4.101  0.4789  1.3101 -0.5384
10314TIP3   OH252356   4.421   4.829  12.256  0.7387 -0.0430  0.4745
10314TIP3    H152357   4.376   4.873  12.328  0.6918  0.9814 -0.1628
10314TIP3    H252358   4.413   4.889  12.182 -0.3263 -1.6067 -0.7764
10315TIP3   OH252359   1.635   1.555  12.396 -0.1731  0.2934 -0.2746
10315TIP3    H152360   1.612   1.490  12.329 -0.1020 -0.9702  0.8913
10315TIP3    H252361   1.551   1.589  12.426 -0.1990  1.0438 -1.1474
10316TIP3   OH252362   1.796   0.161   5.543 -0.6992  0.2487  0.2398
10316TIP3    H152363   1.874   0.125   5.586 -0.5663  0.9427  0.5976
10316TIP3    H252364   1.748   0.084   5.513  0.1122 -0.1896  0.0347
10317TIP3   OH252365   0.255   4.562  17.114 -0.2617 -0.1163  0.2672
10317TIP3    H152366   0.342   4.593  17.090  0.6129 -2.0237  0.7658
10317TIP3    H252367   0.242   4.595  17.203 -1.3790  2.6848 -0.8280
10318TIP3   OH252368   4.968   3.047  11.241 -0.5558  0.4900  0.1313
10318TIP3    H152369   4.928   3.105  11.305 -0.4752 -0.1094  0.7299
10318TIP3    H252370   5.051   3.020  11.280 -0.9736 -0.7072  0.2492
10319TIP3   OH252371   0.365   6.422   6.114 -0.3467  0.4575 -0.0890
10319TIP3    H152372   0.387   6.397   6.203 -0.4749  0.8706  0.0596
10319TIP3    H252373   0.378   6.517   6.111 -0.3427  0.4471 -0.5083
10320TIP3   OH252374   2.875   1.685  14.963 -0.6409  0.1562  0.1289
10320TIP3    H152375   2.927   1.631  15.024 -0.0861 -1.4522 -1.6576
10320TIP3    H252376   2.807   1.626  14.931 -1.6520  1.3279  0.0498
10321TIP3   OH252377   4.206   3.879  13.307  0.0872 -0.1083  0.0903
10321TIP3    H152378   4.118   3.876  13.269  0.3219 -2.2562 -0.4355
10321TIP3    H252379   4.195   3.924  13.390 -1.8081 -1.5477  0.6933
10322TIP3   OH252380   3.063   2.330   0.518  0.4824  0.4940 -0.1512
10322TIP3    H152381   3.073   2.260   0.454  0.1899 -1.0388  1.4250
10322TIP3    H252382   3.078   2.410   0.468 -0.2684 -0.6035 -2.2493
10323TIP3   OH252383   1.804   0.963  12.929 -0.2372 -0.2057 -0.1662
10323TIP3    H152384   1.713   0.934  12.936  0.0569 -0.9929  0.4894
10323TIP3    H252385   1.806   1.047  12.975 -1.0773  0.9082 -2.0224
10324TIP3   OH252386   5.158   3.296   3.539 -0.8160  0.0557 -0.3081
10324TIP3    H152387   5.232   3.292   3.600 -0.0944  0.2877 -1.1549
10324TIP3    H252388   5.134   3.204   3.526 -2.5450  0.0691  2.1568
10325TIP3   OH252389   5.926   5.162  11.359 -0.2226 -0.2659 -0.2015
10325TIP3    H152390   5.895   5.116  11.281 -0.8745 -2.5680  1.3071
10325TIP3    H252391   5.849   5.208  11.393 -0.5543 -1.1712  0.3162
10326TIP3   OH252392   5.819   0.449  11.727 -0.1956  0.4228 -0.2511
10326TIP3    H152393   5.817   0.359  11.694  0.3384  0.7062 -1.0834
10326TIP3    H252394   5.782   0.442  11.816  0.3486 -0.6983 -0.0896
10327TIP3   OH252395   3.193   3.612  13.924 -0.4811  0.2841 -0.1054
10327TIP3    H152396   3.150   3.651  13.848 -0.2604  0.2860 -0.2297
10327TIP3    H252397   3.141   3.643  13.999 -0.3191  0.8056 -0.2023
10328TIP3   OH252398   4.121   5.611   1.162 -0.4503 -0.2822  0.5643
10328TIP3    H152399   4.128   5.518   1.140 -1.6461 -0.2592  0.0368
10328TIP3    H252400   4.032   5.635   1.137 -0.1870  0.9839  0.7982
10329TIP3   OH252401   4.971   1.216  12.535  0.2848  0.1581  0.5900
10329TIP3    H152402   4.921   1.266  12.599 -1.5381 -0.0593 -0.5998
10329TIP3    H252403   4.935   1.243  12.450  1.2147 -1.0865 -0.2399
10330TIP3   OH252404   2.738   6.545   1.333 -0.6035  0.3402  0.0175
10330TIP3    H152405   2.788   6.467   1.360 -0.5974 -0.0126 -0.9555
10330TIP3    H252406   2.788   6.619   1.367 -0.3910 -0.0736  0.6151
10331TIP3   OH252407   3.541   0.033   2.848 -0.0185 -0.0942  0.0374
10331TIP3    H152408   3.511  -0.043   2.897  2.7517 -0.5408  1.1946
10331TIP3    H252409   3.487   0.105   2.881  1.0042 -0.5732  3.0666
10332TIP3   OH252410   4.608   0.436  11.989  0.5304  0.0542  0.3602
10332TIP3    H152411   4.563   0.463  12.068 -0.4911 -2.7117  0.8408
10332TIP3    H252412   4.538   0.412  11.928  1.2697 -1.9777  0.2262
10333TIP3   OH252413   1.498   3.151   0.183  0.3709  0.2669 -0.4333
10333TIP3    H152414   1.445   3.199   0.120  0.5678  0.5326 -0.3973
10333TIP3    H252415   1.570   3.114   0.132  0.4016  0.2876 -0.4057
10334TIP3   OH252416   2.305   2.644  14.696 -0.7865  0.0457  0.0218
10334TIP3    H152417   2.286   2.576  14.761 -0.2703 -0.0774  0.0523
10334TIP3    H252418   2.322   2.595  14.615 -0.4835  0.1432  0.0258
10335TIP3   OH252419   0.692   1.771  14.743 -0.1607 -0.0820  0.1132
10335TIP3    H152420   0.649   1.762  14.658 -0.3648 -2.6710  0.4057
10335TIP3    H252421   0.703   1.681  14.774  2.0239  0.6739  1.8007
10336TIP3   OH252422   3.767   5.352  13.282  0.0365 -0.2981  0.2453
10336TIP3    H152423   3.754   5.438  13.322 -0.4042 -0.2398 -0.0205
10336TIP3    H252424   3.785   5.371  13.190 -1.6321 -0.5552 -0.1614
10337TIP3   OH252425   1.820   6.266  12.445  0.3738 -0.4104  0.2469
10337TIP3    H152426   1.755   6.197  12.458 -1.9602  1.6968  0.4078
10337TIP3    H252427   1.771   6.339  12.407  2.0863  2.1661  2.5635
10338TIP3   OH252428   5.755   2.373   4.416  0.4105  0.1203  0.4988
10338TIP3    H152429   5.690   2.369   4.346 -1.6631  1.0599  2.2453
10338TIP3    H252430   5.706   2.403   4.493  2.6834 -0.2872  2.2323
10339TIP3   OH252431   4.613   2.145   4.566 -0.3783 -0.1953 -0.0622
10339TIP3    H152432   4.637   2.232   4.597 -1.3404  0.8946 -2.2410
10339TIP3    H252433   4.517   2.143   4.571 -0.3533 -1.2757  0.2696
10340TIP3   OH252434   0.966   3.612  11.478  0.1446 -0.0462  0.2005
10340TIP3    H152435   1.000   3.684  11.425 -1.4806 -0.2010 -1.1135
10340TIP3    H252436   0.999   3.630  11.566  1.0533  1.4497 -0.4027
10341TIP3   OH252437   5.990   4.072   0.911 -0.2112 -0.0250 -0.0682
10341TIP3    H152438   5.966   4.164   0.913 -4.2908 -0.8781  1.0727
10341TIP3    H252439   6.001   4.051   0.818 -3.5225  0.8513 -0.7979
10342TIP3   OH252440   4.491   1.805  14.899 -0.1526 -0.2328  0.2347
10342TIP3    H152441   4.447   1.736  14.948 -1.6115 -0.0519 -0.7315
10342TIP3    H252442   4.453   1.799  14.811  0.3351  1.2203 -0.0990
10343TIP3   OH252443   2.338   2.087   5.685 -0.3530  0.5343 -0.2480
10343TIP3    H152444   2.388   2.038   5.620 -2.4900 -2.1378 -0.0784
10343TIP3    H252445   2.249   2.091   5.649 -1.2231  0.4194  1.7519
10344TIP3   OH252446   3.614   3.485   4.327 -0.8941  0.3423 -0.0873
10344TIP3    H152447   3.666   3.482   4.407  0.0981  1.3582 -0.6657
10344TIP3    H252448   3.675   3.517   4.260 -1.6818 -0.5433 -1.2692
10345TIP3   OH252449   6.067   3.429  14.341 -0.0935 -0.3021  0.3173
10345TIP3    H152450   6.032   3.344  14.368 -1.2701 -0.6468 -2.0426
10345TIP3    H252451   6.060   3.484  14.419 -0.8751 -1.9138  1.4314
10346TIP3   OH252452   0.234   6.560   4.553 -0.3283  0.1091 -0.0397
10346TIP3    H152453   0.219   6.648   4.588 -1.8531  0.6481 -1.8922
10346TIP3    H252454   0.297   6.573   4.482  0.0889 -0.4436  0.2223
10347TIP3   OH252455   1.758   4.154   3.568  0.0554 -0.8573  0.1123
10347TIP3    H152456   1.677   4.132   3.522  1.5702 -1.5646 -2.3648
10347TIP3    H252457   1.786   4.237   3.529  0.6846 -0.7472  0.7721
10348TIP3   OH252458   5.147   6.328  13.788  0.1929 -0.5527 -0.0813
10348TIP3    H152459   5.171   6.395  13.852  1.0596 -0.5111 -0.4247
10348TIP3    H252460   5.053   6.340  13.774  0.1408 -0.0737  0.6141
10349TIP3   OH252461   3.737   4.088   3.439 -0.8798  0.2458 -0.6294
10349TIP3    H152462   3.702   4.001   3.458  0.1317 -0.0990 -0.2719
10349TIP3    H252463   3.752   4.087   3.344 -0.0486 -0.3111 -0.5119
10350TIP3   OH252464   1.403   2.448  14.219  0.0836 -0.2589 -0.1068
10350TIP3    H152465   1.436   2.508  14.286  1.1548  0.9952 -1.6933
10350TIP3    H252466   1.391   2.502  14.141  0.9218 -2.0594 -1.5655
10351TIP3   OH252467   4.048   4.068  14.274  0.1247  0.5442 -0.1297
10351TIP3    H152468   4.110   4.136  14.299  1.4533  0.0908 -1.9907
10351TIP3    H252469   4.085   3.988  14.312  1.8809 -0.0636 -2.8551
10352TIP3   OH252470   6.096   6.683   0.396 -0.4309 -0.2378 -0.2461
10352TIP3    H152471   6.149   6.746   0.347 -0.2085  0.5701  0.9883
10352TIP3    H252472   6.057   6.734   0.467 -1.5467 -1.1667 -0.1525
10353TIP3   OH252473   5.234   2.222  12.088  0.3409 -0.4402 -0.3558
10353TIP3    H152474   5.141   2.240  12.082  0.5221  2.9943  3.1080
10353TIP3    H252475   5.240   2.126  12.088 -3.1284 -0.7839 -0.6489
10354TIP3   OH252476   4.504   5.750  13.417 -0.5150  0.2221  0.7721
10354TIP3    H152477   4.507   5.772  13.324 -0.6017  0.2369  0.7726
10354TIP3    H252478   4.586   5.703  13.434 -1.5898 -1.9835  0.1380
10355TIP3   OH252479   0.841   1.012   5.897  0.1254  1.3061 -0.0238
10355TIP3    H152480   0.898   0.955   5.846 -1.8692 -1.0708  0.1961
10355TIP3    H252481   0.860   0.991   5.988  0.3559  2.0536  0.1066
10356TIP3   OH252482   0.279   4.033   5.888 -0.5247  0.2101 -0.1242
10356TIP3    H152483   0.235   3.996   5.965 -0.3518  2.7804  1.3270
10356TIP3    H252484   0.371   4.011   5.900 -0.1681  2.3622  1.6118
10357TIP3   OH252485   3.531   5.596   1.183  0.3917  0.3631 -0.4361
10357TIP3    H152486   3.586   5.639   1.248  1.3834 -1.0028 -0.3304
10357TIP3    H252487   3.451   5.574   1.231  0.9664 -0.3027  0.2499
10358TIP3   OH252488   5.411   5.212   5.321  0.3870 -0.2921 -0.3439
10358TIP3    H152489   5.502   5.217   5.351  0.2453 -1.2946  0.3302
10358TIP3    H252490   5.363   5.180   5.398 -0.2011 -1.7008 -1.2641
10359TIP3   OH252491   4.563   3.530  14.626 -0.1617 -0.2792 -0.5259
10359TIP3    H152492   4.555   3.612  14.674  1.6173  1.5900 -3.1795
10359TIP3    H252493   4.621   3.476  14.681 -0.9884  0.3636  1.0349
10360TIP3   OH252494   6.555   5.780   0.164  0.0926  0.8787  0.3103
10360TIP3    H152495   6.593   5.824   0.240  1.8611 -0.4333  0.2388
10360TIP3    H252496   6.531   5.693   0.197  0.0560  0.6120 -0.4100
10361TIP3   OH252497   4.792   1.790   1.468 -0.1548 -0.2656  0.0776
10361TIP3    H152498   4.736   1.839   1.528 -1.5794 -1.1000 -0.5454
10361TIP3    H252499   4.798   1.702   1.507 -0.3746 -0.5619 -0.5587
10362TIP3   OH252500   2.658   3.520  10.583  0.0257  0.0391  0.2902
10362TIP3    H152501   2.636   3.435  10.544  1.5187 -0.7267  1.0716
10362TIP3    H252502   2.681   3.500  10.673 -1.2945  1.5261  1.0125
10363TIP3   OH252503   6.441   6.521   4.890  0.6125 -0.4729  0.3233
10363TIP3    H152504   6.517   6.465   4.876  0.3385 -0.6944 -0.3503
10363TIP3    H252505   6.437   6.535   4.984  0.2719 -2.1903  0.6010
10364TIP3   OH252506   3.483   0.648   3.011 -0.1590  0.7208  0.2923
10364TIP3    H152507   3.518   0.705   2.942 -0.2177 -0.3715 -0.6742
10364TIP3    H252508   3.559   0.601   3.044  0.0499  2.0454  1.7950
10365TIP3   OH252509   4.989   6.005  16.094 -0.4379 -0.1677 -0.4413
10365TIP3    H152510   5.028   6.067  16.032  0.2033  0.6575  0.7375
10365TIP3    H252511   4.951   6.061  16.162  0.5966 -1.0542  0.9131
10366TIP3   OH252512   6.603   0.002  13.813 -0.8015 -0.6520  0.0587
10366TIP3    H152513   6.696   0.023  13.808 -1.2766  1.6087 -0.2070
10366TIP3    H252514   6.601  -0.092  13.835  1.5198 -0.5540  0.9975
10367TIP3   OH252515   6.093   0.724  12.258 -0.0661 -0.2873 -0.1486
10367TIP3    H152516   6.180   0.756  12.281  0.9795 -3.7596  1.4329
10367TIP3    H252517   6.093   0.721  12.162  1.0368  0.8787 -0.2189
10368TIP3   OH252518   3.453   1.492   5.572 -0.1162  0.1838  0.2747
10368TIP3    H152519   3.361   1.464   5.575  0.0004 -0.1767  0.6687
10368TIP3    H252520   3.458   1.549   5.496 -0.5011 -0.3947 -0.1956
10369TIP3   OH252521   5.964   3.953   5.963  0.6443  0.1965 -0.4534
10369TIP3    H152522   6.020   4.015   6.009  0.6279  1.1604 -1.6681
10369TIP3    H252523   6.025   3.889   5.926  0.8201  0.4412 -0.5912
10370TIP3   OH252524   6.707   2.631  12.940  0.6108 -0.0848 -0.1788
10370TIP3    H152525   6.616   2.658  12.949  0.7124  0.7449 -1.3136
10370TIP3    H252526   6.709   2.540  12.967 -0.2445  0.3342  1.3728
10371TIP3   OH252527   3.478   0.761  14.417  0.5469 -0.3633 -0.1503
10371TIP3    H152528   3.507   0.838  14.370  1.1348 -1.2984 -1.3762
10371TIP3    H252529   3.533   0.759  14.496  0.3031  0.6211  0.0572
10372TIP3   OH252530   0.463   2.032  14.180  0.0794  0.3742 -0.0998
10372TIP3    H152531   0.544   2.051  14.133 -0.3165 -1.5632 -1.7645
10372TIP3    H252532   0.480   2.058  14.270  1.6367  2.3379 -0.8932
10373TIP3   OH252533   0.360   3.748  11.590 -0.4926 -0.1765  0.5520
10373TIP3    H152534   0.283   3.763  11.536  0.6907  2.3936 -0.6133
10373TIP3    H252535   0.434   3.770  11.534  1.1314 -2.3045  1.7017
10374TIP3   OH252536   6.062   4.210   4.283  0.1368 -0.3146  0.2600
10374TIP3    H152537   5.990   4.272   4.290 -0.3520 -0.6983 -1.0479
10374TIP3    H252538   6.141   4.263   4.295 -0.2851  0.5314 -0.5740
10375TIP3   OH252539   3.390   6.162  16.815 -0.1653 -0.6694 -0.1584
10375TIP3    H152540   3.471   6.192  16.857  0.2812 -1.6412 -0.2898
10375TIP3    H252541   3.399   6.188  16.724  0.2149 -1.1750 -0.2709
10376TIP3   OH252542   0.600   1.855   4.351 -0.2777  0.2749 -0.5065
10376TIP3    H152543   0.598   1.771   4.304  1.4091  1.0893 -2.1442
10376TIP3    H252544   0.581   1.832   4.442  0.8403 -1.9976 -0.7831
10377TIP3   OH252545   5.605   6.470   1.147  0.9224  0.3761 -0.3298
10377TIP3    H152546   5.548   6.409   1.196  0.4682  0.8834 -0.2111
10377TIP3    H252547   5.617   6.544   1.207  1.5791  0.3475 -0.4218
10378TIP3   OH252548   5.561   4.914  14.052 -0.6334 -0.2340  0.0129
10378TIP3    H152549   5.601   4.917  14.139 -1.0036 -1.9650  0.2673
10378TIP3    H252550   5.635   4.915  13.991 -0.3751  1.0381  0.3137
10379TIP3   OH252551   4.505   3.637   1.667 -0.0765  0.1598  0.6541
10379TIP3    H152552   4.533   3.727   1.681 -0.9883  0.4809  0.4213
10379TIP3    H252553   4.537   3.589   1.743  1.3291  0.4594  0.2852
10380TIP3   OH252554   6.751   5.346   5.535 -0.1160 -0.3024 -0.1395
10380TIP3    H152555   6.727   5.303   5.618 -2.2028  0.8455 -0.0773
10380TIP3    H252556   6.684   5.317   5.473  0.8392 -0.3410 -1.1766
10381TIP3   OH252557   4.338   1.258   0.701 -0.0662  0.1492 -0.1045
10381TIP3    H152558   4.339   1.214   0.616 -2.7583 -1.6018  0.6086
10381TIP3    H252559   4.362   1.189   0.764 -1.2163  0.5065  0.7700
10382TIP3   OH252560   4.492   3.768   3.497  0.2408  0.4858  0.1212
10382TIP3    H152561   4.495   3.854   3.538 -1.1939  0.6557 -0.0960
10382TIP3    H252562   4.536   3.710   3.560 -1.2076  0.8821  1.5668
10383TIP3   OH252563   2.785   0.883  13.997 -0.4348  0.5842  0.4313
10383TIP3    H152564   2.722   0.951  13.976  1.9472  2.2609 -2.0881
10383TIP3    H252565   2.762   0.810  13.939  0.5067  1.6491 -1.3920
10384TIP3   OH252566   5.770   6.005   0.760  0.0678  0.4059  0.0326
10384TIP3    H152567   5.825   5.939   0.718 -0.0204  0.4252 -0.1134
10384TIP3    H252568   5.682   5.988   0.727 -0.1656 -0.1661  0.9288
10385TIP3   OH252569   2.449   1.475  11.877  0.4928  0.1292 -0.1070
10385TIP3    H152570   2.490   1.389  11.876  1.1587  0.3875  1.8718
10385TIP3    H252571   2.516   1.534  11.843  0.8162  0.1767  0.6139
10386TIP3   OH252572   2.391   2.176  14.544 -0.3645  0.0321  0.6077
10386TIP3    H152573   2.429   2.164  14.631  0.7395  0.7305  0.2350
10386TIP3    H252574   2.298   2.155  14.555 -0.1896 -0.0965  1.9022
10387TIP3   OH252575   6.022   4.828  12.948 -0.7171 -1.1283 -0.2913
10387TIP3    H152576   5.962   4.757  12.971 -1.3299 -0.4865  0.1519
10387TIP3    H252577   6.010   4.893  13.018 -1.3937  0.1330 -1.5235
10388TIP3   OH252578   1.904   2.249  13.679 -0.3940 -0.5994  0.8579
10388TIP3    H152579   1.815   2.222  13.700 -0.2831 -0.7326  1.1666
10388TIP3    H252580   1.949   2.250  13.764 -0.2222 -0.0849  0.7654
10389TIP3   OH252581   2.075   4.115   4.314  0.1898  0.3656  0.2212
10389TIP3    H152582   2.120   4.058   4.376  0.1305 -0.4391 -0.4659
10389TIP3    H252583   2.070   4.200   4.359 -0.6879 -0.4302  1.7022
10390TIP3   OH252584   0.838   3.073  11.927  0.1164  0.4545  0.4150
10390TIP3    H152585   0.929   3.073  11.954  0.3916 -0.1062 -0.4800
10390TIP3    H252586   0.806   2.985  11.949 -0.0354  0.4477  0.1710
10391TIP3   OH252587   0.441   2.503  13.087 -0.4460  0.0826  0.2311
10391TIP3    H152588   0.348   2.521  13.073 -0.2410  1.1589  0.0954
10391TIP3    H252589   0.475   2.482  13.000 -0.3759  0.7084  0.0975
10392TIP3   OH252590   5.398   1.613   5.295  0.7603  0.5160  0.3501
10392TIP3    H152591   5.303   1.617   5.291  0.3608 -3.1398  1.8027
10392TIP3    H252592   5.419   1.632   5.386  1.6822  3.1233 -0.3403
10393TIP3   OH252593   3.146   1.545  10.954 -0.5030  0.6403  0.4493
10393TIP3    H152594   3.239   1.544  10.973 -0.8092 -1.9116  2.2933
10393TIP3    H252595   3.113   1.624  10.998  0.5476  0.7626  1.0494
10394TIP3   OH252596   2.760   6.522   2.945  0.4398  0.5470 -0.6761
10394TIP3    H152597   2.774   6.574   2.866  2.2697 -0.8423 -1.3505
10394TIP3    H252598   2.766   6.431   2.915 -2.4927 -0.1447  0.4701
10395TIP3   OH252599   0.377   4.044   4.002 -0.0675  0.1080 -0.0691
10395TIP3    H152600   0.389   3.975   3.936  2.3083  0.9350 -0.5807
10395TIP3    H252601   0.394   4.000   4.086  0.7424 -0.0969 -0.3347
10396TIP3   OH252602   4.160   3.749  16.451  0.7056 -0.3788  0.4648
10396TIP3    H152603   4.119   3.689  16.388 -0.2774  0.4312  0.3228
10396TIP3    H252604   4.101   3.824  16.456  0.6399 -0.5043  2.5177
10397TIP3   OH252605   4.631   3.614  15.215  0.3655  0.0569  0.4028
10397TIP3    H152606   4.590   3.613  15.129 -4.3665  0.4909  2.3589
10397TIP3    H252607   4.648   3.522  15.236  3.5802  0.0300 -1.5897
10398TIP3   OH252608   6.587   4.399   2.480  0.4046 -0.1373  0.6779
10398TIP3    H152609   6.606   4.306   2.491  0.0795 -0.0953  1.7679
10398TIP3    H252610   6.542   4.405   2.397 -0.5106 -1.1106  1.0828
10399TIP3   OH252611   4.803   0.095   5.907 -0.0418 -0.2105 -0.3119
10399TIP3    H152612   4.720   0.138   5.929  1.3654  1.1190  3.2308
10399TIP3    H252613   4.858   0.165   5.872  0.9657  0.0778  1.6973
10400TIP3   OH252614   6.417   2.153  16.181 -0.3010  0.2402 -0.2346
10400TIP3    H152615   6.347   2.185  16.238 -1.2258 -1.2344 -0.5043
10400TIP3    H252616   6.374   2.129  16.100  0.2022 -2.2261  0.1548
10401TIP3   OH252617   1.012   5.937  13.236  0.3936  0.1261 -0.0262
10401TIP3    H152618   1.084   5.998  13.248  0.3560  0.0651  0.5501
10401TIP3    H252619   0.984   5.950  13.145  1.5486 -0.3153 -0.4676
10402TIP3   OH252620   3.841   0.057  16.439 -0.1861  0.4824 -0.8889
10402TIP3    H152621   3.856  -0.007  16.369 -1.7986  1.2057 -1.9516
10402TIP3    H252622   3.782   0.121  16.400  0.5706  2.0752  0.4879
10403TIP3   OH252623   2.796   5.367  13.713  0.0579 -0.0909  0.2687
10403TIP3    H152624   2.892   5.360  13.719  0.1110 -1.1766 -1.2970
10403TIP3    H252625   2.766   5.276  13.711 -1.0934  0.2347  1.5169
10404TIP3   OH252626   4.029   5.417   0.217  0.1632 -0.0960 -0.5193
10404TIP3    H152627   4.065   5.348   0.273 -1.2450  1.1273  2.0613
10404TIP3    H252628   4.033   5.380   0.128  4.4682 -1.3152 -0.0477
10405TIP3   OH252629   3.073   3.413   6.032 -0.1304 -0.0059  0.0019
10405TIP3    H152630   3.078   3.318   6.023  3.4638 -0.4072  3.3451
10405TIP3    H252631   3.007   3.427   6.100  0.9612 -0.4193  1.1960
10406TIP3   OH252632   1.396   2.266   5.023 -0.4338 -0.1063  0.1481
10406TIP3    H152633   1.330   2.298   5.083  1.3108  1.5903  1.2529
10406TIP3    H252634   1.452   2.210   5.077 -0.1944 -0.4825 -0.4783
10407TIP3   OH252635   2.261   2.357   1.763 -0.1295  0.1316  0.2100
10407TIP3    H152636   2.168   2.380   1.759  0.0919  1.4151  1.4622
10407TIP3    H252637   2.265   2.282   1.821 -0.2993  0.8103  1.1265
10408TIP3   OH252638   2.287   1.918  12.307 -0.3172 -0.7068 -0.3968
10408TIP3    H152639   2.222   1.924  12.237 -0.4303 -1.5230 -0.3725
10408TIP3    H252640   2.369   1.897  12.262  0.0706  0.8211 -0.4818
10409TIP3   OH252641   0.338   0.697  16.093 -0.7450 -0.4850 -0.1140
10409TIP3    H152642   0.411   0.711  16.153 -0.5433 -1.4141 -0.1264
10409TIP3    H252643   0.262   0.684  16.149 -0.9414  0.6622 -0.1048
10410TIP3   OH252644   3.378   2.790  15.889 -0.0053 -0.2052 -0.0380
10410TIP3    H152645   3.470   2.763  15.886  0.2491  0.6660 -0.6760
10410TIP3    H252646   3.381   2.885  15.878 -0.7825  0.3145  3.2212
10411TIP3   OH252647   4.981   0.812  16.727 -0.6352  0.0326  0.3700
10411TIP3    H152648   4.899   0.860  16.718 -0.9839 -0.3376  1.3703
10411TIP3    H252649   4.989   0.762  16.646 -1.7203 -0.3855  0.4939
10412TIP3   OH252650   6.013   1.181   1.207  0.6787  0.0720 -0.3216
10412TIP3    H152651   6.008   1.144   1.295  1.1172 -0.9861 -0.7194
10412TIP3    H252652   5.977   1.113   1.150  0.9881  0.4796 -1.0183
10413TIP3   OH252653   3.508   2.886  13.730 -0.2249  0.3864  0.3497
10413TIP3    H152654   3.415   2.862  13.730 -0.5094  1.4333  1.0061
10413TIP3    H252655   3.527   2.909  13.821  0.6300  0.3419  0.1850
10414TIP3   OH252656   5.431   5.589   0.486 -0.1232 -0.3903 -0.1254
10414TIP3    H152657   5.419   5.616   0.577  1.2240 -1.3112  0.3706
10414TIP3    H252658   5.350   5.614   0.442 -0.3653  1.0758  1.0712
10415TIP3   OH252659   6.102   4.414   5.001  0.1999  0.0305  0.0247
10415TIP3    H152660   6.181   4.468   5.007 -0.5151  0.9632  3.1389
10415TIP3    H252661   6.030   4.477   5.005 -0.6587 -0.9241  3.3680
10416TIP3   OH252662   0.892   6.306  12.946 -0.3712 -0.5142 -0.2203
10416TIP3    H152663   0.947   6.373  12.987 -0.8958  0.1615 -0.5979
10416TIP3    H252664   0.940   6.225  12.959  0.1639 -0.1031  0.4625
10417TIP3   OH252665   3.617   4.440  16.262  0.0919 -0.1999 -0.4483
10417TIP3    H152666   3.589   4.530  16.277  1.2463  0.4576 -1.9518
10417TIP3    H252667   3.537   4.388  16.266 -0.4342  0.6824  1.6960
10418TIP3   OH252668   1.786   3.930   4.810  0.1182  0.3965 -0.2090
10418TIP3    H152669   1.703   3.955   4.770 -0.9191 -1.8422  0.3957
10418TIP3    H252670   1.762   3.888   4.893  2.0622  2.4572  1.5335
10419TIP3   OH252671   6.124   6.647  12.053 -0.6708 -0.4954  0.3070
10419TIP3    H152672   6.107   6.723  12.109  0.4176  0.1767 -0.2249
10419TIP3    H252673   6.211   6.618  12.078 -0.8510 -1.2301  0.1042
10420TIP3   OH252674   3.570   2.082  13.639 -0.4581 -0.1672 -0.2113
10420TIP3    H152675   3.486   2.036  13.637 -0.6778  0.2244  0.0788
10420TIP3    H252676   3.629   2.025  13.589 -0.5149 -1.1869  0.8299
10421TIP3   OH252677   3.081   2.664  13.643  0.2255 -0.1680 -0.0701
10421TIP3    H152678   3.080   2.572  13.619 -1.0024 -0.0906 -0.3553
10421TIP3    H252679   3.054   2.710  13.564  0.2517  0.3902  0.2388
10422TIP3   OH252680   0.168   6.247   2.879  0.3482  0.4469 -0.0739
10422TIP3    H152681   0.185   6.167   2.928  0.9997  0.7755  0.2469
10422TIP3    H252682   0.231   6.246   2.808  0.3495  0.6708 -0.0764
10423TIP3   OH252683   4.255   5.514  14.444 -0.4776  0.1088  0.1805
10423TIP3    H152684   4.236   5.432  14.399 -0.0122  0.0631  0.0688
10423TIP3    H252685   4.297   5.569  14.377 -1.8012  0.8568 -0.0765
10424TIP3   OH252686   6.220   4.421   3.820 -0.1594  0.4122 -0.9160
10424TIP3    H152687   6.216   4.461   3.733  0.8831 -0.0338 -1.1954
10424TIP3    H252688   6.228   4.327   3.802 -0.4485  0.2727 -0.3212
10425TIP3   OH252689   6.705   4.629   5.246 -0.0017 -0.0572  0.2740
10425TIP3    H152690   6.744   4.638   5.333 -0.5003 -0.8512  0.5914
10425TIP3    H252691   6.615   4.660   5.256 -0.4559 -1.3273  0.3721
10426TIP3   OH252692   0.693   2.090  16.316  0.4265 -0.0693 -0.1676
10426TIP3    H152693   0.630   2.018  16.307 -1.4642  1.3936  0.7016
10426TIP3    H252694   0.763   2.054  16.371 -1.2168 -0.8411  1.5241
10427TIP3   OH252695   6.501   1.115   5.962  0.2173  0.3732 -0.3981
10427TIP3    H152696   6.509   1.187   6.024  0.9237  0.2343 -0.3112
10427TIP3    H252697   6.457   1.153   5.885 -0.4981  0.5883  0.1116
10428TIP3   OH252698   3.778   0.085   3.278  0.5525 -0.4998  0.4728
10428TIP3    H152699   3.752   0.013   3.335  0.1075  0.0987  1.0330
10428TIP3    H252700   3.841   0.136   3.331 -0.8120  0.7733  0.9337
10429TIP3   OH252701   4.312   2.734  16.687 -0.3364 -0.2944 -0.0286
10429TIP3    H152702   4.366   2.716  16.764 -0.7206 -0.4774  0.2001
10429TIP3    H252703   4.373   2.771  16.623  0.4895 -2.4217 -0.5395
10430TIP3   OH252704   5.594   5.387   1.985  0.8401  0.0221  0.5812
10430TIP3    H152705   5.578   5.435   2.066  1.8605 -1.7543  1.9191
10430TIP3    H252706   5.686   5.403   1.965  0.5145  0.7359 -0.4859
10431TIP3   OH252707   4.874   4.623  15.007 -0.0081 -0.4750  0.2515
10431TIP3    H152708   4.840   4.650  14.922  0.5088  0.4814  0.3401
10431TIP3    H252709   4.945   4.684  15.025 -1.0078  0.2308  2.0213
10432TIP3   OH252710   0.066   6.460   6.543 -0.6619  0.1041  0.4362
10432TIP3    H152711   0.009   6.389   6.572 -0.9128 -0.7074 -1.7986
10432TIP3    H252712   0.147   6.447   6.592 -0.2307 -2.5718 -0.7699
10433TIP3   OH252713   3.151   4.236   0.879  0.3854 -0.5826  0.2670
10433TIP3    H152714   3.126   4.150   0.845 -1.5899 -0.2100  0.6853
10433TIP3    H252715   3.207   4.216   0.955  2.6858 -1.4181 -1.5207
10434TIP3   OH252716   1.209   3.339   5.704  0.0168 -0.2744 -0.0956
10434TIP3    H152717   1.120   3.311   5.684 -0.0400 -0.2690  0.1445
10434TIP3    H252718   1.222   3.418   5.651  0.2881 -0.9081 -1.0124
10435TIP3   OH252719   5.437   6.769  15.770  0.6015 -0.4010 -0.4522
10435TIP3    H152720   5.356   6.725  15.795 -0.6813  1.5514 -0.9786
10435TIP3    H252721   5.441   6.759  15.675  1.2395 -0.8695 -0.3846
10436TIP3   OH252722   4.128   1.710  11.380  0.0550 -0.1643  0.1473
10436TIP3    H152723   4.207   1.656  11.369 -0.0899 -0.2334 -0.5601
10436TIP3    H252724   4.156   1.799  11.357 -0.5991 -0.5386 -2.3185
10437TIP3   OH252725   5.993   3.732  11.029  0.0174  0.2252 -0.2590
10437TIP3    H152726   6.086   3.734  11.006  0.4397 -1.0388  1.2041
10437TIP3    H252727   5.949   3.705  10.948  1.1669 -1.4074 -0.3718
10438TIP3   OH252728   3.178   6.123  14.898 -0.5959  0.6285 -0.3334
10438TIP3    H152729   3.175   6.129  14.802 -0.3644  0.0479 -0.3840
10438TIP3    H252730   3.141   6.206  14.928  0.6884  1.4578 -0.9299
10439TIP3   OH252731   0.860   3.091  13.281 -0.4215  0.2036 -0.0199
10439TIP3    H152732   0.842   3.128  13.367 -0.3001 -0.0267  0.1048
10439TIP3    H252733   0.842   2.998  13.290  1.0921 -0.0870  0.1863
10440TIP3   OH252734   2.475   0.241  15.462 -0.4085  0.3334  0.0227
10440TIP3    H152735   2.500   0.318  15.411  1.1280 -0.8257 -1.0601
10440TIP3    H252736   2.382   0.227  15.441 -0.4315  1.2825 -0.5596
10441TIP3   OH252737   2.528   5.787  12.913 -0.4168 -0.3283  0.2517
10441TIP3    H152738   2.442   5.745  12.912  0.1693 -1.6100 -1.1286
10441TIP3    H252739   2.557   5.783  12.822  0.7143  0.9226  0.5316
10442TIP3   OH252740   1.515   2.615  15.744  0.2150  0.6573 -0.1322
10442TIP3    H152741   1.555   2.528  15.750 -1.0189 -0.0432 -1.4626
10442TIP3    H252742   1.587   2.672  15.716  0.5675 -0.3552 -1.3814
10443TIP3   OH252743   4.593   3.768  14.746 -0.2755  0.2399 -0.3029
10443TIP3    H152744   4.620   3.817  14.668 -0.5018  1.8204  0.5494
10443TIP3    H252745   4.658   3.792  14.812 -0.8961  0.0843  0.3769
10444TIP3   OH252746   5.984   6.531  15.911  0.0618 -0.3057  0.6403
10444TIP3    H152747   5.964   6.577  15.992 -0.8108 -0.0741  0.3033
10444TIP3    H252748   5.921   6.565  15.847 -1.9176 -3.2700  0.8326
10445TIP3   OH252749   5.869   5.356  12.738 -0.2080 -0.0514 -0.2368
10445TIP3    H152750   5.958   5.340  12.707  1.0161  0.3388  2.7562
10445TIP3    H252751   5.827   5.269  12.735  0.4806 -0.3762 -0.9483
10446TIP3   OH252752   6.494   1.905  14.870 -0.2800 -0.3893 -0.3142
10446TIP3    H152753   6.508   1.843  14.942  0.3267  0.3602  0.2262
10446TIP3    H252754   6.533   1.862  14.794 -1.9265 -1.7002 -0.4942
10447TIP3   OH252755   5.337   2.307  11.142 -0.0662 -0.1983 -0.1356
10447TIP3    H152756   5.295   2.242  11.085  0.7269  1.3940 -2.6836
10447TIP3    H252757   5.382   2.254  11.208 -2.0734 -2.0942 -0.1699
10448TIP3   OH252758   5.534   4.410  16.590 -1.0381  0.5027  0.3483
10448TIP3    H152759   5.573   4.374  16.510  1.2394  3.3446  0.0170
10448TIP3    H252760   5.457   4.457  16.560  0.0164  1.8828 -0.3394
10449TIP3   OH252761   0.554   1.277   0.730  0.0959  0.1853  0.2920
10449TIP3    H152762   0.507   1.205   0.773  0.8333  0.1535  1.0685
10449TIP3    H252763   0.498   1.353   0.745 -0.6966 -0.2169 -0.5466
10450TIP3   OH252764   6.647   6.339   2.762 -0.8261 -0.0426 -0.1522
10450TIP3    H152765   6.735   6.366   2.791 -1.5964  1.4755  0.9171
10450TIP3    H252766   6.615   6.285   2.834 -0.3813 -1.5291 -1.0334
10451TIP3   OH252767   4.579   4.220  11.910 -0.0327  0.1164 -0.1243
10451TIP3    H152768   4.602   4.183  11.825  2.9453 -0.2040  0.7003
10451TIP3    H252769   4.567   4.314  11.893  0.5041  0.0539 -0.9010
10452TIP3   OH252770   3.612   0.481   4.093  0.3127  0.0996 -0.0554
10452TIP3    H152771   3.632   0.415   4.159  2.3384  1.0395  0.3754
10452TIP3    H252772   3.685   0.475   4.031  0.9098  2.3061  0.3461
10453TIP3   OH252773   4.570   1.761   3.730 -0.4222 -0.0410 -0.1056
10453TIP3    H152774   4.662   1.787   3.732 -0.4653  0.0860  0.1383
10453TIP3    H252775   4.524   1.839   3.698 -0.5575  0.2063  0.6841
10454TIP3   OH252776   4.809   5.593   0.198 -0.0026 -0.8267  0.2925
10454TIP3    H152777   4.827   5.670   0.144  0.5048  0.0002  1.6152
10454TIP3    H252778   4.761   5.535   0.140 -0.3167  0.4416 -0.7672
10455TIP3   OH252779   2.317   1.508  15.115  0.4530  0.0107  0.3773
10455TIP3    H152780   2.402   1.513  15.072 -0.2533  1.8766 -0.8920
10455TIP3    H252781   2.253   1.507  15.044 -0.7177  2.3564  1.3028
10456TIP3   OH252782   5.129   1.762   2.731 -0.2393 -0.7257 -0.3133
10456TIP3    H152783   5.214   1.795   2.704 -0.5259 -0.3108 -0.7268
10456TIP3    H252784   5.147   1.677   2.771  0.5678  0.1412  1.2087
10457TIP3   OH252785   4.496   2.467   0.515 -0.3110  0.2891 -0.2039
10457TIP3    H152786   4.560   2.491   0.449  0.0501  3.3304  1.0725
10457TIP3    H252787   4.432   2.413   0.469  0.6182  1.2046 -2.6867
10458TIP3   OH252788   3.779   4.081   5.433 -0.7100  0.4258  0.2916
10458TIP3    H152789   3.718   4.138   5.386 -1.3334  0.2905  0.9148
10458TIP3    H252790   3.801   4.131   5.512  0.9657  1.0047 -0.4990
10459TIP3   OH252791   3.653   4.674   4.487  0.5755  0.3645  0.9920
10459TIP3    H152792   3.659   4.644   4.396 -1.7973 -1.6664  1.3891
10459TIP3    H252793   3.687   4.764   4.485  0.2718  0.5195 -1.9471
10460TIP3   OH252794   5.824   3.531   1.636 -0.3588  0.0214  0.3517
10460TIP3    H152795   5.780   3.448   1.620  1.5381 -1.6186  2.7615
10460TIP3    H252796   5.917   3.509   1.637  0.1287  1.7298  2.9585
10461TIP3   OH252797   1.223   0.216   0.701 -0.4013  0.0314 -0.7206
10461TIP3    H152798   1.244   0.273   0.775 -2.0126 -1.1216  0.7093
10461TIP3    H252799   1.132   0.238   0.680 -0.9810 -1.8188 -0.2906
10462TIP3   OH252800   0.110   3.096  11.677 -0.1854 -0.1549  0.3698
10462TIP3    H152801   0.116   3.142  11.593 -0.1554 -1.3373 -0.2981
10462TIP3    H252802   0.022   3.057  11.676  0.5455 -1.8908 -0.0621
10463TIP3   OH252803   3.816   3.647  13.909  0.2001  0.0029 -0.2127
10463TIP3    H152804   3.768   3.691  13.980  1.5850  0.6974  0.3205
10463TIP3    H252805   3.906   3.642  13.940  0.5125 -1.2032 -1.2372
10464TIP3   OH252806   1.994   5.121  13.845  0.2113 -0.4088  0.1652
10464TIP3    H152807   2.072   5.072  13.820  0.1341 -0.2227 -0.4572
10464TIP3    H252808   1.993   5.197  13.786 -0.1601 -0.1419  0.5098
10465TIP3   OH252809   2.775   0.177  12.018  0.5040  0.1964 -0.2196
10465TIP3    H152810   2.735   0.134  12.094  1.7410 -1.6127 -0.5206
10465TIP3    H252811   2.742   0.129  11.942  2.1361 -0.4720 -0.5506
10466TIP3   OH252812   4.093   0.560   4.374 -0.2787  0.2989  0.3978
10466TIP3    H152813   4.087   0.466   4.389 -0.1462 -0.1556 -2.0160
10466TIP3    H252814   4.184   0.582   4.394  0.2071 -0.4787 -0.8657
10467TIP3   OH252815   0.913   2.280  13.167  0.0975 -0.2878  0.1273
10467TIP3    H152816   0.925   2.240  13.081  0.6866 -1.0388  0.5474
10467TIP3    H252817   0.965   2.360  13.164 -0.8016  0.2856 -0.5965
10468TIP3   OH252818   5.196   0.788   1.542  0.8188  0.6645 -0.3600
10468TIP3    H152819   5.214   0.767   1.634  0.6022  3.2859  0.3794
10468TIP3    H252820   5.121   0.847   1.545 -1.1119 -1.4492 -2.5343
10469TIP3   OH252821   4.225   3.300  11.816  0.4739  0.0053 -0.1297
10469TIP3    H152822   4.196   3.335  11.732  0.4707 -1.7929 -0.9355
10469TIP3    H252823   4.166   3.227  11.834  0.8145  0.0186  1.1667
10470TIP3   OH252824   6.439   1.126  16.537 -0.9501 -0.4671 -0.4011
10470TIP3    H152825   6.410   1.156  16.451 -1.0488 -1.0552 -0.5775
10470TIP3    H252826   6.489   1.200  16.573 -0.1767 -0.5323 -1.3113
10471TIP3   OH252827   5.299   1.119   0.801 -0.3521 -0.2077  0.2440
10471TIP3    H152828   5.298   1.212   0.780 -0.6820  0.1247  1.6159
10471TIP3    H252829   5.389   1.102   0.829 -0.8997  0.3545  2.5493
10472TIP3   OH252830   3.374   5.073  11.865 -0.3377 -0.1320  0.1742
10472TIP3    H152831   3.422   5.149  11.834 -0.8057 -0.3452 -1.1579
10472TIP3    H252832   3.412   5.053  11.951  1.8783 -0.2407 -0.7773
10473TIP3   OH252833   2.619   6.063  13.303  1.1652  0.2025 -0.3146
10473TIP3    H152834   2.634   6.028  13.215  1.8238 -1.9315  0.5814
10473TIP3    H252835   2.690   6.027  13.356 -0.3166 -0.2203  1.5106
10474TIP3   OH252836   4.099   2.064   1.546 -0.1960  0.0754  0.3979
10474TIP3    H152837   4.188   2.059   1.580 -0.7347  0.6277  1.9558
10474TIP3    H252838   4.067   1.974   1.548  0.3594 -0.1461 -0.3060
10475TIP3   OH252839   3.832   6.277  15.123 -0.4586 -0.0891 -0.0545
10475TIP3    H152840   3.887   6.215  15.170 -0.2966  0.4043  0.4006
10475TIP3    H252841   3.825   6.240  15.035  0.6529 -0.1183 -0.1416
10476TIP3   OH252842   3.673   2.000  13.393 -0.3373 -0.1984 -0.6360
10476TIP3    H152843   3.727   2.060  13.342  0.9097 -0.4780  0.3144
10476TIP3    H252844   3.712   1.914  13.376 -0.3870 -0.3832  0.1721
10477TIP3   OH252845   2.915   3.727   0.791 -0.2715  0.0499 -0.2588
10477TIP3    H152846   2.824   3.699   0.778 -0.4028  0.2721  0.1557
10477TIP3    H252847   2.925   3.731   0.886  0.5904 -1.3096 -0.2659
10478TIP3   OH252848   6.181   4.096  15.735 -0.3976  0.5480 -0.0180
10478TIP3    H152849   6.210   4.079  15.825 -0.3520  0.0198 -0.1282
10478TIP3    H252850   6.108   4.156  15.744 -0.5594  0.2953  0.3911
10479TIP3   OH252851   5.011   4.787  15.991  0.1801  0.2991  0.3551
10479TIP3    H152852   5.040   4.815  16.078  1.0635  0.3095  0.0614
10479TIP3    H252853   4.918   4.809  15.989  0.0632 -0.0437  1.4385
10480TIP3   OH252854   2.535   5.531   3.548 -0.3585 -0.1076  0.4661
10480TIP3    H152855   2.551   5.443   3.582  0.1319  0.3099  1.3342
10480TIP3    H252856   2.454   5.522   3.497 -1.4903 -0.6355  2.2610
10481TIP3   OH252857   0.905   0.271  10.773  0.6232 -0.1414  0.9824
10481TIP3    H152858   0.895   0.366  10.781  1.1906  0.1476 -1.1377
10481TIP3    H252859   0.966   0.260  10.700 -0.2152 -2.1645  0.5351
10482TIP3   OH252860   6.252   6.510  11.726  0.7049 -0.5466  0.4209
10482TIP3    H152861   6.211   6.588  11.764 -0.1869 -0.9154  0.2332
10482TIP3    H252862   6.337   6.504  11.769  1.1607  1.0373 -0.1965
10483TIP3   OH252863   6.383   2.906  16.293 -0.1750 -1.1840  0.2173
10483TIP3    H152864   6.451   2.940  16.352  0.8057 -0.9884 -0.9766
10483TIP3    H252865   6.318   2.867  16.351  0.9727 -1.3978  1.4067
10484TIP3   OH252866   4.712   1.586  13.249  0.5459 -0.4537 -0.2663
10484TIP3    H152867   4.760   1.552  13.324  1.7507  0.4021 -0.6241
10484TIP3    H252868   4.659   1.512  13.219 -0.2246 -0.7088  1.6177
10485TIP3   OH252869   6.785   6.438  13.359  0.3481 -0.6551  0.2212
10485TIP3    H152870   6.809   6.466  13.270 -0.0070  1.0681  0.6155
10485TIP3    H252871   6.840   6.491  13.416 -1.5189  0.4951  1.0596
10486TIP3   OH252872   1.061   2.543   1.642  0.0087 -0.1328 -0.0195
10486TIP3    H152873   1.048   2.627   1.598 -0.7977 -2.3293 -4.6025
10486TIP3    H252874   0.974   2.504   1.644  0.6975 -1.7359 -0.0806
10487TIP3   OH252875   6.145   2.061   4.038  0.0529 -0.4125 -0.2581
10487TIP3    H152876   6.227   2.110   4.041 -1.0806  1.7957 -2.2754
10487TIP3    H252877   6.145   2.009   4.119  1.7986  2.1773  1.5549
10488TIP3   OH252878   5.516   6.786  15.511  0.4749  0.1581  0.1078
10488TIP3    H152879   5.582   6.816  15.449 -0.2056 -0.4265 -0.9380
10488TIP3    H252880   5.526   6.691  15.512 -1.1128 -0.0600 -0.9989
10489TIP3   OH252881   4.287   0.988   6.084  0.2787  0.4693  0.5010
10489TIP3    H152882   4.198   1.021   6.076  0.0376  0.0167  1.2209
10489TIP3    H252883   4.304   0.987   6.178  1.4015  1.4880  0.3389
10490TIP3   OH252884   0.439   2.759   1.768 -0.7852 -0.0244  0.7817
10490TIP3    H152885   0.495   2.815   1.821 -1.1655  1.1633 -0.0445
10490TIP3    H252886   0.500   2.696   1.729 -0.3314 -0.0937  1.5762
10491TIP3   OH252887   4.395   4.623  10.609 -0.0587  0.0000  0.2132
10491TIP3    H152888   4.416   4.598  10.699  2.0459  1.8825  0.3574
10491TIP3    H252889   4.379   4.541  10.564  2.6648 -1.3713  1.4827
10492TIP3   OH252890   6.434   3.940  13.123  0.5932  0.1439  0.2188
10492TIP3    H152891   6.520   3.901  13.109  0.7063  0.7452 -0.9070
10492TIP3    H252892   6.445   4.032  13.100 -0.3643  0.2143 -0.0061
10493TIP3   OH252893   2.895   6.217   3.667  0.2351  0.7805 -0.6153
10493TIP3    H152894   2.910   6.253   3.580 -0.9966  3.7239  0.2682
10493TIP3    H252895   2.826   6.152   3.655 -0.0043  1.2381 -1.7835
10494TIP3   OH252896   0.173   6.578  11.696  0.4494 -0.1120  0.2551
10494TIP3    H152897   0.112   6.652  11.703  1.3761  0.6081  0.8340
10494TIP3    H252898   0.116   6.502  11.683 -0.5295  0.6648 -0.1788
10495TIP3   OH252899   0.131   0.754   2.061 -0.2199 -0.3893 -0.1520
10495TIP3    H152900   0.084   0.838   2.065 -1.6946 -1.0940 -1.3528
10495TIP3    H252901   0.216   0.772   2.101  0.3433  2.2442 -2.1866
10496TIP3   OH252902   2.431   6.445   3.791  0.4336  0.4834  0.1941
10496TIP3    H152903   2.442   6.539   3.806  2.1451  0.1608  1.2288
10496TIP3    H252904   2.474   6.404   3.866 -2.1948 -1.1426  0.9576
10497TIP3   OH252905   4.911   0.774   1.024 -0.0638 -0.6741  0.1520
10497TIP3    H152906   4.986   0.714   1.028  1.0159  0.6732  0.9258
10497TIP3    H252907   4.894   0.798   1.115  0.9403  1.8385 -0.2400
10498TIP3   OH252908   3.367   3.957  16.726 -0.2190 -0.5401 -0.1646
10498TIP3    H152909   3.330   3.968  16.638  2.2104 -1.4219 -1.4099
10498TIP3    H252910   3.315   3.887  16.765 -2.4601  1.0451 -0.1621
10499TIP3   OH252911   3.164   2.848   3.041 -0.1877 -0.4630 -0.0482
10499TIP3    H152912   3.259   2.863   3.036 -0.1750 -0.1291  1.0294
10499TIP3    H252913   3.127   2.934   3.057 -0.8299 -0.3401 -1.9780
10500TIP3   OH252914   0.188   5.312  12.693  0.0226  0.2771 -0.0247
10500TIP3    H152915   0.190   5.369  12.616  3.7711  0.2304 -0.1466
10500TIP3    H252916   0.154   5.367  12.763  0.5837  1.7081 -0.8299
10501TIP3   OH252917   6.319   3.373  14.225 -0.1427  0.0648  0.6653
10501TIP3    H152918   6.233   3.359  14.185 -0.0879  1.6132 -0.0628
10501TIP3    H252919   6.303   3.372  14.319 -0.7152 -1.0011  0.5738
10502TIP3   OH252920   2.546   2.888   5.492 -0.0897  0.3004  0.2916
10502TIP3    H152921   2.500   2.953   5.546 -2.9147  0.1789 -1.7258
10502TIP3    H252922   2.631   2.928   5.475  1.1705  0.2074  4.8843
10503TIP3   OH252923   2.730   4.483  16.516 -0.0894 -0.3040 -0.4894
10503TIP3    H152924   2.680   4.490  16.597  2.2150  1.3513  0.9046
10503TIP3    H252925   2.761   4.393  16.515 -2.8930 -1.3905 -1.3996
10504TIP3   OH252926   2.040   4.684  11.271 -0.4953  0.2674 -0.1418
10504TIP3    H152927   2.126   4.686  11.228  0.6341  2.0555  1.9988
10504TIP3    H252928   1.981   4.727  11.209  0.4472  0.2908 -1.0448
10505TIP3   OH252929   6.137   0.454  11.585  0.1950 -0.0981  0.3518
10505TIP3    H152930   6.192   0.533  11.582  0.9024 -0.4134  2.7941
10505TIP3    H252931   6.092   0.453  11.501  0.3059  2.8209  0.1482
10506TIP3   OH252932   6.493   5.523   0.284  0.1109  0.3584  0.3978
10506TIP3    H152933   6.460   5.487   0.366 -0.9674 -1.7399 -0.8593
10506TIP3    H252934   6.567   5.466   0.261  2.0334  2.4254  1.0570
10507TIP3   OH252935   2.520   3.170  16.440  0.4868 -0.2051  0.4153
10507TIP3    H152936   2.597   3.113  16.447 -0.5969 -1.7431  0.3578
10507TIP3    H252937   2.507   3.181  16.345 -0.2260 -1.2105  0.3814
10508TIP3   OH252938   4.067   2.007  12.635  0.3363 -0.1986 -0.6943
10508TIP3    H152939   4.094   1.954  12.710  2.1687  2.6516  0.8467
10508TIP3    H252940   3.987   2.050  12.664  0.2157 -0.2531 -0.9486
10509TIP3   OH252941   3.681   3.308  15.968 -0.0195  1.3102 -0.8114
10509TIP3    H152942   3.711   3.373  16.031  0.0174  0.0098  0.5870
10509TIP3    H252943   3.761   3.275  15.927  0.0824  1.1966 -0.5265
10510TIP3   OH252944   1.982   6.781   2.106 -0.7632  0.3685 -0.2470
10510TIP3    H152945   1.914   6.841   2.076 -0.0441  1.5905  0.4702
10510TIP3    H252946   2.013   6.820   2.188  0.1458 -0.6793 -0.0739
10511TIP3   OH252947   0.253   5.978   2.985 -0.7525  0.6008 -0.1668
10511TIP3    H152948   0.245   5.953   3.077  0.8813  0.3369 -0.0617
10511TIP3    H252949   0.173   5.946   2.944 -0.0902 -2.2152  0.5246
10512TIP3   OH252950   1.196   6.474   3.684 -0.0589 -0.0635  0.3920
10512TIP3    H152951   1.260   6.450   3.751 -1.8011 -1.4487  1.6341
10512TIP3    H252952   1.173   6.391   3.642 -1.3669  0.3375  0.2821
10513TIP3   OH252953   3.151   6.378  13.948  0.0850 -0.3541 -0.7922
10513TIP3    H152954   3.074   6.373  13.891 -0.1158 -2.6751 -0.3918
10513TIP3    H252955   3.208   6.442  13.905 -0.4737 -1.3221 -3.1380
10514TIP3   OH252956   2.671   6.513  12.216  0.0115  0.8540  0.6708
10514TIP3    H152957   2.656   6.509  12.310 -3.4436 -0.2598  0.1870
10514TIP3    H252958   2.614   6.584  12.186 -0.6912 -0.3041 -0.8276
10515TIP3   OH252959   4.243   0.411   1.379 -0.0840 -0.0181 -0.5529
10515TIP3    H152960   4.303   0.425   1.306  0.7535  1.1638  0.3224
10515TIP3    H252961   4.158   0.393   1.338  0.5392 -0.2250 -1.8021
10516TIP3   OH252962   2.411   6.496  16.476 -0.6027 -0.3809  0.4311
10516TIP3    H152963   2.392   6.586  16.449  0.8392  0.3051  1.5616
10516TIP3    H252964   2.478   6.466  16.414 -1.3668 -0.8364 -0.1913
10517TIP3   OH252965   5.005   3.474  10.883  0.3849 -0.1279 -0.1089
10517TIP3    H152966   5.047   3.419  10.949 -0.1298  0.3206  0.6074
10517TIP3    H252967   4.933   3.420  10.849 -0.1059  0.0745  0.5776
10518TIP3   OH252968   5.383   3.752  16.914 -0.3044 -0.0090 -0.5824
10518TIP3    H152969   5.472   3.732  16.885  0.8190  0.3687  2.2033
10518TIP3    H252970   5.332   3.674  16.894  1.0443 -0.8548 -0.8043
10519TIP3   OH252971   3.437   1.665  11.211  0.0937 -0.2718 -0.1475
10519TIP3    H152972   3.526   1.645  11.238  0.1368 -0.3745 -0.3622
10519TIP3    H252973   3.434   1.641  11.118  0.1263  0.6536 -0.3914
10520TIP3   OH252974   0.186   6.365  14.399 -0.6930 -0.0727  0.1127
10520TIP3    H152975   0.245   6.316  14.342 -2.2017 -1.5669 -0.2440
10520TIP3    H252976   0.161   6.442  14.347  0.4610  0.2860  0.0570
10521TIP3   OH252977   5.282   2.835  15.363 -0.2762 -0.0331  0.1410
10521TIP3    H152978   5.292   2.891  15.440 -2.0612 -1.2814  1.3852
10521TIP3    H252979   5.286   2.746  15.398  2.6063 -0.8232 -1.7760
10522TIP3   OH252980   5.115   5.756  16.964 -0.4380  0.0398 -0.0768
10522TIP3    H152981   5.207   5.782  16.959  0.1839 -1.8432  1.0405
10522TIP3    H252982   5.117   5.663  16.986 -2.6158 -0.2413 -0.8535
10523TIP3   OH252983   0.075   5.785   3.841  0.5104 -0.2518  0.0147
10523TIP3    H152984   0.005   5.840   3.876  0.2207  0.6313 -1.8719
10523TIP3    H252985   0.068   5.793   3.746  1.4295 -2.3626 -0.2974
10524TIP3   OH252986   1.873   0.569  10.032 -0.2988  0.3086 -0.2987
10524TIP3    H152987   1.851   0.639  10.093 -0.6970 -1.8843  2.2479
10524TIP3    H252988   1.790   0.526  10.014  0.3216 -1.4745  0.8359
10525TIP3   OH252989   2.837   4.199  16.203  0.2117 -0.2033  0.3444
10525TIP3    H152990   2.856   4.153  16.121 -1.5616  1.8457 -1.3121
10525TIP3    H252991   2.804   4.284  16.176 -0.6028  0.4908  3.2207
10526TIP3   OH252992   1.744   0.848   2.838  0.0337 -0.3830 -0.1524
10526TIP3    H152993   1.808   0.807   2.780  0.5958 -1.2312  1.0026
10526TIP3    H252994   1.676   0.782   2.849  0.9840 -1.1416  1.7866
10527TIP3   OH252995   4.701   6.501   2.692 -0.6975 -0.3422  0.5470
10527TIP3    H152996   4.745   6.586   2.689 -2.3005  0.4883 -0.9015
10527TIP3    H252997   4.730   6.457   2.612 -0.2991 -0.9575  1.0223
10528TIP3   OH252998   5.106   3.033   0.068  0.1599  0.0408 -0.3995
10528TIP3    H152999   5.097   3.016   0.161  0.2261 -0.2908 -0.4534
10528TIP3    H253000   5.054   2.965   0.025 -0.1470  0.3934 -0.5949
10529TIP3   OH253001   0.574   3.623   3.150  0.2662 -0.2399 -0.3747
10529TIP3    H153002   0.629   3.696   3.120 -0.1826 -0.8703 -2.9512
10529TIP3    H253003   0.613   3.546   3.110  0.0086 -1.3016  1.3161
10530TIP3   OH253004   2.809   5.195  16.168 -0.3933  0.1840 -0.1937
10530TIP3    H153005   2.877   5.165  16.108  0.3150  0.9186  0.2159
10530TIP3    H253006   2.738   5.225  16.111  0.2985  0.9484 -0.6797
10531TIP3   OH253007   3.739   1.834  12.534  0.2239  0.2659  0.3086
10531TIP3    H153008   3.727   1.780  12.456 -1.4264  1.5850 -0.4234
10531TIP3    H253009   3.834   1.839  12.545  0.5816  0.8748 -2.2850
10532TIP3   OH253010   5.769   1.574   6.637  0.1071 -0.5902  0.1747
10532TIP3    H153011   5.706   1.635   6.600 -1.2961 -2.0226  0.1028
10532TIP3    H253012   5.797   1.520   6.563  0.2539 -0.9541  0.4888
10533TIP3   OH253013   4.154   6.092   0.303 -0.1949  0.3960  0.1436
10533TIP3    H153014   4.190   6.171   0.263 -0.1178 -1.0314 -2.8952
10533TIP3    H253015   4.228   6.030   0.304 -1.0092 -0.6377 -0.5886
10534TIP3   OH253016   5.644   4.873   5.626 -0.3031  0.6046 -0.3725
10534TIP3    H153017   5.728   4.834   5.650  0.4345  1.7438 -0.9882
10534TIP3    H253018   5.582   4.800   5.626 -0.1241  0.2128  3.4828
10535TIP3   OH253019   3.659   4.790   3.246  0.2080 -0.3990 -0.4450
10535TIP3    H153020   3.623   4.831   3.325  3.0140 -0.1525  0.8156
10535TIP3    H253021   3.628   4.699   3.250 -0.6462 -0.0937  0.3012
10536TIP3   OH253022   4.415   5.812   3.867  0.0105  0.5190  0.4658
10536TIP3    H153023   4.428   5.830   3.960 -1.4877  2.2788  0.4105
10536TIP3    H253024   4.480   5.745   3.846  1.1315  0.8665  2.5070
10537TIP3   OH253025   5.167   5.232   2.443  0.8269 -0.7513 -0.2816
10537TIP3    H153026   5.117   5.176   2.383  1.1575 -0.6363 -0.6654
10537TIP3    H253027   5.140   5.203   2.531  0.4376 -1.0059 -0.4819
10538TIP3   OH253028   2.721   4.587  14.595 -1.0031  0.1840 -0.0119
10538TIP3    H153029   2.775   4.644  14.539 -0.5845 -1.2598 -1.1536
10538TIP3    H253030   2.631   4.615  14.578 -0.8045  0.5256 -0.5515
10539TIP3   OH253031   1.015   6.640   4.423  0.5360  0.1433  0.0665
10539TIP3    H153032   1.081   6.571   4.427  0.4868  0.1304  1.1287
10539TIP3    H253033   1.029   6.683   4.339  1.0122 -0.7178 -0.3057
10540TIP3   OH253034   0.027   5.956  16.139  0.0244 -0.0496 -0.4437
10540TIP3    H153035  -0.045   6.019  16.128  0.7934  0.8696 -0.3450
10540TIP3    H253036  -0.013   5.882  16.185 -1.6613 -1.0785 -3.3292
10541TIP3   OH253037   6.036   2.955  11.589  0.1010 -0.0304 -0.1557
10541TIP3    H153038   6.020   3.030  11.646  1.0441 -0.7794  1.1415
10541TIP3    H253039   6.026   2.990  11.500 -0.6693  1.3323  0.4400
10542TIP3   OH253040   1.581   4.157   5.017 -0.0892  0.0711  0.0979
10542TIP3    H153041   1.655   4.198   4.973 -0.8981 -1.2515 -2.7600
10542TIP3    H253042   1.572   4.206   5.099  5.4125 -1.2916  1.9192
10543TIP3   OH253043   3.945   2.057  13.933  0.3532 -0.1501  0.0751
10543TIP3    H153044   3.886   2.030  14.003  1.0850 -1.8262  0.1081
10543TIP3    H253045   3.904   2.134  13.895 -0.7351  0.0106  1.4820
10544TIP3   OH253046   0.882   1.913   4.557 -0.0650 -0.1211  0.3363
10544TIP3    H153047   0.912   1.957   4.478  0.3345  1.5838  1.3874
10544TIP3    H253048   0.811   1.856   4.528  0.4014  0.0985 -1.3072
10545TIP3   OH253049   3.322   0.997  16.914 -0.2223  0.5981  0.0044
10545TIP3    H153050   3.358   1.065  16.857 -0.6797 -0.5223 -1.6622
10545TIP3    H253051   3.331   1.033  17.002  2.5336  1.4463 -0.5551
10546TIP3   OH253052   1.459   5.908  16.714 -1.0069  0.4226  0.5744
10546TIP3    H153053   1.458   5.820  16.750  2.4216  0.6874  1.6324
10546TIP3    H253054   1.403   5.959  16.772  0.5666 -0.1945  2.7669
10547TIP3   OH253055   4.716   3.017   6.238 -0.3945 -0.1082  0.1281
10547TIP3    H153056   4.791   2.974   6.279  0.6464 -0.6034 -2.1447
10547TIP3    H253057   4.743   3.108   6.227  0.1072 -0.3820 -1.0969
10548TIP3   OH253058   1.711   2.802  15.223  0.2445 -0.7370 -0.0691
10548TIP3    H153059   1.658   2.825  15.146 -0.4446 -0.4652  0.4748
10548TIP3    H253060   1.736   2.886  15.262  0.9401 -0.8671 -0.2194
10549TIP3   OH253061   4.167   0.338  12.399  0.3124  0.2482  0.3937
10549TIP3    H153062   4.195   0.247  12.384 -1.9722 -0.5586  0.5284
10549TIP3    H253063   4.142   0.369  12.312 -0.2045  0.2408  0.5335
10550TIP3   OH253064   6.451   0.701   0.713  0.3954  0.3407 -0.2882
10550TIP3    H153065   6.362   0.735   0.706  0.2126  0.0732  0.5766
10550TIP3    H253066   6.503   0.775   0.744  0.1569  0.0796  0.7770
10551TIP3   OH253067   1.217   6.714   2.746 -0.7686 -0.5927 -0.4850
10551TIP3    H153068   1.235   6.626   2.778 -0.0185  0.1133  1.1487
10551TIP3    H253069   1.137   6.740   2.791  0.2021  0.3501  0.7691
10552TIP3   OH253070   1.474   1.312   5.794 -0.2435 -0.2237 -0.7342
10552TIP3    H153071   1.565   1.284   5.811 -1.0693 -2.4841  0.4082
10552TIP3    H253072   1.466   1.395   5.841  1.0073 -0.3908 -0.1700
10553TIP3   OH253073   1.033   0.903   4.458  0.3592 -0.3919  0.3153
10553TIP3    H153074   1.045   0.909   4.363  1.3958  0.4977  0.4765
10553TIP3    H253075   1.057   0.990   4.490  2.0366 -1.2603  1.5771
10554TIP3   OH253076   2.125   4.301   3.105 -0.7598  0.2326 -0.2028
10554TIP3    H153077   2.122   4.215   3.146 -1.2820 -0.5739 -1.8533
10554TIP3    H253078   2.034   4.320   3.082 -0.5787  0.9801 -0.3396
10555TIP3   OH253079   0.619   6.273  14.133  0.3751 -0.0662  0.0461
10555TIP3    H153080   0.658   6.263  14.047 -1.5788  0.0960 -0.9065
10555TIP3    H253081   0.680   6.330  14.181  0.7926  1.0187 -1.6969
10556TIP3   OH253082   4.836   2.640   4.231  0.2973  0.7115 -0.4876
10556TIP3    H153083   4.816   2.671   4.319 -0.1458 -1.1521  0.1151
10556TIP3    H253084   4.921   2.678   4.210  0.7186  0.6376  1.0217
10557TIP3   OH253085   0.555   2.251  16.521  0.0277 -0.2038 -0.4031
10557TIP3    H153086   0.580   2.196  16.446 -1.4267  0.5620 -1.5089
10557TIP3    H253087   0.611   2.221  16.592  0.7417 -1.6749 -1.5198
10558TIP3   OH253088   5.032   4.932  13.812 -0.3447 -0.0892 -0.0851
10558TIP3    H153089   5.121   4.967  13.815 -1.1550  2.0519  2.3169
10558TIP3    H253090   5.043   4.837  13.819  1.8190 -0.2664 -3.4992
10559TIP3   OH253091   2.779   4.764   4.998  0.1873  0.5349  0.1023
10559TIP3    H153092   2.767   4.687   4.942  0.7656  1.6006 -1.5346
10559TIP3    H253093   2.873   4.764   5.019  0.0569  0.3995  0.7043
10560TIP3   OH253094   2.310   5.177  14.083  0.0876 -0.2487 -0.2109
10560TIP3    H153095   2.304   5.268  14.113 -1.0992 -0.4660  0.2567
10560TIP3    H253096   2.225   5.158  14.045  0.2796 -1.2078 -0.1974
10561TIP3   OH253097   0.655   1.601  15.439 -0.5645  0.2431 -0.1259
10561TIP3    H153098   0.716   1.591  15.513  0.6886  1.9284 -0.8552
10561TIP3    H253099   0.676   1.529  15.380  0.9796  0.9419 -0.4911
10562TIP3   OH253100   4.896   6.670   5.813 -0.7239  0.3522  0.6209
10562TIP3    H153101   4.856   6.733   5.873 -1.5851  0.1839  0.2293
10562TIP3    H253102   4.884   6.708   5.726 -1.6286 -0.5428  0.3406
10563TIP3   OH253103   2.111   2.776   0.725  0.5167 -0.5795 -0.2702
10563TIP3    H153104   2.054   2.848   0.700  0.5177 -0.6907 -0.5966
10563TIP3    H253105   2.197   2.817   0.738  0.2539 -0.3227  0.7515
10564TIP3   OH253106   0.705   3.884  11.337 -0.1610  0.2332  0.1483
10564TIP3    H153107   0.771   3.949  11.363 -0.4193  0.2500  0.7616
10564TIP3    H253108   0.682   3.838  11.417  0.5119 -1.0960 -0.3889
10565TIP3   OH253109   2.618   2.195  13.048  0.2379 -0.0727 -0.2202
10565TIP3    H153110   2.527   2.203  13.076 -0.2628 -0.9576 -1.5063
10565TIP3    H253111   2.643   2.106  13.076  0.9317  0.3903  0.6937
10566TIP3   OH253112   2.227   2.842  16.242  0.3880  0.0379  0.0340
10566TIP3    H153113   2.142   2.867  16.279  1.0664  0.5864  1.2882
10566TIP3    H253114   2.240   2.752  16.270  0.8636  0.4261  1.1016
10567TIP3   OH253115   4.107   2.760  17.058  0.3413 -0.1396 -0.3994
10567TIP3    H153116   4.032   2.755  16.998  0.0230 -0.4624  0.0170
10567TIP3    H253117   4.070   2.738  17.143  0.7440  0.5317 -0.0442
10568TIP3   OH253118   1.426   5.202   1.465  0.2171 -0.8294  0.1824
10568TIP3    H153119   1.467   5.136   1.521 -0.8724 -2.1180 -0.4845
10568TIP3    H253120   1.341   5.164   1.441 -0.9904  1.3397  0.7556
10569TIP3   OH253121   5.872   1.408  15.936  0.4246 -0.1880 -0.0476
10569TIP3    H153122   5.818   1.473  15.890 -2.2149 -0.8697  1.8384
10569TIP3    H253123   5.857   1.327  15.887  0.3010 -0.2359  0.0696
10570TIP3   OH253124   1.857   1.474   5.222  0.4879  0.2311  0.0028
10570TIP3    H153125   1.791   1.542   5.234 -1.3551 -1.2554 -1.0190
10570TIP3    H253126   1.836   1.408   5.289  0.4388 -0.6002 -0.8088
10571TIP3   OH253127   4.082   0.944  11.168 -0.4810 -0.4648 -0.1968
10571TIP3    H153128   4.096   1.039  11.167 -1.1423 -0.3476  0.5823
10571TIP3    H253129   4.005   0.930  11.113 -0.7785 -0.4699  0.2135
10572TIP3   OH253130   5.535   4.229   3.079 -0.1416 -0.2316 -0.3818
10572TIP3    H153131   5.620   4.220   3.122 -0.2011  0.7832 -0.0079
10572TIP3    H253132   5.481   4.275   3.144 -0.7168 -0.1187 -0.9341
10573TIP3   OH253133   5.324   4.799   4.620 -0.4191 -0.3078  0.1475
10573TIP3    H153134   5.363   4.865   4.563  1.7760  1.8258  3.7543
10573TIP3    H253135   5.269   4.848   4.680  0.9729 -1.7045  2.7219
10574TIP3   OH253136   3.287   1.349  15.379  0.5182  0.2236  0.4432
10574TIP3    H153137   3.259   1.345  15.470  0.9178  0.0407  0.5623
10574TIP3    H253138   3.267   1.262  15.344  0.1464  0.3698  0.2887
10575TIP3   OH253139   5.009   1.149   4.503 -0.4237  0.1942  0.4098
10575TIP3    H153140   5.008   1.068   4.553 -1.1531  0.2956  0.5721
10575TIP3    H253141   5.069   1.207   4.550  0.5843 -0.4580 -0.0521
10576TIP3   OH253142   6.715   5.029   2.000  0.1295 -0.0622 -0.1312
10576TIP3    H153143   6.782   4.976   2.044 -1.7731 -1.2876  1.4941
10576TIP3    H253144   6.709   5.108   2.054  0.5368  0.2353 -0.5170
10577TIP3   OH253145   3.177   6.640   1.509 -0.1544  0.6782 -0.0025
10577TIP3    H153146   3.122   6.718   1.499  1.0753  1.8555  1.6424
10577TIP3    H253147   3.264   6.676   1.528  0.8662 -1.1200 -1.0179
10578TIP3   OH253148   1.993   5.005   4.166 -0.0553  0.4994  0.0726
10578TIP3    H153149   1.933   4.940   4.128 -0.8056  0.9204  0.5030
10578TIP3    H253150   2.080   4.969   4.150 -0.4309 -0.3395 -0.1924
10579TIP3   OH253151   0.095   4.500  16.882  0.5016  0.4562  0.1866
10579TIP3    H153152   0.143   4.544  16.952 -0.3084  0.4249  0.7739
10579TIP3    H253153   0.124   4.409  16.886  1.7297  0.7837 -0.6428
10580TIP3   OH253154   4.191   1.392  12.601 -0.2576  0.3521 -0.3338
10580TIP3    H153155   4.164   1.408  12.510  0.3044 -2.3038 -1.0427
10580TIP3    H253156   4.284   1.370  12.596 -0.0806  0.6921  0.9752
10581TIP3   OH253157   1.481   5.483   4.723 -0.0267  0.0048  0.1676
10581TIP3    H153158   1.504   5.423   4.794 -0.7931 -0.6212 -0.0985
10581TIP3    H253159   1.485   5.429   4.644 -1.4448  0.0863  0.0051
10582TIP3   OH253160   1.597   0.177  16.271 -0.5118 -0.0260 -0.3360
10582TIP3    H153161   1.584   0.195  16.178 -2.1357  0.4714 -0.0407
10582TIP3    H253162   1.508   0.176  16.308  0.0252 -1.3524  1.0021
10583TIP3   OH253163   5.622   1.473  14.217  0.4231  0.2025 -0.4300
10583TIP3    H153164   5.589   1.562  14.202 -0.8766 -0.1649  0.1336
10583TIP3    H253165   5.697   1.465  14.158 -0.2917  1.1951 -1.5088
10584TIP3   OH253166   2.123   0.869   3.765  0.0989  0.4782  0.4291
10584TIP3    H153167   2.134   0.826   3.850 -1.5151 -2.0532 -0.5436
10584TIP3    H253168   2.211   0.867   3.726  0.4216 -0.2574  1.1716
10585TIP3   OH253169   4.038   6.070  15.175  0.0091 -0.6269 -0.2311
10585TIP3    H153170   4.117   6.098  15.128  0.3198  0.6532  0.9596
10585TIP3    H253171   4.037   5.975  15.166  0.5697 -0.4954 -1.9675
10586TIP3   OH253172   6.578   0.870  12.667 -0.0979  0.2371 -0.1347
10586TIP3    H153173   6.651   0.863  12.605  0.8991 -1.4078  1.1451
10586TIP3    H253174   6.503   0.891  12.612  0.9996  0.2272 -1.7327
10587TIP3   OH253175   0.951   1.206   4.120  0.4529  0.2907  0.0816
10587TIP3    H153176   0.927   1.287   4.075 -0.6462 -0.6543 -1.0946
10587TIP3    H253177   1.033   1.179   4.080  0.7076  0.6839  0.3243
10588TIP3   OH253178   2.359   0.923  13.036 -0.0362 -0.0446  0.4117
10588TIP3    H153179   2.296   0.947  13.104 -0.5764 -0.2006 -0.0250
10588TIP3    H253180   2.435   0.889  13.084 -0.4101 -0.1468  0.9347
10589TIP3   OH253181   2.003   1.298  16.857  0.0904 -0.2861 -0.0350
10589TIP3    H153182   2.015   1.280  16.764 -1.6299 -0.0011 -0.3361
10589TIP3    H253183   2.045   1.224  16.902  0.9494 -0.4176 -1.0060
10590TIP3   OH253184   1.666   5.853  15.891 -0.1478  0.3587  0.1362
10590TIP3    H153185   1.762   5.851  15.895 -0.1120  0.8669 -0.3152
10590TIP3    H253186   1.642   5.934  15.937 -0.4984 -0.8325  2.1815
10591TIP3   OH253187   0.479   2.388   5.477  0.4181  0.3145 -0.1910
10591TIP3    H153188   0.562   2.341   5.464  0.8855  0.8369  0.7675
10591TIP3    H253189   0.443   2.351   5.557 -0.0394  0.4408 -0.3350
10592TIP3   OH253190   1.030   4.598  10.718 -0.2744 -0.3522 -0.2620
10592TIP3    H153191   0.939   4.579  10.695 -0.6255  0.1940  0.5973
10592TIP3    H253192   1.068   4.636  10.638 -0.1544 -2.5699 -1.3159
10593TIP3   OH253193   0.011   0.378  10.240 -0.1253 -0.0683  0.3984
10593TIP3    H153194   0.052   0.292  10.228  0.9458  0.6867 -2.2065
10593TIP3    H253195   0.078   0.440  10.211 -1.3498  1.5783  0.9472
10594TIP3   OH253196   3.415   1.174   6.361 -0.1558  0.0562  0.3255
10594TIP3    H153197   3.420   1.237   6.432 -0.7922  1.4751 -0.8439
10594TIP3    H253198   3.427   1.226   6.281 -1.0773 -1.2142 -0.6973
10595TIP3   OH253199   6.562   5.626  10.899 -0.1409 -0.0265  0.5205
10595TIP3    H153200   6.502   5.661  10.964 -0.0328  0.7798  0.1923
10595TIP3    H253201   6.588   5.541  10.934 -3.3108 -1.5583 -0.3817
10596TIP3   OH253202   5.509   0.370  12.759  0.0377 -0.7250 -0.2248
10596TIP3    H153203   5.518   0.279  12.785 -1.9487 -0.7134  0.6569
10596TIP3    H253204   5.419   0.378  12.728  0.5087  0.6942 -1.4043
10597TIP3   OH253205   1.246   5.877   4.161 -0.0174 -0.2936 -0.2888
10597TIP3    H153206   1.280   5.845   4.078  0.4598  0.8378 -0.5468
10597TIP3    H253207   1.180   5.942   4.136  1.0099  0.9873  0.1674
10598TIP3   OH253208   1.158   2.230   4.845  0.1728 -0.1267  0.1462
10598TIP3    H153209   1.219   2.209   4.915 -0.4885 -0.8190  0.5213
10598TIP3    H253210   1.112   2.149   4.827  0.2395  0.0746 -1.0101
10599TIP3   OH253211   6.387   1.735  13.697 -0.1931  0.3628  0.0486
10599TIP3    H153212   6.375   1.641  13.702 -1.2260  0.4841  0.0219
10599TIP3    H253213   6.369   1.757  13.606 -0.5777  0.6660  0.1958
10600TIP3   OH253214   5.300   4.541   3.835 -0.2833 -0.3073 -0.3928
10600TIP3    H153215   5.387   4.546   3.797  0.0252  0.3601  0.3804
10600TIP3    H253216   5.312   4.497   3.919 -0.8784 -1.2836 -0.7961
10601TIP3   OH253217   4.609   2.795   1.983 -0.0145 -0.2684 -0.0259
10601TIP3    H153218   4.656   2.725   1.937  0.8243  0.0510  0.3152
10601TIP3    H253219   4.535   2.751   2.025  1.2036 -1.2048  1.2365
10602TIP3   OH253220   0.787   0.676  11.966  0.1407  0.0678 -0.0656
10602TIP3    H153221   0.708   0.634  11.930  0.2273 -0.5340  0.4368
10602TIP3    H253222   0.761   0.767  11.981 -0.7383 -0.3375  0.9396
10603TIP3   OH253223   1.843   5.999  10.530  0.3917 -0.1794  0.1605
10603TIP3    H153224   1.773   5.946  10.568 -0.0495 -1.4337 -2.1796
10603TIP3    H253225   1.797   6.070  10.486  0.3281 -1.7304 -2.5203
10604TIP3   OH253226   6.216   2.202   3.519  0.1419  0.3621 -0.1815
10604TIP3    H153227   6.204   2.148   3.598 -0.8728  0.1154 -0.4860
10604TIP3    H253228   6.181   2.288   3.543  0.6653  0.5445 -0.0746
10605TIP3   OH253229   1.807   0.603   0.452  0.4251 -0.5266 -0.2259
10605TIP3    H153230   1.747   0.605   0.527  2.4991 -0.2419  1.5216
10605TIP3    H253231   1.749   0.602   0.375 -1.7914 -0.5582  1.3411
10606TIP3   OH253232   0.382   3.853   5.433 -0.6614 -0.4608 -0.5817
10606TIP3    H153233   0.350   3.939   5.406  1.3948  0.2123 -0.9843
10606TIP3    H253234   0.426   3.868   5.517 -0.5400 -1.1806 -0.5043
10607TIP3   OH253235   2.878   5.078   2.339  0.2898  0.3750  0.4558
10607TIP3    H153236   2.865   4.984   2.343  1.6312  0.1277 -0.3208
10607TIP3    H253237   2.815   5.114   2.401 -1.3164 -0.9159 -0.3582
10608TIP3   OH253238   4.310   4.927  11.759 -0.3527 -0.3877 -0.0151
10608TIP3    H153239   4.223   4.958  11.734 -0.6390  0.5852  1.9933
10608TIP3    H253240   4.370   4.994  11.727 -0.3661 -0.7812 -0.9031
10609TIP3   OH253241   2.028   4.432  11.439 -0.5213 -0.0606  0.3847
10609TIP3    H153242   2.061   4.488  11.368  0.7692 -0.2825  0.7832
10609TIP3    H253243   2.036   4.486  11.518 -0.2097 -0.4515  0.6231
10610TIP3   OH253244   2.589   5.741  16.028 -0.1175  0.5106 -0.0423
10610TIP3    H153245   2.617   5.732  16.119  1.1524  0.1999 -0.4346
10610TIP3    H253246   2.524   5.671  16.016 -0.2060  0.4757  0.5833
10611TIP3   OH253247   5.087   1.054   0.421  0.6719 -0.4490 -0.2160
10611TIP3    H153248   5.167   1.059   0.472  0.8886 -0.5364 -0.5447
10611TIP3    H253249   5.016   1.060   0.486  0.9395  0.0569  0.0350
10612TIP3   OH253250   5.436   1.002   0.172 -0.7621  0.2703  0.0627
10612TIP3    H153251   5.360   0.979   0.119  0.2333 -0.1635 -1.2023
10612TIP3    H253252   5.461   0.920   0.215 -0.4334  0.2063 -0.2563
10613TIP3   OH253253   1.566   4.406   3.707  0.0431  0.1006 -0.4385
10613TIP3    H153254   1.510   4.460   3.650 -0.8666  2.8600  2.7549
10613TIP3    H253255   1.528   4.318   3.700 -1.5623  0.8458 -2.1758
10614TIP3   OH253256   0.620   0.744  16.736  0.0722  0.0827  0.5418
10614TIP3    H153257   0.565   0.706  16.804 -1.7956  0.4169 -0.7063
10614TIP3    H253258   0.591   0.835  16.729  0.4364  0.1368 -0.4818
10615TIP3   OH253259   1.842   6.371  16.957 -0.3242  0.0504 -0.4321
10615TIP3    H153260   1.928   6.365  16.915  0.9736 -2.4306  2.2650
10615TIP3    H253261   1.786   6.313  16.905  0.1428  0.1679 -1.0814
10616TIP3   OH253262   3.237   5.060   6.365 -0.8088 -0.1059  0.4130
10616TIP3    H153263   3.229   4.994   6.297 -0.9980  0.6470 -0.3158
10616TIP3    H253264   3.162   5.118   6.350 -0.5688  0.3514  0.9553
10617TIP3   OH253265   4.469   3.137  12.056  0.2815  0.6733 -0.0568
10617TIP3    H153266   4.559   3.139  12.087 -0.1351 -0.5612  1.3311
10617TIP3    H253267   4.464   3.058  12.001 -0.2029  0.1466  0.7322
10618TIP3   OH253268   5.320   4.332   2.180  0.7435  0.2710  0.1626
10618TIP3    H153269   5.289   4.395   2.115  0.7037  0.5670  0.4629
10618TIP3    H253270   5.414   4.324   2.162  1.8240  3.8726  2.8574
10619TIP3   OH253271   6.489   2.687   6.467 -0.2839  0.3919 -0.0309
10619TIP3    H153272   6.447   2.709   6.384 -1.0170 -1.5001 -0.2279
10619TIP3    H253273   6.497   2.770   6.513 -0.5431  1.3759 -1.6800
10620TIP3   OH253274   4.100   1.354  13.110 -0.0103  0.1779 -0.3968
10620TIP3    H153275   4.102   1.298  13.187 -0.0769  0.1633 -0.4054
10620TIP3    H253276   4.051   1.431  13.137 -2.5209 -1.0221 -1.2242
10621TIP3   OH253277   5.468   1.740   5.516 -0.2687  0.7641  0.4530
10621TIP3    H153278   5.401   1.800   5.485 -0.3884  0.2001 -0.4220
10621TIP3    H253279   5.549   1.773   5.479 -0.5780 -0.6413 -1.6578
10622TIP3   OH253280   5.447   2.191  11.651 -0.2754  0.5363 -0.1252
10622TIP3    H153281   5.397   2.208  11.730 -0.7549  0.3574 -0.3882
10622TIP3    H253282   5.481   2.102  11.663 -0.4530  0.4616 -0.1773
10623TIP3   OH253283   2.107   6.246   5.663  0.1807  0.0761 -0.1339
10623TIP3    H153284   2.046   6.173   5.668  1.0651 -0.6273  1.1370
10623TIP3    H253285   2.158   6.229   5.584  1.9834 -2.0863  1.3671
10624TIP3   OH253286   0.753   1.594  13.108 -0.6805  0.1477 -0.2477
10624TIP3    H153287   0.771   1.668  13.049  1.3490  0.6666  0.9245
10624TIP3    H253288   0.840   1.558  13.127 -1.6408 -2.8034 -1.0364
10625TIP3   OH253289   5.075   4.678  11.224 -0.1978 -0.3350 -0.3542
10625TIP3    H153290   5.010   4.738  11.260  2.0818  1.4177  1.1199
10625TIP3    H253291   5.085   4.610  11.291 -0.9022 -0.9395 -0.8497
10626TIP3   OH253292   4.429   6.359   2.687 -0.0936 -0.2191 -0.0545
10626TIP3    H153293   4.514   6.359   2.732  0.5035  0.3665 -1.1488
10626TIP3    H253294   4.366   6.334   2.755  0.8580  0.0440  0.9489
10627TIP3   OH253295   5.328   4.742  11.414  0.5476 -0.1580  0.4500
10627TIP3    H153296   5.418   4.712  11.408  0.2919 -0.7723 -0.5653
10627TIP3    H253297   5.276   4.662  11.413  0.0469  0.0448  3.2801
10628TIP3   OH253298   3.946   3.830   4.885 -0.8109  0.6152  0.2843
10628TIP3    H153299   3.934   3.853   4.793  0.0200  0.3650  0.1052
10628TIP3    H253300   3.957   3.735   4.885  0.5349  0.7495  0.4772
10629TIP3   OH253301   5.021   2.847   0.698 -0.1841  0.6380  0.1803
10629TIP3    H153302   4.948   2.831   0.759  0.1443 -0.5585  0.2733
10629TIP3    H253303   4.980   2.892   0.624 -1.0934 -0.2822  0.0962
10630TIP3   OH253304   0.450   0.186  13.895  0.1715  0.0115  0.0646
10630TIP3    H153305   0.354   0.180  13.904  0.1687 -0.7097 -0.4283
10630TIP3    H253306   0.474   0.109  13.844  0.7933  1.2078 -1.5305
10631TIP3   OH253307   3.718   1.339   4.129  0.1332 -0.0455 -0.2543
10631TIP3    H153308   3.779   1.396   4.080  1.5938 -2.6436 -1.7080
10631TIP3    H253309   3.775   1.278   4.175 -1.2598  1.4934  3.9303
10632TIP3   OH253310   4.778   0.759  15.556  0.0241 -0.0230  0.3003
10632TIP3    H153311   4.740   0.704  15.624  1.0981 -1.9810 -0.5778
10632TIP3    H253312   4.866   0.723  15.543  1.1132  2.4862  0.2571
10633TIP3   OH253313   2.244   6.813  12.850 -0.2360  0.0771  0.0879
10633TIP3    H153314   2.169   6.850  12.897 -2.6031 -1.3708 -2.2772
10633TIP3    H253315   2.245   6.720  12.876 -1.0770 -0.5561 -1.9158
10634TIP3   OH253316   1.144   0.956   0.443 -0.2219  0.2184 -0.7590
10634TIP3    H153317   1.123   0.864   0.426  0.2580  0.2436 -1.5615
10634TIP3    H253318   1.240   0.958   0.448 -0.2790  0.1520  2.4923
10635TIP3   OH253319   2.864   0.115  11.151  0.0407 -0.0414  0.1318
10635TIP3    H153320   2.889   0.160  11.071  1.2424 -1.3155 -0.2642
10635TIP3    H253321   2.849   0.185  11.215  0.4089  0.9446 -0.8331
10636TIP3   OH253322   3.884   2.157  11.212  0.1533 -0.4385  0.1593
10636TIP3    H153323   3.948   2.154  11.140 -0.9569  2.1020 -1.0585
10636TIP3    H253324   3.805   2.119  11.174 -0.8770  2.2303 -0.5741
10637TIP3   OH253325   6.067   5.547  16.949  0.3523 -0.1510 -0.2305
10637TIP3    H153326   5.980   5.513  16.970  0.5903 -0.4013  0.3779
10637TIP3    H253327   6.086   5.609  17.020  1.3219 -1.2738  0.5507
10638TIP3   OH253328   2.223   6.665  16.921 -0.3447 -0.1779  0.3318
10638TIP3    H153329   2.205   6.622  16.837  0.4333  0.2504 -0.0624
10638TIP3    H253330   2.137   6.674  16.962 -0.7652 -0.1898 -0.5228
10639TIP3   OH253331   2.807   3.224   4.026 -0.6288 -0.2928 -0.0897
10639TIP3    H153332   2.849   3.290   3.972 -1.0273 -0.9977 -1.2923
10639TIP3    H253333   2.755   3.172   3.965 -1.7454 -0.6068  1.0946
10640TIP3   OH253334   5.758   2.424  13.912 -0.3991 -0.9930  0.5445
10640TIP3    H153335   5.842   2.449  13.872  0.9489 -0.9382  3.1826
10640TIP3    H253336   5.720   2.506  13.941 -1.4343 -1.0219 -0.6149
10641TIP3   OH253337   5.231   4.934   5.857  0.9298 -0.4696 -0.2957
10641TIP3    H153338   5.211   5.023   5.884  0.1410 -0.6623 -0.2180
10641TIP3    H253339   5.308   4.910   5.908  0.4457 -0.2406  0.5644
10642TIP3   OH253340   5.303   5.073  15.053  0.2715 -0.2485 -0.1582
10642TIP3    H153341   5.366   5.035  14.991 -1.2034  3.3276 -4.3754
10642TIP3    H253342   5.356   5.130  15.109  1.3303 -1.2377 -0.1167
10643TIP3   OH253343   5.722   3.891   0.617 -0.4834 -0.2486  0.0844
10643TIP3    H153344   5.745   3.980   0.643  1.0078 -0.3156 -0.8666
10643TIP3    H253345   5.640   3.873   0.663 -0.7013  1.5222  0.4720
10644TIP3   OH253346   3.406   4.042   3.418  0.7779 -0.0891  0.2443
10644TIP3    H153347   3.318   4.063   3.388  1.3443  0.0990 -1.4186
10644TIP3    H253348   3.437   3.976   3.357  2.2872  0.8705 -0.1021
10645TIP3   OH253349   0.554   0.267  14.163  0.0050 -0.5587 -0.7334
10645TIP3    H153350   0.514   0.272  14.077  0.9306 -0.9118 -1.1995
10645TIP3    H253351   0.483   0.240  14.222 -1.1917  1.8067 -0.9561
10646TIP3   OH253352   6.584   6.561   0.988 -0.0981  0.1181 -0.1890
10646TIP3    H153353   6.573   6.466   0.997 -0.8516  0.3240  1.6255
10646TIP3    H253354   6.646   6.572   0.916  0.0312 -1.7472 -0.4097
10647TIP3   OH253355   0.936   3.837   1.973  0.6927  0.0742  0.5659
10647TIP3    H153356   0.954   3.877   2.058  0.7760 -0.9161  1.0252
10647TIP3    H253357   0.841   3.839   1.965  0.7373  1.5615 -0.0264
10648TIP3   OH253358   4.714   5.534   3.651  0.0913  0.2578  0.6283
10648TIP3    H153359   4.637   5.499   3.607  0.9877 -0.2645 -0.5736
10648TIP3    H253360   4.775   5.460   3.657  0.3276  0.5337  1.9949
10649TIP3   OH253361   6.724   3.814  11.826 -1.0340  0.0924 -0.8645
10649TIP3    H153362   6.739   3.783  11.737  0.4403  1.7302 -1.2176
10649TIP3    H253363   6.798   3.871  11.845 -0.1761 -1.8211  2.2010
10650TIP3   OH253364   0.313   4.735   3.880  0.3805  0.0787 -0.3152
10650TIP3    H153365   0.277   4.733   3.791  0.8404 -0.1178 -0.5017
10650TIP3    H253366   0.370   4.812   3.880  2.1004 -1.1209 -0.8895
10651TIP3   OH253367   2.455   0.187  12.747 -0.1738  0.4402 -0.0235
10651TIP3    H153368   2.409   0.255  12.697  0.9391  0.5513 -0.9350
10651TIP3    H253369   2.387   0.150  12.804 -1.1942  1.1581 -0.7240
10652TIP3   OH253370   4.864   1.544   1.605  0.5014  0.0656 -0.7742
10652TIP3    H153371   4.945   1.511   1.644  0.0854 -0.1695 -0.1098
10652TIP3    H253372   4.807   1.564   1.679 -0.0716  0.1887 -1.2392
10653TIP3   OH253373   2.880   3.251   5.752  0.5342  0.1886  0.6663
10653TIP3    H153374   2.829   3.210   5.821 -0.0496  1.5548  1.0880
10653TIP3    H253375   2.866   3.345   5.765  3.0053  0.6250  0.7064
10654TIP3   OH253376   5.884   5.022   3.202  0.3300 -0.2047  0.1288
10654TIP3    H153377   5.859   5.042   3.112  1.2096 -1.5056 -0.4344
10654TIP3    H253378   5.949   4.952   3.194  0.1732 -0.5827  1.7898
10655TIP3   OH253379   3.349   2.532  10.865  0.2133  0.3193  0.4713
10655TIP3    H153380   3.261   2.509  10.893 -0.7555  0.3402 -2.3249
10655TIP3    H253381   3.394   2.448  10.853 -0.7673  0.0614 -1.9396
10656TIP3   OH253382   0.625   6.340   1.735 -0.0746 -0.1075 -0.4138
10656TIP3    H153383   0.557   6.354   1.669 -1.1820 -0.3024  0.6660
10656TIP3    H253384   0.610   6.408   1.801  2.1519  1.2680 -1.1971
10657TIP3   OH253385   6.248   2.230  14.186  0.0531 -0.1070 -0.0529
10657TIP3    H153386   6.195   2.250  14.109  1.5988 -0.1745 -1.1830
10657TIP3    H253387   6.232   2.304  14.245 -1.4037 -0.2117 -0.2744
10658TIP3   OH253388   4.821   6.775  15.786  0.0701 -1.0690  0.1385
10658TIP3    H153389   4.798   6.787  15.694 -0.8822  0.0291  0.5039
10658TIP3    H253390   4.737   6.762  15.830  0.2226  1.1791  1.2357
10659TIP3   OH253391   2.135   2.195   6.594  0.5526  0.2446  0.6477
10659TIP3    H153392   2.057   2.201   6.539  0.7745 -0.6791  0.2220
10659TIP3    H253393   2.178   2.114   6.567  2.6024  1.5721 -0.3663
10660TIP3   OH253394   3.163   3.596   5.878  0.5040  0.3175 -0.0757
10660TIP3    H153395   3.104   3.549   5.937 -0.2176  1.5238  0.1882
10660TIP3    H253396   3.177   3.534   5.806  0.4629 -0.7202  0.7798
10661TIP3   OH253397   4.031   5.910   5.434  0.5494  0.2313  0.1440
10661TIP3    H153398   4.086   5.892   5.358  0.9292  1.0603  0.2140
10661TIP3    H253399   4.077   5.980   5.481  0.1311 -0.0104  0.9392
10662TIP3   OH253400   3.013   6.687   3.866  0.1004 -0.1472  0.2798
10662TIP3    H153401   3.017   6.698   3.961 -1.2664 -0.7809  0.4277
10662TIP3    H253402   2.955   6.757   3.837 -0.9129 -1.0367  0.1251
10663TIP3   OH253403   0.082   3.689  12.011  0.0890 -0.6146  0.2792
10663TIP3    H153404   0.027   3.721  11.939  0.6058 -0.2545  0.0410
10663TIP3    H253405   0.044   3.604  12.033  0.5243 -1.1922 -1.0984
10664TIP3   OH253406   1.950   4.102  15.173 -0.3589  0.6882  0.8829
10664TIP3    H153407   2.013   4.163  15.211  0.4530 -0.3643  1.2712
10664TIP3    H253408   1.907   4.062  15.248  1.1443 -1.2901  0.7519
10665TIP3   OH253409   2.622   1.572  16.113  0.1012 -0.3027 -0.3279
10665TIP3    H153410   2.657   1.555  16.025  2.1454  0.5133  0.2829
10665TIP3    H253411   2.643   1.492  16.162 -0.3634 -0.4567 -0.3780
10666TIP3   OH253412   5.703   5.322  11.727 -0.0549  0.2318 -0.1600
10666TIP3    H153413   5.742   5.246  11.769 -0.8456  0.3082  0.7658
10666TIP3    H253414   5.668   5.290  11.645 -1.1145 -0.6152  0.5921
10667TIP3   OH253415   4.292   0.588  12.516  0.0411  0.0261  0.3966
10667TIP3    H153416   4.259   0.498  12.523  2.9278 -1.2051 -0.3468
10667TIP3    H253417   4.295   0.605  12.422 -0.8040  1.0776  0.5425
10668TIP3   OH253418   0.278   1.638  13.584 -0.3526 -0.7694  0.2826
10668TIP3    H153419   0.214   1.591  13.531  1.5220 -2.8586 -0.2783
10668TIP3    H253420   0.322   1.697  13.522 -0.7565 -0.3717  0.3691
10669TIP3   OH253421   3.118   3.271  13.437 -0.1178  0.3143  0.1379
10669TIP3    H153422   3.046   3.321  13.476 -0.6396  0.8331 -1.4409
10669TIP3    H253423   3.078   3.190  13.408 -0.2734  0.9143 -1.4281
10670TIP3   OH253424   0.300   2.281   0.321 -0.3226  0.4319 -0.1309
10670TIP3    H153425   0.380   2.293   0.269  0.9762 -0.1148  1.6425
10670TIP3    H253426   0.293   2.362   0.373 -0.6769  0.3008  0.0279
10671TIP3   OH253427   3.646   5.756   0.289  0.0579  0.7019  0.1798
10671TIP3    H153428   3.604   5.757   0.204  1.0961  1.8681 -0.3586
10671TIP3    H253429   3.710   5.686   0.284  0.4482  1.0799 -0.1836
10672TIP3   OH253430   2.633   1.067  15.515  0.0989 -0.3759 -0.1457
10672TIP3    H153431   2.650   0.994  15.456  2.1640  0.2663 -0.4380
10672TIP3    H253432   2.558   1.112  15.477  0.3253 -0.9476 -1.3257
10673TIP3   OH253433   5.553   2.531   3.985  0.7272  0.2267 -0.4663
10673TIP3    H153434   5.568   2.447   4.028 -0.0829  0.9081  1.2267
10673TIP3    H253435   5.624   2.538   3.922  2.3219 -0.6143  1.1305
10674TIP3   OH253436   1.669   1.979   3.026 -0.2164  0.1348 -0.5193
10674TIP3    H153437   1.738   1.925   3.065 -0.7222 -0.5297 -0.5439
10674TIP3    H253438   1.707   2.067   3.023 -0.2964  0.3068  1.8669
10675TIP3   OH253439   3.459   1.213  14.590 -0.0121  0.1802 -0.1218
10675TIP3    H153440   3.537   1.251  14.549 -0.3418  0.5331 -0.4304
10675TIP3    H253441   3.386   1.248  14.539 -0.4094  0.3167  0.5383
10676TIP3   OH253442   3.742   2.058  14.132 -0.1303 -0.2445 -0.6456
10676TIP3    H153443   3.736   2.151  14.152  0.5088 -0.2320 -0.4722
10676TIP3    H253444   3.743   2.015  14.217  1.9048 -0.2371 -0.6089
10677TIP3   OH253445   4.691   2.505  11.362 -0.0855 -0.1878  0.7424
10677TIP3    H153446   4.756   2.536  11.425  0.8697 -2.7675  1.1621
10677TIP3    H253447   4.736   2.511  11.277  0.0233 -0.2000  0.7988
10678TIP3   OH253448   5.158   1.083  14.887  0.5314  0.2762 -0.5241
10678TIP3    H153449   5.106   1.090  14.807  2.3560  0.1607 -1.7807
10678TIP3    H253450   5.248   1.076  14.857  1.1911 -1.0210  1.5132
10679TIP3   OH253451   5.698   2.414   5.980 -0.0137  0.0061  0.9674
10679TIP3    H153452   5.746   2.354   6.037  1.9475  0.6811  0.0942
10679TIP3    H253453   5.710   2.500   6.020 -1.7318  0.0454  1.4969
10680TIP3   OH253454   4.053   0.683  13.963 -0.1508 -0.2337  0.4645
10680TIP3    H153455   4.114   0.680  14.037  1.2927 -1.8836 -0.7080
10680TIP3    H253456   3.997   0.606  13.975 -1.6077  0.8872  1.1548
10681TIP3   OH253457   0.389   0.705   1.717  0.4341  0.4907  0.4641
10681TIP3    H153458   0.416   0.716   1.626  3.2860 -0.2771  1.1008
10681TIP3    H253459   0.366   0.612   1.725 -1.0009  0.8171  0.2785
10682TIP3   OH253460   5.089   3.892  11.913  0.1569  0.2997  0.0829
10682TIP3    H153461   5.171   3.863  11.873 -0.5165  1.6279 -2.4935
10682TIP3    H253462   5.045   3.811  11.939  2.3417 -0.4443  1.8830
10683TIP3   OH253463   4.705   3.880  15.250  0.0841 -0.1704  0.0271
10683TIP3    H153464   4.729   3.920  15.334 -0.7230  0.4889 -0.0449
10683TIP3    H253465   4.659   3.800  15.273  2.3407 -1.5148  0.1721
10684TIP3   OH253466   1.107   2.906   2.279 -0.2962 -0.3834  0.0137
10684TIP3    H153467   1.014   2.883   2.270 -0.5741  0.5759  0.3819
10684TIP3    H253468   1.111   2.966   2.353  0.5115  0.1802 -0.4620
10685TIP3   OH253469   2.316   5.722  12.498  0.0016  0.2212 -0.0392
10685TIP3    H153470   2.412   5.723  12.498  0.0813 -1.4815 -2.0779
10685TIP3    H253471   2.292   5.725  12.591  1.9500  2.2187  0.4844
10686TIP3   OH253472   0.818   0.397  12.072  0.2290  0.4983 -0.1395
10686TIP3    H153473   0.819   0.492  12.069  1.4933  0.5001 -0.4471
10686TIP3    H253474   0.904   0.374  12.107 -0.4165 -0.5134  0.8655
10687TIP3   OH253475   2.652   6.119  15.711  0.0762  0.3380 -0.5632
10687TIP3    H153476   2.651   6.185  15.780  0.4849 -0.5417  0.3176
10687TIP3    H253477   2.723   6.145  15.653  1.6043 -0.3732  0.8861
10688TIP3   OH253478   1.564   0.452  15.889  0.5078 -0.4209 -0.1661
10688TIP3    H153479   1.470   0.431  15.891  0.4616 -0.1760  1.3886
10688TIP3    H253480   1.600   0.393  15.822 -0.7463 -0.5124 -0.7923
10689TIP3   OH253481   2.779   1.891   5.064  0.0933  0.7825  0.1607
10689TIP3    H153482   2.746   1.803   5.082  2.8949 -0.1792  1.1066
10689TIP3    H253483   2.727   1.922   4.990 -2.3636 -0.8006  1.1096
10690TIP3   OH253484   3.233   2.993   3.611  0.0613 -0.1414  0.7039
10690TIP3    H153485   3.318   3.010   3.652 -1.1104  0.2587  3.1422
10690TIP3    H253486   3.252   2.991   3.517  2.6642  0.4237  1.1331
10691TIP3   OH253487   1.805   2.777   5.101 -0.5591  0.0112 -0.2331
10691TIP3    H153488   1.784   2.686   5.079 -3.5194  0.4234  0.4811
10691TIP3    H253489   1.775   2.787   5.191  1.7961  1.1567  0.4927
10692TIP3   OH253490   4.169   1.481   3.322 -0.0107  0.3520  0.2552
10692TIP3    H153491   4.256   1.442   3.332 -0.3959 -0.5988  0.0067
10692TIP3    H253492   4.173   1.562   3.372  1.2105  0.6171 -0.2410
10693TIP3   OH253493   1.720   5.009   0.162 -0.0824 -0.0551 -0.1251
10693TIP3    H153494   1.780   5.083   0.154 -0.0933  0.0528  0.7099
10693TIP3    H253495   1.774   4.932   0.144  0.3559  0.0273  0.7814
10694TIP3   OH253496   1.731   4.129   1.044  0.9216 -0.0600 -0.4623
10694TIP3    H153497   1.710   4.221   1.057  2.0731  0.3791 -1.4928
10694TIP3    H253498   1.693   4.107   0.959 -1.2787 -1.1915  0.7432
10695TIP3   OH253499   0.314   0.590  13.321 -0.5571  0.6160  0.5599
10695TIP3    H153500   0.406   0.601  13.343 -0.2915  2.9582 -1.2802
10695TIP3    H253501   0.312   0.515  13.261  0.2501  0.8140  0.2669
10696TIP3   OH253502   6.468   0.239  15.797  0.5962 -0.0943  0.4328
10696TIP3    H153503   6.454   0.276  15.709 -1.9545 -0.5114  0.5841
10696TIP3    H253504   6.528   0.301  15.839  0.2720  1.2198 -0.9281
10697TIP3   OH253505   5.883   1.839   2.449 -0.1487  0.8170 -0.0198
10697TIP3    H153506   5.884   1.880   2.362  1.8608  0.8606 -0.0201
10697TIP3    H253507   5.931   1.900   2.505 -0.6136  0.3394  0.9356
10698TIP3   OH253508   2.512   1.491   4.603  0.2950  0.7344  0.1389
10698TIP3    H153509   2.531   1.544   4.526  0.1572  1.1271  0.3702
10698TIP3    H253510   2.466   1.415   4.569  1.9959 -0.1022 -0.3946
10699TIP3   OH253511   5.186   1.176   1.420 -0.3945 -0.7271 -0.1963
10699TIP3    H153512   5.218   1.248   1.474 -1.2467  0.3015 -1.0224
10699TIP3    H253513   5.139   1.119   1.480 -0.3587 -0.1994  0.3323
10700TIP3   OH253514   3.858   4.866  13.121  0.1571  0.3379  0.4699
10700TIP3    H153515   3.928   4.845  13.059  0.2764 -2.1221  1.3277
10700TIP3    H253516   3.895   4.931  13.179  1.0594  0.4923 -0.2665
10701TIP3   OH253517   1.760   1.566   4.497 -0.0146 -0.2692 -0.0026
10701TIP3    H153518   1.733   1.475   4.503  0.3995 -0.4177 -0.2647
10701TIP3    H253519   1.689   1.610   4.449  0.6494 -0.8666 -1.6238
10702TIP3   OH253520   2.138   4.373  12.852  0.0116  0.3051 -0.0560
10702TIP3    H153521   2.192   4.380  12.773 -0.8556  0.5394 -0.6456
10702TIP3    H253522   2.187   4.315  12.910 -0.5076 -2.0181 -1.7941
10703TIP3   OH253523   6.651   4.381  11.006 -0.1286  0.0841  0.2036
10703TIP3    H153524   6.586   4.327  10.961  0.6834 -2.2203  1.6130
10703TIP3    H253525   6.600   4.442  11.059 -1.1354 -0.9702  0.4714
10704TIP3   OH253526   0.784   4.184   0.888  0.2014 -0.3608 -0.0008
10704TIP3    H153527   0.708   4.231   0.855 -0.6404  0.2352  2.5486
10704TIP3    H253528   0.795   4.110   0.829 -0.8361  0.8763 -1.8324
10705TIP3   OH253529   1.514   4.336   4.362 -0.2052 -0.2154 -0.2986
10705TIP3    H153530   1.515   4.248   4.324  0.9577  0.3663 -1.7058
10705TIP3    H253531   1.597   4.344   4.409 -0.8062 -0.2492  0.8141
10706TIP3   OH253532   2.069   0.927  14.643 -0.4770 -0.5060 -0.0782
10706TIP3    H153533   2.109   0.850  14.601 -1.3315 -0.9431 -0.1218
10706TIP3    H253534   2.011   0.963  14.577 -1.3604 -0.8294  0.4951
10707TIP3   OH253535   6.687   0.870   3.114 -0.0305 -0.1647 -0.2379
10707TIP3    H153536   6.627   0.932   3.073 -1.1112 -0.1108  1.3722
10707TIP3    H253537   6.759   0.925   3.147 -1.2927  0.3916  1.7525
10708TIP3   OH253538   2.288   5.452   3.812  0.6384  0.4922 -0.1925
10708TIP3    H153539   2.267   5.492   3.896 -1.2061  0.6671 -0.6876
10708TIP3    H253540   2.351   5.383   3.833 -1.3385 -0.8608  1.6644
10709TIP3   OH253541   0.661   2.062  14.768 -0.0236  0.3637 -0.3813
10709TIP3    H153542   0.684   1.971  14.787 -0.1595  0.2275 -0.8577
10709TIP3    H253543   0.565   2.061  14.761 -0.0926  0.7045  0.4355
10710TIP3   OH253544   3.849   1.083   0.071 -0.1337 -0.2831 -0.4582
10710TIP3    H153545   3.922   1.023   0.088 -1.7608 -2.4364 -0.6964
10710TIP3    H253546   3.879   1.167   0.107  1.8246 -1.4632  0.8681
10711TIP3   OH253547   3.281   5.409   2.627 -0.0395 -0.0021 -0.1178
10711TIP3    H153548   3.195   5.367   2.619 -1.5443  2.2194  2.5046
10711TIP3    H253549   3.289   5.462   2.548 -2.0606  1.2174  0.3976
10712TIP3   OH253550   2.622   6.702   1.899 -0.3086 -0.2660 -0.5714
10712TIP3    H153551   2.679   6.777   1.916  1.0386 -1.2084 -0.8476
10712TIP3    H253552   2.557   6.735   1.836  2.8254 -0.3572 -4.2101
10713TIP3   OH253553   2.269   1.691  12.857  0.0435 -0.0358  0.3870
10713TIP3    H153554   2.235   1.757  12.796  2.1169 -0.0195 -0.8556
10713TIP3    H253555   2.360   1.678  12.830  0.4429 -1.5447  2.2355
10714TIP3   OH253556   3.827   0.426   3.941 -0.4851 -0.0034  0.0536
10714TIP3    H153557   3.899   0.404   3.881 -0.6689  0.5562 -0.3835
10714TIP3    H253558   3.871   0.456   4.021 -0.1912 -3.0718  1.1877
10715TIP3   OH253559   3.884   1.026   5.403  0.2333  0.2753 -0.2814
10715TIP3    H153560   3.800   1.062   5.432  0.0611  1.1367 -1.7361
10715TIP3    H253561   3.860   0.961   5.337  0.6096 -1.7165  1.4432
10716TIP3   OH253562   2.886   1.885   1.925 -0.1247 -0.2018 -0.4515
10716TIP3    H153563   2.975   1.901   1.957 -0.1802  1.6296 -1.0671
10716TIP3    H253564   2.889   1.796   1.890  1.0286 -0.7471  0.9064
10717TIP3   OH253565   4.288   5.103  11.136 -0.2683 -0.3978 -0.6372
10717TIP3    H153566   4.270   5.032  11.197 -0.9795 -0.2368 -0.6564
10717TIP3    H253567   4.220   5.097  11.069 -0.2346  0.1893 -0.7365
10718TIP3   OH253568   5.186   6.182   6.082  0.4475 -0.4317  0.0551
10718TIP3    H153569   5.144   6.243   6.144  0.9726  0.1838 -0.1837
10718TIP3    H253570   5.254   6.139   6.133 -0.7787 -1.8313  0.5936
10719TIP3   OH253571   5.309   3.997   5.400  0.2758 -0.5977 -0.2090
10719TIP3    H153572   5.280   3.909   5.423  0.3193 -0.1379  1.8228
10719TIP3    H253573   5.230   4.041   5.370 -0.1549 -0.8042  0.5781
10720TIP3   OH253574   5.436   4.923  11.694  0.1360 -0.7979  0.3128
10720TIP3    H153575   5.461   4.950  11.605 -0.4064  0.8262  0.6322
10720TIP3    H253576   5.519   4.916  11.741  0.5695 -2.9966 -0.6074
10721TIP3   OH253577   3.675   6.726   1.821 -0.2699 -0.4604  0.4135
10721TIP3    H153578   3.702   6.801   1.874 -0.9334  0.1538 -0.1131
10721TIP3    H253579   3.582   6.740   1.804 -0.1365 -0.8059 -0.6601
10722TIP3   OH253580   2.151   5.644  14.688 -0.1860 -0.6982 -0.4534
10722TIP3    H153581   2.223   5.649  14.625 -0.1250 -0.2987 -0.3594
10722TIP3    H253582   2.195   5.631  14.772 -0.2616 -1.1284 -0.4792
10723TIP3   OH253583   4.914   5.358  13.184 -0.2357 -0.1839  0.1970
10723TIP3    H153584   4.957   5.278  13.153  0.2095 -0.2917  1.0744
10723TIP3    H253585   4.900   5.344  13.277  0.3900  0.9898  0.4921
10724TIP3   OH253586   3.833   0.831   3.971  0.3650  0.1383  0.4154
10724TIP3    H153587   3.850   0.825   3.877  0.3171  0.5144  0.3800
10724TIP3    H253588   3.738   0.833   3.979  0.3716  0.4904  0.4422
10725TIP3   OH253589   1.925   5.471  15.461 -0.0143 -0.7015  0.0451
10725TIP3    H153590   1.924   5.486  15.556 -0.8170 -0.2242 -0.0327
10725TIP3    H253591   1.995   5.406  15.448  1.6091  0.8171  0.7092
10726TIP3   OH253592   1.759   1.232   5.900  0.2194  0.2396 -0.1295
10726TIP3    H153593   1.706   1.167   5.945  0.2420 -1.2205 -2.0898
10726TIP3    H253594   1.836   1.245   5.956  1.4921 -3.3946 -0.7908
10727TIP3   OH253595   6.703   4.352  16.128 -0.3445 -0.2854 -0.3746
10727TIP3    H153596   6.733   4.332  16.039  0.9794  1.5753 -0.4080
10727TIP3    H253597   6.655   4.274  16.155  1.7497 -2.1168 -1.5993
10728TIP3   OH253598   2.658   3.425   0.425  0.1627 -0.3091 -0.2973
10728TIP3    H153599   2.717   3.481   0.476 -2.4154  1.4706  0.9739
10728TIP3    H253600   2.713   3.389   0.355  2.6032  1.5901  0.5046
10729TIP3   OH253601   5.494   1.820  15.158  0.6650 -0.1213 -0.1774
10729TIP3    H153602   5.439   1.858  15.089  1.0650  0.8228  0.0106
10729TIP3    H253603   5.435   1.812  15.233 -0.2086 -2.6353 -1.0378
10730TIP3   OH253604   2.710   4.806  16.144 -0.6629  0.2393 -0.0795
10730TIP3    H153605   2.671   4.722  16.171 -0.0856 -0.3415 -1.0224
10730TIP3    H253606   2.665   4.828  16.062 -0.8666  0.9025  0.2014
10731TIP3   OH253607   1.614   1.953   0.928  0.0025 -0.1682  0.0067
10731TIP3    H153608   1.558   2.009   0.874  0.3570  0.4298  0.2472
10731TIP3    H253609   1.597   1.981   1.018 -0.8846 -1.4320  0.2564
10732TIP3   OH253610   4.797   3.798   1.048  0.2064  0.4853  0.1451
10732TIP3    H153611   4.773   3.722   0.994  0.3681  1.3865 -1.2601
10732TIP3    H253612   4.729   3.802   1.116  0.1866 -0.8923  0.2314
10733TIP3   OH253613   0.914   2.090  14.603 -0.4926  0.2043  0.0258
10733TIP3    H153614   0.838   2.057  14.650 -1.0316  1.2510 -0.0887
10733TIP3    H253615   0.910   2.185  14.614 -0.5169  0.4728 -1.9546
10734TIP3   OH253616   6.365   3.178  15.403  0.0574  0.1071 -0.5503
10734TIP3    H153617   6.285   3.178  15.350 -0.3124  1.8688 -0.0620
10734TIP3    H253618   6.408   3.260  15.381 -0.4485  1.2570  2.3116
10735TIP3   OH253619   2.223   0.876  12.796 -0.2093  0.1055  0.4213
10735TIP3    H153620   2.259   0.875  12.885  2.5424  0.3248 -0.6133
10735TIP3    H253621   2.164   0.801  12.794  1.0195 -0.9619  1.9132
10736TIP3   OH253622   5.527   4.947   0.271 -0.3850 -0.0048 -0.2064
10736TIP3    H153623   5.594   4.964   0.337 -1.5694  3.0140  0.3987
10736TIP3    H253624   5.575   4.943   0.188  0.7693 -0.4361  0.4583
10737TIP3   OH253625   2.247   3.535  14.525  0.0707 -0.3666 -0.1647
10737TIP3    H153626   2.281   3.600  14.587 -1.7969  0.9241 -0.3987
10737TIP3    H253627   2.236   3.456  14.577  0.2101  0.1721  0.7128
10738TIP3   OH253628   1.130   4.038   6.078 -0.1448 -0.6469  0.4583
10738TIP3    H153629   1.117   4.070   6.168 -0.9447 -1.7722  0.7625
10738TIP3    H253630   1.203   3.976   6.085  0.2212 -0.2540  0.1969
10739TIP3   OH253631   0.991   4.067   5.437 -0.0036 -0.0320  0.1842
10739TIP3    H153632   1.031   4.137   5.386 -2.5584 -0.3084 -2.4559
10739TIP3    H253633   1.044   3.989   5.415  2.0955  0.7226  2.1890
10740TIP3   OH253634   4.040   3.050   1.352 -0.0220  0.4487  0.0422
10740TIP3    H153635   4.030   3.096   1.435 -0.9090 -0.2907  0.3737
10740TIP3    H253636   4.103   2.981   1.371 -2.5430 -1.7589  1.0832
10741TIP3   OH253637   3.044   5.013   3.509  0.0166 -0.5846  0.0766
10741TIP3    H153638   3.132   5.044   3.530 -0.5391  1.2776 -0.2073
10741TIP3    H253639   3.042   5.008   3.414  0.4919 -2.8317  0.1292
10742TIP3   OH253640   3.208   5.897   2.538 -0.0639 -0.5193 -0.3617
10742TIP3    H153641   3.179   5.974   2.587 -1.4034 -0.4296 -1.2768
10742TIP3    H253642   3.289   5.925   2.496  0.5464 -0.2652  0.9146
10743TIP3   OH253643   0.755   3.093   5.134  0.5449 -0.1993 -0.1626
10743TIP3    H153644   0.724   3.145   5.060 -1.4921 -0.5040  0.3989
10743TIP3    H253645   0.733   3.003   5.111  0.0379 -0.3164  0.7256
10744TIP3   OH253646   5.582   2.964   4.781  0.0249  0.0279 -0.1769
10744TIP3    H153647   5.508   2.983   4.724  0.5298 -0.3533 -0.9646
10744TIP3    H253648   5.589   2.869   4.782  2.2528  0.0465 -2.4658
10745TIP3   OH253649   6.267   6.247  12.049  0.1091  0.4097 -0.0114
10745TIP3    H153650   6.220   6.297  12.115  0.5516  1.1346 -0.2334
10745TIP3    H253651   6.357   6.281  12.052  0.6186 -0.9008  0.3630
10746TIP3   OH253652   3.284   6.618   0.893  0.1608 -0.0839 -0.4369
10746TIP3    H153653   3.221   6.675   0.848  0.5498 -0.6248 -1.7279
10746TIP3    H253654   3.360   6.673   0.908 -0.4321  0.4513  0.7305
10747TIP3   OH253655   2.861   2.681   3.596 -0.2447 -0.2985  0.2670
10747TIP3    H153656   2.935   2.742   3.593 -0.2020 -0.3673 -2.5225
10747TIP3    H253657   2.791   2.727   3.550  0.3613 -2.9116 -3.7315
10748TIP3   OH253658   5.084   2.503  10.926  0.2543 -0.3841 -0.0357
10748TIP3    H153659   5.071   2.473  10.836 -0.8752 -1.9066  0.6004
10748TIP3    H253660   5.095   2.598  10.917 -0.7148 -0.3713 -1.7064
10749TIP3   OH253661   6.703   1.422   3.609  0.3208  0.1990  0.2181
10749TIP3    H153662   6.728   1.401   3.699 -0.6632  0.2911  0.5168
10749TIP3    H253663   6.611   1.398   3.603  0.6191 -0.7534 -1.0638
10750TIP3   OH253664   1.626   0.559  13.913 -0.3464  0.4999 -0.0963
10750TIP3    H153665   1.693   0.609  13.960  1.3749 -0.9575 -0.8692
10750TIP3    H253666   1.627   0.472  13.953 -1.3579  0.2745 -0.5202
10751TIP3   OH253667   6.037   1.154   0.690 -0.5312  0.0891 -0.0656
10751TIP3    H153668   5.969   1.218   0.710 -0.5544 -0.7494  2.9973
10751TIP3    H253669   6.020   1.081   0.750  2.0820 -0.8866 -0.3706
10752TIP3   OH253670   6.495   6.799  14.181 -0.4549 -0.1224  0.2193
10752TIP3    H153671   6.418   6.743  14.180 -0.0579 -0.9761  4.1090
10752TIP3    H253672   6.517   6.809  14.273  3.1361  1.4608 -0.6317
10753TIP3   OH253673   0.046   2.470   2.065 -0.8385 -0.1450  0.1437
10753TIP3    H153674   0.126   2.513   2.096 -1.0545  0.6528 -0.3768
10753TIP3    H253675  -0.023   2.534   2.079 -1.0461 -0.0122 -1.3501
10754TIP3   OH253676   6.140   2.525   1.956 -0.2481  0.3073 -0.2488
10754TIP3    H153677   6.092   2.561   1.881  1.8573  1.7200 -0.9931
10754TIP3    H253678   6.085   2.544   2.031 -1.1183  1.3794 -1.1270
10755TIP3   OH253679   2.799   2.456   4.584 -0.0035 -0.4439  0.3146
10755TIP3    H153680   2.735   2.527   4.591 -0.2034 -0.1665 -2.8425
10755TIP3    H253681   2.752   2.379   4.615 -0.2201  0.5059  2.5421
10756TIP3   OH253682   5.342   6.023  14.252  0.8976 -0.2519  0.3075
10756TIP3    H153683   5.367   6.070  14.171  1.2639  0.2213  0.6860
10756TIP3    H253684   5.410   5.956  14.262  1.1719  0.0492  0.5131
10757TIP3   OH253685   1.679   3.597   1.672 -0.6251 -0.3457 -0.0478
10757TIP3    H153686   1.637   3.683   1.667  0.5019  0.1882 -0.6897
10757TIP3    H253687   1.611   3.535   1.646 -1.6744  0.2606  1.1542
10758TIP3   OH253688   3.998   1.200   0.353 -0.3789 -0.2720 -0.0580
10758TIP3    H153689   4.094   1.199   0.351 -0.2247  1.3381  2.1142
10758TIP3    H253690   3.972   1.236   0.269  0.9031 -0.9647 -0.7723
10759TIP3   OH253691   0.370   0.817  12.487 -0.0832  0.3054 -0.3800
10759TIP3    H153692   0.463   0.797  12.501 -0.3919 -0.4899  0.6880
10759TIP3    H253693   0.342   0.853  12.571 -0.9769 -0.4288 -0.3510
10760TIP3   OH253694   2.749   2.020   3.209  0.2419 -0.4716 -0.0453
10760TIP3    H153695   2.767   2.059   3.124  0.6150 -0.9825 -0.1997
10760TIP3    H253696   2.795   1.937   3.209  0.1872 -0.5148  0.6294
10761TIP3   OH253697   6.096   5.915   3.601  0.0415 -0.2550 -0.4317
10761TIP3    H153698   6.171   5.956   3.644  0.1023 -0.2680 -0.5254
10761TIP3    H253699   6.101   5.944   3.510  0.6492 -1.2417 -0.7323
10762TIP3   OH253700   0.723   5.828   0.632  0.5405  0.3878 -0.3634
10762TIP3    H153701   0.776   5.749   0.622  0.6520  0.5662 -1.2749
10762TIP3    H253702   0.677   5.816   0.715  1.4280 -0.1122  0.0684
10763TIP3   OH253703   3.774   3.231   3.054  0.3966 -0.4323  0.1845
10763TIP3    H153704   3.846   3.194   3.003  0.8185 -0.2966  0.6733
10763TIP3    H253705   3.739   3.301   2.998  1.4276  0.3086  0.4392
10764TIP3   OH253706   3.428   4.215  12.863  0.0333  0.0262  0.4727
10764TIP3    H153707   3.394   4.305  12.860  0.1195  0.0227 -1.8445
10764TIP3    H253708   3.519   4.225  12.891  0.4873  0.8503 -1.1818
10765TIP3   OH253709   4.914   0.107  12.826  0.4894  0.2200  0.4083
10765TIP3    H153710   4.873   0.120  12.740  1.7745 -1.7705 -0.5645
10765TIP3    H253711   4.862   0.162  12.885 -1.7826  0.0123 -1.2475
10766TIP3   OH253712   4.402   4.150   5.800 -0.2895  0.5895  0.4346
10766TIP3    H153713   4.420   4.069   5.847 -0.4507  0.4540  0.2664
10766TIP3    H253714   4.321   4.133   5.752 -0.1116  0.7110  0.0808
10767TIP3   OH253715   3.641   5.890   4.499  0.3076 -0.4174 -0.2754
10767TIP3    H153716   3.593   5.844   4.568  1.0248  0.9680  1.2079
10767TIP3    H253717   3.726   5.910   4.538  0.1939  1.7088 -0.9844
10768TIP3   OH253718   5.756   3.231  16.950 -0.4841 -0.2157 -0.2979
10768TIP3    H153719   5.714   3.171  17.011 -3.7606  0.6313 -1.5488
10768TIP3    H253720   5.713   3.315  16.964  1.3469  0.9412 -1.2008
10769TIP3   OH253721   1.296   4.200   2.316  0.0785 -0.1773 -0.2422
10769TIP3    H153722   1.295   4.209   2.412 -2.2684  1.9328 -0.3695
10769TIP3    H253723   1.357   4.268   2.287  1.5139 -1.4211 -0.2804
10770TIP3   OH253724   6.130   1.397   3.108 -0.3021  0.2471 -0.5914
10770TIP3    H153725   6.036   1.414   3.114 -0.5759 -1.6512  1.6422
10770TIP3    H253726   6.165   1.417   3.195  1.0822 -0.5590 -0.9181
10771TIP3   OH253727   6.366   0.993   1.220 -0.2195 -0.3757  0.5522
10771TIP3    H153728   6.339   1.082   1.245 -0.0182  0.0636 -0.7237
10771TIP3    H253729   6.461   0.993   1.236 -0.0982 -0.1109 -0.1465
10772TIP3   OH253730   1.069   6.208   4.021 -0.3406 -0.0605 -0.2551
10772TIP3    H153731   0.977   6.226   4.041 -0.0290 -1.2205  2.6670
10772TIP3    H253732   1.066   6.136   3.959 -1.3863  0.3100 -0.6662
10773TIP3   OH253733   6.226   5.411  15.012 -0.2354  0.4355  0.3002
10773TIP3    H153734   6.219   5.506  15.008  0.4630  0.5394  1.4404
10773TIP3    H253735   6.172   5.386  15.086  1.2368  0.1417  1.3070
10774TIP3   OH253736   1.229   0.039  13.611 -0.5103  0.0265 -0.7242
10774TIP3    H153737   1.137   0.022  13.588 -0.4882 -1.3133  0.1037
10774TIP3    H253738   1.227   0.127  13.651 -1.6977 -0.5765  0.6411
10775TIP3   OH253739   4.367   2.815  14.491 -0.1424 -0.2244 -0.1125
10775TIP3    H153740   4.407   2.895  14.525  0.0262 -0.2855 -0.1686
10775TIP3    H253741   4.441   2.760  14.465 -0.2635 -0.3034 -0.2936
10776TIP3   OH253742   6.696   1.440   5.607 -0.6413  0.2795  0.1267
10776TIP3    H153743   6.777   1.491   5.618 -0.0380 -0.3537 -1.1611
10776TIP3    H253744   6.712   1.387   5.529 -2.4864  0.4676 -0.4224
10777TIP3   OH253745   1.400   3.230  17.063  0.1580  0.4429  0.4646
10777TIP3    H153746   1.392   3.237  16.968  0.2146 -1.6516  0.2425
10777TIP3    H253747   1.344   3.299  17.098 -1.8508 -0.3127 -1.1012
10778TIP3   OH253748   4.470   1.505  13.885 -0.2908  0.5483 -0.3005
10778TIP3    H153749   4.532   1.547  13.825 -0.9649  0.8599 -0.7801
10778TIP3    H253750   4.386   1.546  13.866 -1.0224 -1.1755 -0.9514
10779TIP3   OH253751   6.340   6.338  12.392  0.4572  0.0032  0.5835
10779TIP3    H153752   6.290   6.262  12.424 -0.4914 -0.1587 -1.1733
10779TIP3    H253753   6.420   6.301  12.355 -1.1988 -0.5698 -2.7856
10780TIP3   OH253754   0.741   0.185   3.282 -0.0947 -0.3133 -0.6740
10780TIP3    H153755   0.782   0.185   3.368 -3.0633 -3.0026  0.9861
10780TIP3    H253756   0.760   0.098   3.246  1.8196  1.0438 -3.2605
10781TIP3   OH253757   2.747   0.483  14.378  0.4463 -0.6952  0.1437
10781TIP3    H153758   2.736   0.517  14.467  0.5375 -1.2300  0.3633
10781TIP3    H253759   2.831   0.517  14.350  0.2210 -0.1663  0.0965
10782TIP3   OH253760   5.086   4.056   2.517 -0.4347 -0.0788 -0.4974
10782TIP3    H153761   5.108   4.088   2.430 -0.6401  1.0070 -0.1694
10782TIP3    H253762   5.164   4.073   2.570  0.4191 -2.4791 -0.8640
10783TIP3   OH253763   6.228   6.166   0.965  0.4048  0.4753  0.2034
10783TIP3    H153764   6.147   6.182   1.015  1.0910  0.4499  1.3608
10783TIP3    H253765   6.268   6.252   0.957  0.4037  0.4451 -0.1251
10784TIP3   OH253766   0.480   3.027   3.355  0.1966 -0.1653  0.3717
10784TIP3    H153767   0.523   3.032   3.441  0.9064  0.1617  0.0049
10784TIP3    H253768   0.551   3.039   3.292 -0.2790 -0.6572 -0.2719
10785TIP3   OH253769   3.089   1.603  16.035 -0.4003  0.0317  0.0140
10785TIP3    H153770   2.999   1.587  16.010 -0.6193  0.9621  0.1634
10785TIP3    H253771   3.138   1.530  15.997 -1.0943 -0.0292 -0.7947
10786TIP3   OH253772   0.927   3.560   0.541  0.3855 -0.9720 -0.9905
10786TIP3    H153773   0.840   3.563   0.502  0.6667 -0.3788 -1.5860
10786TIP3    H253774   0.927   3.480   0.593 -1.1689 -0.0704  0.5440
10787TIP3   OH253775   3.275   4.349  15.289  0.3254 -0.2452 -0.5859
10787TIP3    H153776   3.335   4.420  15.267  0.5346  0.1096  1.0423
10787TIP3    H253777   3.203   4.358  15.226 -0.1332  2.0384  0.1708
10788TIP3   OH253778   6.215   3.401   0.038  0.1806 -0.6877  0.6365
10788TIP3    H153779   6.135   3.453   0.027 -0.8722 -2.5541 -1.0714
10788TIP3    H253780   6.224   3.392   0.133 -1.0714  0.3792  0.8897
10789TIP3   OH253781   6.810   2.219   5.349  0.2932  0.1940  0.1914
10789TIP3    H153782   6.812   2.313   5.334  2.8287  0.2507  0.4712
10789TIP3    H253783   6.791   2.181   5.263 -2.3453  0.9192  0.3655
10790TIP3   OH253784   5.656   0.917  16.472 -0.5470  0.4995  0.1954
10790TIP3    H153785   5.649   0.945  16.381  0.6723  2.2066  0.5787
10790TIP3    H253786   5.643   0.822  16.468  0.0088  0.4494 -1.8150
10791TIP3   OH253787   5.941   3.348  13.258  0.1225  0.2178  0.1807
10791TIP3    H153788   5.848   3.360  13.235 -0.3925  0.6347  2.2549
10791TIP3    H253789   5.989   3.379  13.182 -1.4408  2.2154 -0.0763
10792TIP3   OH253790   3.347   0.421  10.327  0.1267  0.0368  0.3562
10792TIP3    H153791   3.398   0.364  10.269 -3.0890 -1.8316 -0.9548
10792TIP3    H253792   3.339   0.503  10.280 -0.3205 -0.5998 -0.7129
10793TIP3   OH253793   2.599   3.214   4.219  0.5173 -0.4188 -0.0649
10793TIP3    H153794   2.682   3.196   4.174  1.3954 -2.7640  2.2741
10793TIP3    H253795   2.548   3.134   4.209 -0.2487 -0.0806  1.0116
10794TIP3   OH253796   2.820   2.401   3.621 -0.3647  0.3185 -0.0901
10794TIP3    H153797   2.785   2.434   3.703  1.0662 -0.0341  0.6946
10794TIP3    H253798   2.829   2.479   3.566  1.0489  0.9870  1.0170
10795TIP3   OH253799   2.077   5.290  14.554  0.1727  0.3191 -0.1934
10795TIP3    H153800   2.043   5.200  14.559  0.0813  0.3475 -0.2883
10795TIP3    H253801   2.100   5.301  14.462 -0.8786  0.7756 -0.4108
10796TIP3   OH253802   2.764   2.315   4.056 -0.2713  0.8479  0.2518
10796TIP3    H153803   2.742   2.225   4.079 -1.6067  1.9239  3.8682
10796TIP3    H253804   2.858   2.322   4.073  0.1372 -0.1356 -1.3886
10797TIP3   OH253805   2.056   5.064   5.370 -0.3686  0.7071 -0.2916
10797TIP3    H153806   2.151   5.077   5.380 -0.5786  1.1903  1.3662
10797TIP3    H253807   2.040   4.979   5.411 -0.8697  1.4166  1.0462
10798TIP3   OH253808   5.418   1.958   2.999  0.0921 -0.2697 -0.0640
10798TIP3    H153809   5.479   1.993   2.934  1.6904  0.1031  1.5683
10798TIP3    H253810   5.445   1.997   3.082 -1.0889 -1.6840  1.0567
10799TIP3   OH253811   3.392   0.472   1.350  0.2474  0.4907  0.1984
10799TIP3    H153812   3.407   0.536   1.281 -0.2798  0.0032 -0.3697
10799TIP3    H253813   3.478   0.457   1.388  0.4926  0.9623 -0.1644
10800TIP3   OH253814   6.556   3.830  12.154 -0.2261 -0.2981  0.3518
10800TIP3    H153815   6.645   3.857  12.132 -0.9067  1.0832 -0.9531
10800TIP3    H253816   6.532   3.887  12.228 -0.7368  0.8799 -0.6851
10801TIP3   OH253817   6.073   0.003   0.631 -0.4611  0.1332  0.3075
10801TIP3    H153818   6.083  -0.014   0.724 -1.2641 -1.6465  0.1085
10801TIP3    H253819   6.035   0.091   0.627 -0.8608  0.0455  1.6675
10802TIP3   OH253820   2.158   3.172  15.188 -0.9830  0.1508  0.3243
10802TIP3    H153821   2.220   3.216  15.247  1.7384  0.1406 -2.2981
10802TIP3    H253822   2.115   3.243  15.140 -0.0509  0.1057 -0.6079
10803TIP3   OH253823   5.928   6.665   3.098  0.0659 -0.0902 -0.1944
10803TIP3    H153824   5.862   6.662   3.167  0.8064  2.7793  0.7887
10803TIP3    H253825   6.002   6.616   3.134  0.5043  1.5074  1.2324
10804TIP3   OH253826   5.106   5.569   2.068 -0.8529  0.4718 -0.0803
10804TIP3    H153827   5.126   5.531   1.982  0.7214  0.0047  0.4469
10804TIP3    H253828   5.078   5.658   2.049  1.5220  1.1065 -1.0119
10805TIP3   OH253829   1.416   6.561  14.997 -0.3893 -0.2081 -0.0642
10805TIP3    H153830   1.350   6.627  14.977 -1.3107 -1.2953 -0.8016
10805TIP3    H253831   1.367   6.490  15.040  0.4501 -0.6752  0.1485
10806TIP3   OH253832   6.749   0.109   1.809  0.3548 -0.7233  0.0689
10806TIP3    H153833   6.775   0.022   1.838 -0.7514 -0.5444  1.7546
10806TIP3    H253834   6.791   0.169   1.872 -0.3856 -0.1638  0.0421
10807TIP3   OH253835   3.087   6.671  13.516 -0.3889 -0.4228  0.3090
10807TIP3    H153836   3.054   6.662  13.426  1.3917 -0.3855 -0.4101
10807TIP3    H253837   3.084   6.765  13.533  0.8325 -0.2275 -0.3983
10808TIP3   OH253838   2.488   0.955  14.020  0.0452 -0.4927  0.1447
10808TIP3    H153839   2.481   0.912  14.105 -2.5895  0.3809  0.4430
10808TIP3    H253840   2.439   0.899  13.960  1.1521 -0.6554 -0.6338
10809TIP3   OH253841   3.562   5.188  13.117  0.2771 -0.3035 -0.2555
10809TIP3    H153842   3.498   5.240  13.165  1.6191  0.8655  0.3114
10809TIP3    H253843   3.645   5.233  13.130  1.1709 -1.5747 -1.2913
10810TIP3   OH253844   6.140   1.767  13.278  0.3533  0.0000 -0.1083
10810TIP3    H153845   6.204   1.829  13.314 -0.0803  0.7736 -0.6579
10810TIP3    H253846   6.113   1.805  13.195 -1.3633  0.0529  0.4311
10811TIP3   OH253847   2.766   0.996   2.601  0.4396  0.0036  0.0406
10811TIP3    H153848   2.861   1.010   2.607  0.7824 -1.3176 -1.5878
10811TIP3    H253849   2.744   0.945   2.679  1.2787 -0.6213 -0.1172
10812TIP3   OH253850   0.715   5.422   2.201 -0.2295  0.0905  0.5120
10812TIP3    H153851   0.757   5.501   2.168 -0.0929 -0.0191  0.4179
10812TIP3    H253852   0.776   5.351   2.178 -0.0640  0.0259  1.1314
10813TIP3   OH253853   5.400   5.231  12.225  0.0516 -0.2253 -0.2428
10813TIP3    H153854   5.338   5.206  12.294  0.1994 -2.1922 -0.7555
10813TIP3    H253855   5.475   5.174  12.239  0.2311 -0.4050 -1.7918
10814TIP3   OH253856   3.688   6.492  15.953 -0.0155 -0.2731 -0.8202
10814TIP3    H153857   3.647   6.564  15.999  2.2049  1.5046 -1.4381
10814TIP3    H253858   3.623   6.422  15.953 -1.5216  1.0338  1.5018
10815TIP3   OH253859   6.434   2.397   3.553 -0.1806 -0.6119  0.6499
10815TIP3    H153860   6.402   2.364   3.637 -0.1561 -0.4648  0.7195
10815TIP3    H253861   6.366   2.458   3.524 -0.1583 -0.6122  0.5964
10816TIP3   OH253862   5.845   6.748  16.789 -0.2225  0.3617  0.2507
10816TIP3    H153863   5.895   6.823  16.823 -0.1176  0.5636 -0.3396
10816TIP3    H253864   5.904   6.707  16.726 -0.1224 -0.4708  0.8735
10817TIP3   OH253865   2.198   3.494   3.040  0.6716  0.5226 -0.0047
10817TIP3    H153866   2.211   3.543   3.122 -0.2379 -1.2276  1.2441
10817TIP3    H253867   2.222   3.404   3.062 -2.2270 -0.5561 -0.8335
10818TIP3   OH253868   0.650   3.772  11.584  0.0949 -0.3686  0.5797
10818TIP3    H153869   0.736   3.742  11.615  0.2176  0.4630  1.0771
10818TIP3    H253870   0.620   3.831  11.652 -0.3494  0.2604 -0.1534
10819TIP3   OH253871   5.317   4.431   0.008 -0.6505 -0.0813  0.2311
10819TIP3    H153872   5.404   4.392   0.000 -0.6457  0.1041 -0.9378
10819TIP3    H253873   5.322   4.487   0.085  0.8708  1.3531 -0.8354
10820TIP3   OH253874   4.723   0.700   3.921  0.0004  0.6321  0.1971
10820TIP3    H153875   4.678   0.707   3.838 -0.9374  1.7612  0.7730
10820TIP3    H253876   4.714   0.608   3.946 -1.4608  0.7015 -0.0019
10821TIP3   OH253877   5.428   1.485  13.429 -0.0539  0.0643 -0.0461
10821TIP3    H153878   5.355   1.452  13.377 -0.8547 -0.2170  1.1929
10821TIP3    H253879   5.502   1.430  13.404 -0.1645  0.5536 -1.5511
10822TIP3   OH253880   6.058   5.433  13.907  0.6577 -0.1985 -0.2052
10822TIP3    H153881   6.001   5.425  13.831  0.0214 -1.8563  0.3923
10822TIP3    H253882   6.117   5.504  13.886  0.0338 -0.1570 -1.9460
10823TIP3   OH253883   3.112   3.660  10.934 -0.0838  0.0451  0.6348
10823TIP3    H153884   3.137   3.751  10.918  0.4056 -0.1067  0.5185
10823TIP3    H253885   3.105   3.621  10.846  0.8663 -0.3304  0.7159
10824TIP3   OH253886   4.406   6.769  11.237 -0.2138 -0.1059 -0.7897
10824TIP3    H153887   4.450   6.698  11.283 -1.5036 -0.4827 -0.0835
10824TIP3    H253888   4.314   6.742  11.234 -0.5362  1.0093 -1.5117
10825TIP3   OH253889   1.526   5.753   4.759 -0.0243  0.6260 -0.5471
10825TIP3    H153890   1.506   5.660   4.765 -0.1264  0.6848  0.2251
10825TIP3    H253891   1.486   5.782   4.677 -2.8864  0.6643  0.7340
10826TIP3   OH253892   3.538   2.972   0.035 -0.1497 -0.1418 -0.1143
10826TIP3    H153893   3.577   2.884   0.038 -1.4089 -0.7501 -0.8823
10826TIP3    H253894   3.495   2.982   0.120  0.9418  0.2230  0.4289
10827TIP3   OH253895   2.048   4.729  15.438  0.0196  0.7607 -0.5341
10827TIP3    H153896   2.050   4.669  15.363 -0.5291 -1.1889  0.9251
10827TIP3    H253897   1.955   4.743  15.455  0.0417 -0.8858  1.2740
10828TIP3   OH253898   2.086   2.330  14.111 -0.1701  0.4949  0.3682
10828TIP3    H153899   2.049   2.394  14.050 -0.0108  0.9938  0.7861
10828TIP3    H253900   2.044   2.350  14.195  0.6467  0.7247  0.7302
10829TIP3   OH253901   3.406   0.757  11.058 -0.1945 -0.1269 -0.4190
10829TIP3    H153902   3.415   0.779  11.150 -1.4314 -2.8559  0.4278
10829TIP3    H253903   3.496   0.746  11.027  0.1925 -0.2970  0.7308
10830TIP3   OH253904   0.030   6.327  11.729  0.3545  0.2198  0.4032
10830TIP3    H153905   0.110   6.291  11.692  1.0562  1.9429  0.1376
10830TIP3    H253906  -0.039   6.300  11.668  0.7431 -1.0999  0.5229
10831TIP3   OH253907   5.315   2.533  12.505 -0.4249 -0.2328  0.2280
10831TIP3    H153908   5.230   2.566  12.474 -0.2472 -0.1420 -0.1643
10831TIP3    H253909   5.310   2.438  12.491  0.5464  0.0224 -2.3385
10832TIP3   OH253910   4.933   1.948   3.325  0.3785  0.0196  0.1080
10832TIP3    H153911   4.982   1.961   3.406  0.4113 -0.2546  0.1310
10832TIP3    H253912   4.981   1.880   3.278  0.7964  0.7176 -0.4917
10833TIP3   OH253913   6.342   0.819  12.317 -0.0036 -0.4402  0.9339
10833TIP3    H153914   6.322   0.829  12.410 -0.8407  1.6943  0.5897
10833TIP3    H253915   6.437   0.833  12.311 -0.0004 -0.2424  1.4405
10834TIP3   OH253916   5.926   4.199   3.803  0.3687 -0.6552 -0.1997
10834TIP3    H153917   5.912   4.129   3.866  3.0438 -0.9028  0.2495
10834TIP3    H253918   6.020   4.197   3.785  0.3331  1.9637 -1.1951
10835TIP3   OH253919   2.469   5.330   4.442 -0.2511  0.2808  0.0834
10835TIP3    H153920   2.412   5.302   4.514  0.0100  1.3036  0.7206
10835TIP3    H253921   2.428   5.410   4.409 -0.1580  0.0250 -0.6545
10836TIP3   OH253922   0.602   6.428  11.325 -0.0523 -0.5349  0.0221
10836TIP3    H153923   0.517   6.466  11.346 -1.0676  0.8667 -5.2106
10836TIP3    H253924   0.582   6.341  11.290  1.1267 -1.4690  1.4982
10837TIP3   OH253925   0.137   3.054  14.641  0.3266  0.6751  0.1732
10837TIP3    H153926   0.126   3.080  14.732 -0.0346  0.9032  0.0664
10837TIP3    H253927   0.197   2.980  14.644 -0.2358  0.2380  0.6552
10838TIP3   OH253928   0.045   3.579   5.769  0.1251  0.8750 -0.1901
10838TIP3    H153929   0.011   3.648   5.825 -1.2135 -0.5072  0.7759
10838TIP3    H253930  -0.023   3.565   5.703  0.7514  1.0303 -0.8875
10839TIP3   OH253931   3.841   2.124   2.442  0.4549  0.2040 -0.1007
10839TIP3    H153932   3.838   2.204   2.391  0.5055 -0.6163 -1.4481
10839TIP3    H253933   3.922   2.081   2.415  1.4479  0.5959  2.0563
10840TIP3   OH253934   0.160   5.950  13.753 -0.3701 -0.5409 -0.1178
10840TIP3    H153935   0.219   5.877  13.773  1.0521  0.5692 -0.0811
10840TIP3    H253936   0.100   5.915  13.687  1.3883 -1.2669 -1.4259
10841TIP3   OH253937   1.796   3.054  15.205 -0.0737 -0.2270  0.2700
10841TIP3    H153938   1.794   3.051  15.110  1.7700  2.8205  0.0063
10841TIP3    H253939   1.743   3.131  15.227 -0.4125 -0.8428  1.7159
10842TIP3   OH253940   0.447   2.363   3.716 -0.3917  0.2181  0.9948
10842TIP3    H153941   0.508   2.357   3.789 -0.6127 -1.6226  1.0802
10842TIP3    H253942   0.372   2.310   3.744 -0.3804 -0.7341 -0.6400
10843TIP3   OH253943   4.937   1.487   3.639 -0.3679  0.3216 -0.4679
10843TIP3    H153944   4.875   1.488   3.712 -0.3970 -1.6102 -0.3935
10843TIP3    H253945   4.898   1.426   3.577  0.3777  0.8296 -1.4447
10844TIP3   OH253946   0.481   4.590  13.726 -0.9058  0.0816 -0.3929
10844TIP3    H153947   0.397   4.610  13.685 -1.2172  1.0067  0.6463
10844TIP3    H253948   0.530   4.672  13.720 -0.9783  0.2531  1.1008
10845TIP3   OH253949   4.331   5.945  16.786 -0.4650  0.7593  0.0362
10845TIP3    H153950   4.319   6.038  16.767  0.3975  1.3360  2.0423
10845TIP3    H253951   4.363   5.908  16.704 -2.6922  1.7841 -1.4036
10846TIP3   OH253952   4.007   0.030  14.261 -0.3294  0.2332  0.5293
10846TIP3    H153953   4.003   0.120  14.294 -0.3919  0.2945  0.3568
10846TIP3    H253954   3.983  -0.024  14.336  1.3055  0.2493  1.1075
10847TIP3   OH253955   4.708   0.301   5.181 -0.4280  0.9122  0.1028
10847TIP3    H153956   4.753   0.273   5.261  1.5541  0.5753 -1.0733
10847TIP3    H253957   4.647   0.230   5.162  1.4173 -0.6106 -0.4187
10848TIP3   OH253958   6.042   5.969   0.255  0.3354  0.2000 -0.3522
10848TIP3    H153959   6.041   6.050   0.307  0.1888  0.4898 -0.8026
10848TIP3    H253960   6.086   5.905   0.312  0.7895  0.6918 -0.1328
10849TIP3   OH253961   4.540   2.307   0.898 -0.3764  0.2943  0.0234
10849TIP3    H153962   4.534   2.235   0.835  0.3784  0.9748 -0.8559
10849TIP3    H253963   4.604   2.277   0.962 -0.7782 -0.2021  0.1961
10850TIP3   OH253964   3.491   6.240  15.524  0.2795 -0.0416 -0.5981
10850TIP3    H153965   3.533   6.238  15.439 -0.7216 -0.1142 -1.1089
10850TIP3    H253966   3.525   6.318  15.567 -1.3231  1.6043 -2.1900
10851TIP3   OH253967   5.762   5.277   3.610 -0.5142 -0.1325  0.0776
10851TIP3    H153968   5.687   5.333   3.594 -1.5926 -1.4229  0.4392
10851TIP3    H253969   5.764   5.265   3.705  0.8895  0.8488  0.2006
10852TIP3   OH253970   5.680   6.406   6.373 -0.5633 -0.1127  0.6289
10852TIP3    H153971   5.752   6.418   6.434  0.1939  1.4252 -0.5041
10852TIP3    H253972   5.601   6.413   6.427  0.0984  0.8823  1.5054
10853TIP3   OH253973   3.229   1.686  14.655  0.0304 -0.1710  0.6580
10853TIP3    H153974   3.198   1.776  14.644 -0.3010 -0.2123  1.1910
10853TIP3    H253975   3.308   1.694  14.708 -0.2157 -0.2167  1.0396
10854TIP3   OH253976   1.432   1.105  15.232 -0.4929  0.3854 -0.3759
10854TIP3    H153977   1.401   1.183  15.185 -0.5425  0.4689 -0.2053
10854TIP3    H253978   1.435   1.036  15.165 -0.2286  0.5912 -0.5746
10855TIP3   OH253979   5.965   6.648  13.127  0.0930  0.2588 -0.0395
10855TIP3    H153980   6.055   6.619  13.137  0.8203  2.5126  0.5969
10855TIP3    H253981   5.916   6.569  13.103  2.0412 -1.2020  0.5782
10856TIP3   OH253982   2.076   4.924   0.382 -0.0941  0.6240 -0.5368
10856TIP3    H153983   2.112   4.964   0.303 -0.6022  0.6961 -0.7385
10856TIP3    H253984   2.146   4.931   0.447 -0.1168  1.6885 -0.6154
10857TIP3   OH253985   0.865   3.403   2.617 -0.3010 -0.1846  0.5142
10857TIP3    H153986   0.802   3.451   2.670 -1.5868 -0.7140 -0.4847
10857TIP3    H253987   0.950   3.438   2.644 -1.0395  0.9460  1.4907
10858TIP3   OH253988   3.858   6.262   3.591  0.0510 -0.1502  0.8728
10858TIP3    H153989   3.928   6.209   3.629 -1.1411 -1.8985  0.7183
10858TIP3    H253990   3.868   6.251   3.496 -0.8547 -1.0357  0.8610
10859TIP3   OH253991   0.197   5.471   4.199  0.1519 -0.6603  0.4030
10859TIP3    H153992   0.196   5.559   4.160 -1.0128 -0.2014  1.4280
10859TIP3    H253993   0.178   5.413   4.125 -0.5394  0.0734 -0.0214
10860TIP3   OH253994   5.150   5.504  11.936  0.3511 -0.2187 -1.1397
10860TIP3    H153995   5.226   5.475  11.886 -1.2289 -1.8680 -2.7338
10860TIP3    H253996   5.171   5.594  11.962  2.1370 -0.0458 -2.9605
10861TIP3   OH253997   0.380   5.469   2.944 -0.6432  0.3616 -0.0698
10861TIP3    H153998   0.398   5.533   3.013 -0.7314  0.8782 -0.5232
10861TIP3    H253999   0.354   5.390   2.991 -0.9742  0.7959  0.4900
10862TIP3   OH254000   3.702   0.716  16.561  0.2821  0.0977  0.5319
10862TIP3    H154001   3.686   0.808  16.543  1.2939  0.4387  1.3131
10862TIP3    H254002   3.788   0.698  16.524 -0.1055 -0.6695 -0.0420
10863TIP3   OH254003   1.664   5.727  14.786  0.4873  0.1307  0.3790
10863TIP3    H154004   1.727   5.715  14.857 -1.6129  2.7483  2.9459
10863TIP3    H254005   1.604   5.653  14.795  1.7091 -0.9983 -0.4603
10864TIP3   OH254006   1.342   6.438  15.457 -0.1380 -0.1728  0.5554
10864TIP3    H154007   1.325   6.441  15.551 -0.9126 -0.3746  0.4279
10864TIP3    H254008   1.333   6.528  15.427  0.2671 -0.0840  0.7008
10865TIP3   OH254009   3.147   2.604   5.299 -0.1803  0.3625  0.0682
10865TIP3    H154010   3.119   2.530   5.353 -0.4945 -0.0652 -0.6656
10865TIP3    H254011   3.169   2.672   5.362 -1.2319  0.1216  0.7249
10866TIP3   OH254012   1.861   5.847   1.627  0.2270 -0.0640  0.2546
10866TIP3    H154013   1.862   5.922   1.568 -1.7200 -0.1828 -0.0104
10866TIP3    H254014   1.943   5.801   1.611  1.0805  1.5577 -0.1648
10867TIP3   OH254015   4.167   4.240   1.367  0.0601 -0.0531  0.3246
10867TIP3    H154016   4.074   4.260   1.363  0.2278  0.6920 -0.2310
10867TIP3    H254017   4.173   4.159   1.417 -0.6327  1.5252  3.2080
10868TIP3   OH254018   0.076   3.968  15.533 -0.1108  0.0552 -0.0672
10868TIP3    H154019   0.013   4.035  15.558  0.2709  0.3642  0.0917
10868TIP3    H254020   0.027   3.887  15.532  0.0294 -0.1525  2.6098
10869TIP3   OH254021   3.850   1.648   0.075 -0.2043 -0.4425 -0.1924
10869TIP3    H154022   3.927   1.675   0.125 -0.2452  0.8794 -0.7923
10869TIP3    H254023   3.776   1.685   0.123 -0.2886  0.2739 -0.8556
10870TIP3   OH254024   4.832   3.937  16.858 -0.0347 -0.8432  0.1286
10870TIP3    H154025   4.771   3.995  16.903  1.2343  0.6331  0.0119
10870TIP3    H254026   4.918   3.975  16.875  0.6095 -1.0228 -2.3827
10871TIP3   OH254027   4.397   6.815   4.552  0.4367 -0.1732  0.8047
10871TIP3    H154028   4.306   6.789   4.565 -0.2165  2.2604  1.8067
10871TIP3    H254029   4.448   6.746   4.594 -0.9290 -1.4986  0.3885
10872TIP3   OH254030   1.740   0.460   2.778 -0.5148 -0.2169 -0.1702
10872TIP3    H154031   1.688   0.384   2.753 -0.7545 -0.0312 -0.2482
10872TIP3    H254032   1.676   0.521   2.816 -0.5802  0.5339 -1.4167
10873TIP3   OH254033   2.914   1.986  14.198 -0.3852 -0.3286 -0.2512
10873TIP3    H154034   2.949   2.056  14.253  0.1627 -0.0461 -0.9403
10873TIP3    H254035   2.819   1.995  14.206 -0.3185  0.0758  0.1808
10874TIP3   OH254036   1.995   2.007   1.373 -0.3571 -0.0562 -0.1294
10874TIP3    H154037   2.035   1.986   1.289  1.3875 -1.1080  0.8994
10874TIP3    H254038   1.990   1.924   1.419  2.2149  0.9114  2.1878
10875TIP3   OH254039   2.058   5.336   1.912 -0.4121 -0.2339 -0.3187
10875TIP3    H154040   2.011   5.297   1.985 -0.7882  0.1186 -0.3684
10875TIP3    H254041   2.116   5.267   1.881 -2.8696 -1.6574 -2.0821
10876TIP3   OH254042   5.310   3.331   3.953 -0.5262  0.5686 -0.2738
10876TIP3    H154043   5.357   3.397   3.902 -0.2511  0.8585  0.3433
10876TIP3    H254044   5.375   3.296   4.013 -0.4579 -0.8957 -1.1757
10877TIP3   OH254045   3.863   5.944  16.008 -0.1660  0.3378  0.0274
10877TIP3    H154046   3.938   5.948  15.949 -1.1018  1.0515 -1.1487
10877TIP3    H254047   3.843   5.850  16.014  0.4231  0.1961 -0.1425
10878TIP3   OH254048   4.092   5.923   2.007 -0.2697  0.0396 -0.2732
10878TIP3    H154049   4.173   5.918   1.955  0.0883  1.0179  0.1648
10878TIP3    H254050   4.122   5.915   2.098 -0.4595  2.0473  0.0006
10879TIP3   OH254051   6.265   5.487  15.403 -0.1989 -0.1938  0.6457
10879TIP3    H154052   6.249   5.519  15.314 -1.4482 -1.5541  0.3401
10879TIP3    H254053   6.247   5.562  15.459 -0.8879  0.2690 -0.1719
10880TIP3   OH254054   4.451   3.891   4.604 -0.3475  0.6579  0.1523
10880TIP3    H154055   4.471   3.798   4.593 -1.1611  0.4850  0.0837
10880TIP3    H254056   4.498   3.934   4.532 -0.8273  0.1789 -0.4602
10881TIP3   OH254057   5.256   5.961   1.924 -0.4898  0.1706 -0.0293
10881TIP3    H154058   5.223   6.048   1.899 -1.0696 -0.0172  0.0492
10881TIP3    H254059   5.347   5.976   1.949 -0.3958  0.6449 -0.6446
10882TIP3   OH254060   5.841   6.764   4.587  0.3053 -0.1395 -0.1197
10882TIP3    H154061   5.866   6.738   4.676 -1.1786 -0.5068  0.2273
10882TIP3    H254062   5.752   6.799   4.597 -0.5645 -1.7434 -1.6951
10883TIP3   OH254063   3.869   1.812  13.742  0.4350  0.3449 -0.0773
10883TIP3    H154064   3.881   1.723  13.776  1.4691 -0.1097 -1.5243
10883TIP3    H254065   3.958   1.846  13.732  0.1868  0.6098 -1.8182
10884TIP3   OH254066   6.169   5.635  16.711 -0.3152  0.5701 -0.4426
10884TIP3    H154067   6.129   5.599  16.790 -0.1299  0.4359 -0.4076
10884TIP3    H254068   6.111   5.705  16.683 -1.0877 -0.2506 -0.9414
10885TIP3   OH254069   6.033   5.234   0.539 -0.4693  0.3830  0.1569
10885TIP3    H154070   5.941   5.244   0.564 -0.8029  0.5420 -1.0871
10885TIP3    H254071   6.037   5.148   0.498 -0.2284  0.7063 -0.5022
10886TIP3   OH254072   2.741   5.033  14.694  0.1776 -0.3682  0.2239
10886TIP3    H154073   2.748   5.007  14.601  1.5310  0.8000 -0.0378
10886TIP3    H254074   2.675   5.102  14.695  1.1372  0.5789 -0.1165
10887TIP3   OH254075   5.394   5.939   5.270 -0.1791 -0.6874 -0.3668
10887TIP3    H154076   5.348   6.023   5.264  2.4106  0.7419 -2.2357
10887TIP3    H254077   5.438   5.942   5.356  0.6651  0.3503 -0.8125
10888TIP3   OH254078   3.398   6.635   3.009  0.3053 -0.0212  0.6423
10888TIP3    H154079   3.411   6.664   3.099 -0.3228 -1.4597  1.2350
10888TIP3    H254080   3.442   6.550   3.004 -1.8132 -1.1904  0.3905
10889TIP3   OH254081   4.145   2.838  16.272  0.0060  0.0328  0.1537
10889TIP3    H154082   4.240   2.823  16.275 -0.1282 -0.8348  0.3368
10889TIP3    H254083   4.107   2.751  16.286 -0.8141 -0.3238 -3.2367
10890TIP3   OH254084   1.533   2.522  11.754  0.5132  0.4999  0.1515
10890TIP3    H154085   1.552   2.428  11.752  2.8746  0.8830 -2.6372
10890TIP3    H254086   1.545   2.551  11.664 -1.6414  3.2800  0.6081
10891TIP3   OH254087   0.097   4.594   2.904  0.4894 -0.0548 -0.5010
10891TIP3    H154088   0.152   4.667   2.874 -0.0827  1.4610  1.8605
10891TIP3    H254089   0.021   4.597   2.847  0.3311  1.4378 -0.2513
10892TIP3   OH254090   0.977   1.900   1.475  0.1022  0.1497  0.5554
10892TIP3    H154091   1.067   1.906   1.444 -0.6419  1.8443 -1.4969
10892TIP3    H254092   0.926   1.880   1.397 -1.3883 -0.2898  1.5937
10893TIP3   OH254093   5.443   4.091  16.565  0.0104  0.8500 -0.8044
10893TIP3    H154094   5.486   4.176  16.552  0.3761  1.1057  1.5215
10893TIP3    H254095   5.360   4.098  16.518 -0.3185  2.8335 -0.0392
10894TIP3   OH254096   1.653   6.526  15.633  0.6376  0.9992 -0.0429
10894TIP3    H154097   1.660   6.475  15.553  0.5923  0.5897  0.2095
10894TIP3    H254098   1.743   6.549  15.656  0.8176 -0.3373  0.7060
10895TIP3   OH254099   3.999   2.787   4.020 -0.3499 -0.0965  0.0861
10895TIP3    H154100   3.955   2.834   4.091  1.1945  0.1281  0.9285
10895TIP3    H254101   4.090   2.782   4.047  0.4743  0.7472 -2.2964
10896TIP3   OH254102   5.775   2.919  15.155 -0.0810 -0.4490 -0.6467
10896TIP3    H154103   5.798   2.826  15.152  0.1905 -0.4172  0.1306
10896TIP3    H254104   5.682   2.920  15.175  0.3440 -0.5752  1.6489
10897TIP3   OH254105   3.923   2.973   2.376 -0.1566 -0.1613  0.4938
10897TIP3    H154106   4.008   2.999   2.341 -0.5289 -0.6261 -0.7910
10897TIP3    H254107   3.935   2.972   2.471  1.3495 -0.5122  0.3125
10898TIP3   OH254108   5.248   2.844  12.568 -0.3436  0.7475 -0.0217
10898TIP3    H154109   5.204   2.790  12.503 -1.3290  0.1385  1.1269
10898TIP3    H254110   5.338   2.812  12.570 -0.3614  0.6278 -0.9093
10899TIP3   OH254111   0.666   6.393  14.790 -0.2659 -0.4877 -0.1747
10899TIP3    H154112   0.749   6.347  14.779 -0.3141 -0.3330 -1.2753
10899TIP3    H254113   0.654   6.399  14.885  0.8431 -0.7486 -0.0095
10900TIP3   OH254114   5.872   3.428  15.256 -0.5570 -0.0468  0.0954
10900TIP3    H154115   5.904   3.494  15.195  0.8578 -0.1361  0.6914
10900TIP3    H254116   5.871   3.346  15.205  0.1484 -0.0320  0.0459
10901TIP3   OH254117   0.420   5.190   5.804  0.1895 -0.6277  0.1094
10901TIP3    H154118   0.423   5.123   5.735  1.2444  0.2980 -0.7832
10901TIP3    H254119   0.428   5.140   5.886 -1.9847 -1.8244 -0.3478
10902TIP3   OH254120   0.850   0.301  14.460 -0.2878 -0.2725 -0.1135
10902TIP3    H154121   0.815   0.389  14.454  1.3855  0.4709  0.4176
10902TIP3    H254122   0.815   0.265  14.541  1.6458  1.1903  1.4616
10903TIP3   OH254123   3.441   1.389   4.197 -0.5296  0.0047 -0.2237
10903TIP3    H154124   3.523   1.371   4.152 -0.5463  1.0599 -0.6870
10903TIP3    H254125   3.377   1.334   4.152 -0.6948  1.5812 -2.0202
10904TIP3   OH254126   5.732   4.951   0.431  0.3214  0.3489 -0.8382
10904TIP3    H154127   5.771   4.863   0.426  0.9491  0.6833 -2.5026
10904TIP3    H254128   5.799   5.004   0.475  0.6789  0.3461 -1.3605
10905TIP3   OH254129   1.917   6.049   5.695  0.0257  0.2115  0.4296
10905TIP3    H154130   1.903   5.962   5.731 -0.6892 -0.2603 -0.9146
10905TIP3    H254131   1.914   6.036   5.600 -0.8029  1.8152  0.2093
10906TIP3   OH254132   5.040   5.818   2.491 -0.1708  0.8781  0.4075
10906TIP3    H154133   5.096   5.759   2.441 -0.3312  0.3458  0.8371
10906TIP3    H254134   5.029   5.895   2.435 -1.0499 -0.0504 -0.7578
10907TIP3   OH254135   4.051   5.244   5.011  0.0872 -0.5494  0.7000
10907TIP3    H154136   4.056   5.149   5.003  0.6072 -0.4342 -0.4498
10907TIP3    H254137   4.091   5.263   5.096 -0.0935 -1.3567  0.9733
10908TIP3   OH254138   6.690   3.729   1.233  0.3348  0.1769  0.8309
10908TIP3    H154139   6.605   3.770   1.249 -0.6180 -0.8520 -1.1923
10908TIP3    H254140   6.748   3.802   1.214 -0.7424  0.7907 -0.2890
10909TIP3   OH254141   1.497   5.906  13.466 -0.6481  0.3963  0.4152
10909TIP3    H154142   1.434   5.852  13.513 -1.1832  0.5878 -0.0709
10909TIP3    H254143   1.502   5.987  13.517 -2.1763  1.1151 -0.4869
10910TIP3   OH254144   4.859   6.302   0.980 -0.4400  0.1753  0.1823
10910TIP3    H154145   4.766   6.325   0.977 -0.1516  1.3075 -0.6107
10910TIP3    H254146   4.884   6.292   0.888 -0.0721 -1.4399  0.4297
10911TIP3   OH254147   5.620   2.822  12.160 -0.5890 -0.2021 -0.0265
10911TIP3    H154148   5.637   2.873  12.239  0.6849 -1.6722  0.7075
10911TIP3    H254149   5.706   2.785  12.137 -1.0633 -0.3357 -1.7272
10912TIP3   OH254150   1.544   5.966   1.615  0.7882 -0.4151  0.4368
10912TIP3    H154151   1.620   6.003   1.569  0.4596  1.0707  1.0410
10912TIP3    H254152   1.486   6.041   1.629  0.0457 -1.1894  1.6202
10913TIP3   OH254153   3.758   1.235  11.160  0.0928  0.1821 -0.0602
10913TIP3    H154154   3.815   1.279  11.098 -0.8886  0.5796 -0.7070
10913TIP3    H254155   3.674   1.228  11.115 -0.7274  0.7347  1.3166
10914TIP3   OH254156   1.302   3.001   1.907  0.5374  0.3249 -0.2773
10914TIP3    H154157   1.292   2.919   1.955 -0.7038  0.0890 -0.8930
10914TIP3    H254158   1.266   3.068   1.965 -0.4836  0.1127 -0.6520
10915TIP3   OH254159   0.072   5.080  16.273  0.3895  0.4868 -0.0797
10915TIP3    H154160  -0.006   5.070  16.327  0.5347  0.8045  0.2014
10915TIP3    H254161   0.128   5.006  16.297  0.8261  1.0980  0.8704
10916TIP3   OH254162   0.357   0.839  15.353  0.1762 -0.3893  0.0881
10916TIP3    H154163   0.318   0.807  15.434 -1.0219 -0.7473 -0.6031
10916TIP3    H254164   0.315   0.924  15.337 -1.8737 -1.6530 -1.6821
10917TIP3   OH254165   6.706   6.169  14.138 -0.2052 -0.3182  0.6673
10917TIP3    H154166   6.761   6.178  14.061 -3.1437  0.6278 -1.5392
10917TIP3    H254167   6.740   6.093  14.184  2.2789 -0.3145 -1.0014
10918TIP3   OH254168   1.297   6.369   1.327 -0.4615 -0.1691 -0.4803
10918TIP3    H154169   1.354   6.437   1.361 -1.8102  0.5170  0.4935
10918TIP3    H254170   1.356   6.297   1.306  0.4797 -1.1474  4.3487
10919TIP3   OH254171   2.656   5.447  15.803 -0.5060  0.1265 -0.4174
10919TIP3    H154172   2.636   5.360  15.769 -1.4791  0.8542 -1.7888
10919TIP3    H254173   2.602   5.455  15.881  0.6275 -0.9894  0.5352
10920TIP3   OH254174   1.369   1.928   3.614  0.1605 -0.1077  0.3216
10920TIP3    H154175   1.289   1.937   3.563  1.6506  1.2863 -1.9116
10920TIP3    H254176   1.394   2.017   3.636  2.1466 -0.3489 -0.7642
10921TIP3   OH254177   5.627   4.860   2.686  0.6808  0.9561  0.4875
10921TIP3    H154178   5.540   4.885   2.654  0.1494 -1.3761 -0.0675
10921TIP3    H254179   5.615   4.848   2.780  0.8077  2.1118  0.6677
10922TIP3   OH254180   4.384   2.999  12.569  0.5586 -0.0882  0.3800
10922TIP3    H154181   4.377   3.056  12.492  1.9177  1.4508  1.3274
10922TIP3    H254182   4.444   2.930  12.543 -0.2079 -0.4728 -0.4196
10923TIP3   OH254183   6.801   4.405   4.076 -0.1457 -0.3748 -0.6377
10923TIP3    H154184   6.840   4.320   4.056  0.6283 -0.2356  0.2173
10923TIP3    H254185   6.867   4.450   4.130 -0.7855  0.5369 -0.5872
10924TIP3   OH254186   1.007   1.513  12.891  0.3827 -0.2425  0.0468
10924TIP3    H154187   1.002   1.585  12.827 -0.1028 -0.7063 -0.4467
10924TIP3    H254188   0.951   1.445  12.854  0.9910 -0.9516  0.4224
10925TIP3   OH254189   2.432   2.695   2.237 -0.0798  0.1986 -0.2519
10925TIP3    H154190   2.395   2.676   2.324  0.3704 -0.6167 -0.2248
10925TIP3    H254191   2.508   2.637   2.231  0.0487  0.4501 -1.0841
10926TIP3   OH254192   2.656   2.535  16.465 -0.1252 -0.1150 -0.3084
10926TIP3    H154193   2.725   2.593  16.496 -1.1784  0.7207  0.5431
10926TIP3    H254194   2.693   2.447  16.475  1.0781  0.3357 -0.5714
10927TIP3   OH254195   4.924   1.964  12.070  0.0784 -0.5428  0.1649
10927TIP3    H154196   4.936   1.981  12.163  0.6439 -2.7700  0.5703
10927TIP3    H254197   4.831   1.980  12.054  0.3025  1.5733  0.6590
10928TIP3   OH254198   1.672   6.275   5.654 -0.3933 -0.0714  0.7767
10928TIP3    H154199   1.683   6.218   5.729 -0.0382 -1.5055 -0.3235
10928TIP3    H254200   1.729   6.238   5.586  0.4862  2.0480  0.2532
10929TIP3   OH254201   4.103   0.137   1.365 -0.0004 -1.1201 -0.3819
10929TIP3    H154202   4.099   0.192   1.287  0.6560  2.1611  1.6924
10929TIP3    H254203   4.195   0.140   1.393 -0.4676 -1.0754  1.2542
10930TIP3   OH254204   2.508   6.391   0.071  0.0204 -0.1702 -0.1237
10930TIP3    H154205   2.572   6.455   0.105 -0.0802  0.9602 -1.9112
10930TIP3    H254206   2.431   6.444   0.051  0.2728 -0.6272 -2.5589
10931TIP3   OH254207   5.331   0.150   2.140  0.4425  0.2434 -0.3375
10931TIP3    H154208   5.245   0.187   2.118 -0.4587 -1.4404  0.2222
10931TIP3    H254209   5.384   0.168   2.063 -0.1082  2.1030 -0.3591
10932TIP3   OH254210   0.540   0.312  16.099 -0.3916 -0.6993  0.0655
10932TIP3    H154211   0.623   0.315  16.051 -0.2652 -0.4335  0.2969
10932TIP3    H254212   0.564   0.279  16.186 -0.3545  0.3741  0.4802
10933TIP3   OH254213   4.715   1.202   0.386 -0.1480 -0.5075 -0.3784
10933TIP3    H154214   4.668   1.251   0.318  1.7547  2.0450 -0.0277
10933TIP3    H254215   4.724   1.114   0.350 -3.1711 -0.5396 -1.3621
10934TIP3   OH254216   6.796   1.274   5.914 -0.1968 -0.1133 -0.0582
10934TIP3    H154217   6.732   1.344   5.928 -1.9757 -2.0503  2.2220
10934TIP3    H254218   6.756   1.218   5.848  0.5097  0.1275 -0.7131
10935TIP3   OH254219   1.311   3.602   2.187  0.3805 -0.3785  0.5199
10935TIP3    H154220   1.243   3.547   2.148  0.5338 -0.1894 -0.0336
10935TIP3    H254221   1.374   3.615   2.116  1.0486 -0.6381  1.0619
10936TIP3   OH254222   3.533   3.879   1.403  0.4509  0.0882 -0.2240
10936TIP3    H154223   3.573   3.952   1.356  0.0053  0.1603 -0.5011
10936TIP3    H254224   3.521   3.811   1.337 -2.0444  0.9186 -0.7451
10937TIP3   OH254225   4.067   6.237  11.516 -0.1302  0.1719 -0.1063
10937TIP3    H154226   4.124   6.258  11.442  0.4652  0.0707  0.3117
10937TIP3    H254227   4.128   6.211  11.586 -0.7779 -2.6592 -0.4784
10938TIP3   OH254228   3.266   1.467  12.876 -0.3217  0.2055  0.2035
10938TIP3    H154229   3.174   1.488  12.892 -0.5589  0.2806 -1.2130
10938TIP3    H254230   3.291   1.415  12.953 -1.2866  0.9152  1.0314
10939TIP3   OH254231   0.788   4.004   4.954 -0.6393  0.4264 -0.4645
10939TIP3    H154232   0.858   4.017   5.018 -1.1715 -0.5069  0.3420
10939TIP3    H254233   0.832   4.004   4.869  0.5198 -1.1799  0.0928
10940TIP3   OH254234   5.026   5.502  14.561 -0.0672  0.2896  0.0268
10940TIP3    H154235   5.003   5.460  14.644 -1.3359 -1.4563 -1.1447
10940TIP3    H254236   5.102   5.454  14.530 -1.1723 -0.8811 -1.0325
10941TIP3   OH254237   1.923   6.676   3.654  0.1604  0.4369 -0.0475
10941TIP3    H154238   1.966   6.755   3.688 -2.2484  1.9828 -0.3417
10941TIP3    H254239   1.855   6.657   3.718 -0.8165  0.0328 -1.1800
10942TIP3   OH254240   2.203   1.857   3.282  0.5067 -0.3767 -0.0452
10942TIP3    H154241   2.221   1.943   3.319 -0.5513 -0.5953  1.0395
10942TIP3    H254242   2.279   1.804   3.305  0.4300 -0.1620  0.7306
10943TIP3   OH254243   2.643   0.366  13.200 -0.0125  0.7365 -0.0851
10943TIP3    H154244   2.738   0.374  13.189  0.0190 -0.2427 -0.6841
10943TIP3    H254245   2.629   0.273  13.221 -0.8901  0.6846 -0.8241
10944TIP3   OH254246   6.463   3.237   3.298  0.1844  0.1500  0.0356
10944TIP3    H154247   6.483   3.310   3.356 -1.6213  0.2578  0.5875
10944TIP3    H254248   6.448   3.163   3.356  1.5168 -0.5704 -0.4962
10945TIP3   OH254249   6.630   0.207  15.397 -0.0532 -0.2221  0.0344
10945TIP3    H154250   6.569   0.151  15.445 -0.5149 -1.7408 -2.1580
10945TIP3    H254251   6.693   0.146  15.359  1.5811  1.1241  0.4720
10946TIP3   OH254252   2.378   6.689   6.407  0.1679  0.7735  0.5884
10946TIP3    H154253   2.418   6.675   6.321 -0.3588  1.4008  0.2324
10946TIP3    H254254   2.425   6.763   6.444 -1.3510  2.2732 -0.3153
10947TIP3   OH254255   6.777   4.125   0.460  0.4534  0.0272 -0.0289
10947TIP3    H154256   6.776   4.052   0.522  0.2382 -0.6325 -0.7952
10947TIP3    H254257   6.863   4.166   0.471  0.7826 -0.6755  0.0237
10948TIP3   OH254258   0.536   4.210   5.295 -0.2309 -0.5728  0.3348
10948TIP3    H154259   0.450   4.171   5.305 -0.6299  0.1287 -0.2623
10948TIP3    H254260   0.597   4.137   5.306 -0.9865 -1.6870 -2.2449
10949TIP3   OH254261   2.571   0.983  12.839  0.0435  0.5641 -0.4552
10949TIP3    H154262   2.630   0.973  12.913  0.4802 -0.4309 -0.9088
10949TIP3    H254263   2.485   0.958  12.873  0.1639  0.5325 -0.1757
10950TIP3   OH254264   2.020   4.724   1.200  0.1325 -0.0259  0.3339
10950TIP3    H154265   2.019   4.708   1.106  0.6898 -0.9447  0.4792
10950TIP3    H254266   1.928   4.737   1.223 -0.0528 -0.2893 -0.2536
10951TIP3   OH254267   6.700   6.210   2.247 -0.9449  0.3904  0.0369
10951TIP3    H154268   6.683   6.256   2.329  0.5739  0.1912  0.4908
10951TIP3    H254269   6.746   6.274   2.193 -0.4682  0.0131 -0.0194
10952TIP3   OH254270   4.476   3.942   1.357 -0.5362 -0.2708 -0.2382
10952TIP3    H154271   4.561   3.972   1.388  0.7130 -3.3238 -0.4346
10952TIP3    H254272   4.492   3.909   1.269 -2.3317  0.6294 -0.9687
10953TIP3   OH254273   1.233   4.987  10.485 -0.5580  0.2199  0.2560
10953TIP3    H154274   1.189   5.072  10.487  1.0334  1.0730  0.7461
10953TIP3    H254275   1.326   5.008  10.495 -0.2190 -1.6356  1.5553
10954TIP3   OH254276   6.047   6.409  12.716 -0.3754  0.0458 -0.3367
10954TIP3    H154277   6.054   6.501  12.691  0.9258 -0.3386 -1.5663
10954TIP3    H254278   6.025   6.364  12.634  1.3949 -0.9733 -0.3177
10955TIP3   OH254279   2.643   2.193   3.727 -0.0188 -0.3346  0.3517
10955TIP3    H154280   2.679   2.275   3.694 -2.4750  0.2510 -1.0884
10955TIP3    H254281   2.555   2.216   3.756 -1.2376 -2.6756 -1.2366
10956TIP3   OH254282   4.757   0.059   3.983 -0.2974 -0.0759  0.2357
10956TIP3    H154283   4.806   0.006   3.921  0.6446  0.2360  0.6893
10956TIP3    H254284   4.789   0.032   4.069  0.6508  1.6058  0.4636
10957TIP3   OH254285   0.078   4.331   0.134 -0.2613 -0.2755 -0.1416
10957TIP3    H154286   0.139   4.383   0.082  0.5101 -0.8975  0.1177
10957TIP3    H254287   0.068   4.380   0.216 -1.1003  0.4616 -0.6788
10958TIP3   OH254288   6.375   6.805  14.895 -0.7988  0.3190  0.1505
10958TIP3    H154289   6.460   6.779  14.932 -1.4212 -1.9551  0.1366
10958TIP3    H254290   6.312   6.781  14.962 -1.4929  1.5163 -0.0592
10959TIP3   OH254291   1.751   4.538  12.303  0.5007 -0.1010  0.4325
10959TIP3    H154292   1.691   4.513  12.233  0.1266 -1.0097  1.0692
10959TIP3    H254293   1.806   4.461  12.317 -0.0195 -0.2478  1.7471
10960TIP3   OH254294   1.444   0.680   5.385  0.1164 -0.2271  0.2399
10960TIP3    H154295   1.531   0.639   5.377  1.1644  1.5099  1.7715
10960TIP3    H254296   1.392   0.616   5.434  0.5706 -1.1972 -0.4966
10961TIP3   OH254297   6.527   4.799  14.037 -0.2335 -0.7075 -0.0509
10961TIP3    H154298   6.529   4.820  14.130 -0.1617  0.8255 -0.3730
10961TIP3    H254299   6.435   4.782  14.017 -0.3952 -0.0153  0.0957
10962TIP3   OH254300   5.913   1.323  11.116 -0.1281 -0.8166  0.5058
10962TIP3    H154301   5.851   1.252  11.131  0.4530 -1.1845  1.2092
10962TIP3    H254302   5.958   1.335  11.200  0.7138 -0.5224  0.0328
10963TIP3   OH254303   2.418   3.673  16.730 -0.1794  0.5091  0.2494
10963TIP3    H154304   2.369   3.755  16.724 -0.7143  0.3417  1.9727
10963TIP3    H254305   2.372   3.622  16.796  0.8574 -0.6990  0.0775
10964TIP3   OH254306   0.245   2.925   4.473  0.3555 -0.4126 -0.7490
10964TIP3    H154307   0.327   2.959   4.508  0.8264 -0.1752 -2.0366
10964TIP3    H254308   0.206   3.000   4.428 -1.0164 -0.2786  0.5823
10965TIP3   OH254309   3.854   5.207  11.910 -0.3464  0.1204 -0.2073
10965TIP3    H154310   3.903   5.133  11.946  0.9672 -0.2647 -2.5860
10965TIP3    H254311   3.783   5.167  11.861 -1.4032  0.5902  0.8938
10966TIP3   OH254312   2.572   4.010  15.569 -0.0326 -0.1548  0.5005
10966TIP3    H154313   2.631   3.959  15.515 -0.1581  1.1637 -0.9420
10966TIP3    H254314   2.629   4.056  15.631  0.0602 -2.1735  2.0158
10967TIP3   OH254315   4.363   3.985  11.891 -0.0419  0.1583 -0.4414
10967TIP3    H154316   4.453   3.965  11.863  0.0733 -0.4840  0.3586
10967TIP3    H254317   4.340   3.913  11.950 -1.1864  0.1764 -0.8461
10968TIP3   OH254318   6.091   0.298  10.492 -0.8498  0.0666  0.2670
10968TIP3    H154319   6.150   0.247  10.437  0.4110  1.3035  0.4292
10968TIP3    H254320   6.104   0.389  10.465 -1.9666  0.4693  0.9778
10969TIP3   OH254321   2.114   3.132  11.844 -0.4408  0.0077 -0.3087
10969TIP3    H154322   2.209   3.141  11.842 -0.6083  3.0076  0.1995
10969TIP3    H254323   2.092   3.085  11.763  1.4099  0.1805 -0.9468
10970TIP3   OH254324   2.340   1.633  10.879  0.3345 -0.1037  0.0336
10970TIP3    H154325   2.327   1.575  10.954  1.8685  0.0643  0.4513
10970TIP3    H254326   2.253   1.668  10.862 -0.3597 -1.4355  0.6627
10971TIP3   OH254327   5.179   5.125  12.078 -0.1981 -0.2669  0.0328
10971TIP3    H154328   5.199   5.040  12.038 -0.0409 -0.8720  1.3498
10971TIP3    H254329   5.249   5.183  12.048  0.0779 -0.7775 -0.3257
10972TIP3   OH254330   6.706   6.210   3.187 -0.6768  0.3229  0.0213
10972TIP3    H154331   6.660   6.229   3.268  0.0589 -0.2096  0.5770
10972TIP3    H254332   6.798   6.226   3.207 -0.0421 -2.8757  0.3305
10973TIP3   OH254333   6.803   5.919   2.190 -0.0363 -0.6743 -0.2318
10973TIP3    H154334   6.750   5.914   2.270 -1.2655 -0.3015 -1.0052
10973TIP3    H254335   6.819   6.013   2.178 -1.4458 -0.5425 -1.4059
10974TIP3   OH254336   0.105   0.245  11.626  0.4612  0.0389  0.2440
10974TIP3    H154337   0.186   0.206  11.594  0.3586 -0.1667  0.2300
10974TIP3    H254338   0.112   0.338  11.604  0.9788  0.1421  0.8364
10975TIP3   OH254339   5.172   0.707  13.377 -0.1381  0.3231  0.2540
10975TIP3    H154340   5.158   0.730  13.285 -4.3686 -0.3839  0.5544
10975TIP3    H254341   5.137   0.782  13.426  1.0908  0.2306  1.3416
10976TIP3   OH254342   3.494   4.895   1.851 -0.2183 -0.3894 -0.2380
10976TIP3    H154343   3.576   4.870   1.809 -1.1330  0.2330 -2.5342
10976TIP3    H254344   3.455   4.959   1.791 -2.3795 -0.6697  0.7798
10977TIP3   OH254345   5.747   6.307   3.599  0.3290  0.1042 -0.1134
10977TIP3    H154346   5.702   6.290   3.682  0.3256  0.0504 -0.1265
10977TIP3    H254347   5.705   6.387   3.565  0.2737  0.0796 -0.1036
10978TIP3   OH254348   1.501   1.060   2.967 -0.2715  0.1903 -0.0076
10978TIP3    H154349   1.450   1.106   3.033  0.4457 -0.0178  0.7033
10978TIP3    H254350   1.442   1.051   2.892 -1.4332 -0.4729  0.9675
10979TIP3   OH254351   6.313   6.265   4.751  0.0673 -0.2755  0.1175
10979TIP3    H154352   6.337   6.353   4.780  1.0149 -0.6854  0.6264
10979TIP3    H254353   6.330   6.266   4.657  0.9548 -0.1800  0.2663
10980TIP3   OH254354   0.211   2.871   3.600 -0.4702 -0.3414 -0.3244
10980TIP3    H154355   0.305   2.884   3.614 -0.7756  0.4903  1.1298
10980TIP3    H254356   0.201   2.776   3.596  0.2119 -0.5266  1.4203
10981TIP3   OH254357   4.849   4.189  15.994 -0.5386 -0.0811 -0.0158
10981TIP3    H154358   4.760   4.156  16.007 -0.0511 -1.0090  1.1609
10981TIP3    H254359   4.905   4.112  16.003  0.4245  0.5551 -0.3576
10982TIP3   OH254360   0.835   2.729   4.448 -0.1507  0.0711  0.0125
10982TIP3    H154361   0.763   2.703   4.391 -0.9639 -1.2680  1.5706
10982TIP3    H254362   0.889   2.786   4.394 -1.6991  0.0968 -1.5916
10983TIP3   OH254363   0.099   0.501  11.507  0.0980  0.4704  0.0015
10983TIP3    H154364   0.192   0.522  11.507 -0.2965  2.4562  0.0615
10983TIP3    H254365   0.057   0.581  11.539 -1.5134 -1.0283  1.8588
10984TIP3   OH254366   3.490   3.884   0.038 -0.2952  0.8525  0.2541
10984TIP3    H154367   3.558   3.824   0.070  0.3635  1.5225  0.1323
10984TIP3    H254368   3.429   3.827  -0.009  1.5961  0.5226 -2.0012
10985TIP3   OH254369   5.559   3.725  14.914 -0.0228 -0.3057  0.3586
10985TIP3    H154370   5.476   3.681  14.899 -0.0710  0.1195 -0.7434
10985TIP3    H254371   5.607   3.669  14.975 -0.6549 -1.1318  0.0989
10986TIP3   OH254372   4.415   4.028  10.946 -0.0537  0.2086 -0.5487
10986TIP3    H154373   4.412   4.115  10.984 -1.2745 -0.2748  0.5490
10986TIP3    H254374   4.500   4.023  10.903 -0.0467  1.9987 -0.8149
10987TIP3   OH254375   6.170   3.745  12.340  0.1247  0.0821  0.0706
10987TIP3    H154376   6.075   3.754  12.333 -0.0480 -2.1433 -1.3159
10987TIP3    H254377   6.204   3.820  12.292 -0.9582  0.2763 -0.4356
10988TIP3   OH254378   3.195   1.858  12.754  0.3620  0.4813  0.0951
10988TIP3    H154379   3.177   1.884  12.845 -0.1786  0.3125  0.0446
10988TIP3    H254380   3.130   1.789  12.737  0.5977  0.3717 -0.3518
10989TIP3   OH254381   3.999   6.397  16.839 -0.0894  0.0195  0.2848
10989TIP3    H154382   3.962   6.377  16.925  2.7219 -0.7012  1.4284
10989TIP3    H254383   4.034   6.485  16.848 -1.7703  0.8688 -0.9258
10990TIP3   OH254384   4.077   0.782   5.445  0.3914  0.3411  0.0017
10990TIP3    H154385   4.040   0.840   5.378 -0.9619  1.7797  1.8986
10990TIP3    H254386   4.169   0.808   5.451  0.3939  0.5677 -0.9004
10991TIP3   OH254387   0.548   3.717  14.450 -0.0842  0.5736  0.5932
10991TIP3    H154388   0.504   3.798  14.424  0.6360  0.3489 -1.5834
10991TIP3    H254389   0.478   3.653  14.460 -0.5872  1.2605  1.5329
10992TIP3   OH254390   0.023   4.934   0.388  0.1265 -0.6652 -0.2918
10992TIP3    H154391  -0.022   4.851   0.375 -0.8075 -0.0921 -0.7814
10992TIP3    H254392   0.058   4.928   0.477 -2.6900 -0.3158  0.9392
10993TIP3   OH254393   5.568   2.018   6.490 -0.3332 -0.5504 -1.1516
10993TIP3    H154394   5.534   1.992   6.575  0.3484  0.5837 -0.5065
10993TIP3    H254395   5.493   2.011   6.431 -0.3783 -3.1658 -0.8980
10994TIP3   OH254396   3.621   3.501  14.312 -0.6143 -0.1584 -0.2643
10994TIP3    H154397   3.648   3.588  14.341 -0.5934  0.2989 -1.6023
10994TIP3    H254398   3.566   3.517  14.235 -2.4491 -1.2285  0.7618
10995TIP3   OH254399   0.232   5.712  14.904 -0.2263  0.1799  0.2531
10995TIP3    H154400   0.314   5.759  14.917 -0.2616  0.0088  1.1281
10995TIP3    H254401   0.173   5.777  14.865 -0.4370  1.0379  1.9177
10996TIP3   OH254402   4.138   5.369   4.257  0.1366 -0.7307  0.4756
10996TIP3    H154403   4.177   5.407   4.178  0.2435 -0.4782  0.6474
10996TIP3    H254404   4.086   5.440   4.294  0.5883 -0.6525  0.9693
10997TIP3   OH254405   3.230   1.301   5.796 -0.0276  0.3469  0.5563
10997TIP3    H154406   3.230   1.248   5.716  2.3306  1.2500 -0.1223
10997TIP3    H254407   3.182   1.380   5.772  0.8328  0.6980 -0.0517
10998TIP3   OH254408   2.671   6.226   1.701  0.0878 -0.4829 -0.3696
10998TIP3    H154409   2.667   6.319   1.682 -3.4479 -0.1739  1.0573
10998TIP3    H254410   2.697   6.221   1.793 -0.4860 -0.8233 -0.2188
10999TIP3   OH254411   1.520   2.237  16.302  0.2004 -0.2920 -0.5253
10999TIP3    H154412   1.573   2.277  16.234 -0.3822 -0.7009 -1.2253
10999TIP3    H254413   1.556   2.148  16.312 -0.7310 -0.7873 -1.4432
11000TIP3   OH254414   3.736   2.353   2.796  0.0671  0.3590 -0.7709
11000TIP3    H154415   3.721   2.299   2.873  0.2094 -0.4168 -1.2758
11000TIP3    H254416   3.654   2.402   2.784  0.0232  0.4349 -0.1750
11001TIP3   OH254417   5.626   5.486  12.726 -0.3916 -0.3035 -0.1954
11001TIP3    H154418   5.552   5.441  12.768 -1.5632  0.9231 -0.8666
11001TIP3    H254419   5.703   5.437  12.755 -1.2177 -0.1897  2.4931
11002TIP3   OH254420   4.927   6.752   1.241  0.1462 -0.3220 -0.1331
11002TIP3    H154421   4.941   6.712   1.155 -0.2158 -0.0346 -0.3298
11002TIP3    H254422   4.953   6.685   1.303 -0.0403 -0.7056 -0.4655
11003TIP3   OH254423   6.329   4.700   6.498 -0.0062  0.5996  0.1114
11003TIP3    H154424   6.298   4.757   6.428  0.4542 -0.4653 -1.0028
11003TIP3    H254425   6.380   4.758   6.555 -1.4356  1.7316  0.2804
11004TIP3   OH254426   2.080   0.919  10.715 -0.4494  0.3418  0.0336
11004TIP3    H154427   2.158   0.940  10.767  0.2739 -0.7484 -0.5810
11004TIP3    H254428   2.075   0.989  10.650 -1.6904  2.0480  1.8628
11005TIP3   OH254429   2.467   1.934  12.881  0.3906 -0.4122 -0.4188
11005TIP3    H154430   2.474   2.005  12.817  2.3660 -0.6296 -0.4965
11005TIP3    H254431   2.428   1.975  12.958 -0.2325  0.2937 -1.0885
11006TIP3   OH254432   0.535   4.345  13.795 -0.5491  0.5329 -0.2845
11006TIP3    H154433   0.629   4.344  13.774 -1.0030 -0.7738 -2.5111
11006TIP3    H254434   0.504   4.428  13.758  0.0757  2.1886  2.6037
11007TIP3   OH254435   5.174   4.605   1.230 -0.2634 -0.0380  0.9180
11007TIP3    H154436   5.183   4.515   1.198 -1.5388 -0.5808  2.0114
11007TIP3    H254437   5.079   4.619   1.237 -0.2640  2.3346 -1.7491
11008TIP3   OH254438   6.609   3.542  13.173  0.4630  0.1091 -0.0074
11008TIP3    H154439   6.674   3.490  13.125  0.3039 -0.6703  0.5972
11008TIP3    H254440   6.566   3.479  13.231  0.7708  1.0508  1.2916
11009TIP3   OH254441   1.491   5.087  16.295 -0.2126 -0.3322  0.0163
11009TIP3    H154442   1.540   5.129  16.225 -0.2112  0.3121  0.3971
11009TIP3    H254443   1.509   5.141  16.373 -0.9992 -0.4623  0.2949
11010TIP3   OH254444   4.905   1.983   2.672 -0.0825 -0.5441 -0.6765
11010TIP3    H154445   4.842   2.004   2.741  1.6646 -1.5618  1.3909
11010TIP3    H254446   4.988   1.971   2.719  1.5807  0.3028 -3.1908
11011TIP3   OH254447   5.267   1.372   2.638  0.3647  0.0386 -0.1478
11011TIP3    H154448   5.287   1.379   2.544 -1.1367  0.1161 -0.4819
11011TIP3    H254449   5.265   1.278   2.655  0.0344  0.0101 -0.3373
11012TIP3   OH254450   3.142   1.996  14.907 -0.0604  0.5136 -0.5905
11012TIP3    H154451   3.121   1.981  14.815 -0.4881  2.0464 -0.7843
11012TIP3    H254452   3.234   2.022  14.907  0.5490 -1.4658 -0.3094
11013TIP3   OH254453   1.079   4.055  12.619  0.1675 -0.4833  0.1465
11013TIP3    H154454   1.015   4.094  12.560 -0.8923 -0.2980  1.3736
11013TIP3    H254455   1.045   3.966  12.634  0.2968 -0.4450  0.6580
11014TIP3   OH254456   6.635   2.821  16.171  0.0416  0.2667  0.0108
11014TIP3    H154457   6.583   2.899  16.190  0.4561 -0.0084  2.5562
11014TIP3    H254458   6.611   2.759  16.239  0.7265 -1.3610 -1.1663
11015TIP3   OH254459   0.882   4.357  11.189  0.4782 -0.2546 -0.0618
11015TIP3    H154460   0.846   4.388  11.273 -0.3082  1.0136 -0.8345
11015TIP3    H254461   0.818   4.293  11.158 -0.5224  1.0453 -0.8098
11016TIP3   OH254462   5.967   5.014  13.533 -0.1175 -0.0852 -0.2749
11016TIP3    H154463   6.052   4.989  13.499 -0.1632 -0.4405 -0.1340
11016TIP3    H254464   5.973   5.109  13.546  0.1232 -0.0526 -0.6277
11017TIP3   OH254465   5.881   1.346  14.333 -0.5975  0.4779 -0.2107
11017TIP3    H154466   5.888   1.255  14.360 -3.2171  0.4527  0.6599
11017TIP3    H254467   5.806   1.349  14.274 -0.9342  2.1309  0.2237
11018TIP3   OH254468   0.782   2.469   1.656  0.8770 -0.1212 -0.1051
11018TIP3    H154469   0.784   2.563   1.670  0.8031  0.0325 -1.0361
11018TIP3    H254470   0.701   2.453   1.609  1.5377 -0.4465 -1.1767
11019TIP3   OH254471   1.703   1.234   2.083 -0.0255 -0.2011 -0.0986
11019TIP3    H154472   1.779   1.181   2.058  0.4326  0.9564 -1.2994
11019TIP3    H254473   1.739   1.305   2.136 -0.5861 -0.8740  1.2124
11020TIP3   OH254474   5.545   6.630   3.007  0.4179 -0.5767  0.2653
11020TIP3    H154475   5.553   6.538   3.034 -0.5384 -0.8310 -0.2686
11020TIP3    H254476   5.463   6.634   2.959  0.6670  0.4762 -0.1072
11021TIP3   OH254477   1.726   2.940  13.294  0.6181 -0.7095  0.3319
11021TIP3    H154478   1.792   2.961  13.359  1.1323 -1.6841  0.1406
11021TIP3    H254479   1.644   2.938  13.344  0.7387  0.3132  0.6023
11022TIP3   OH254480   1.895   1.980   4.680 -0.1390 -0.5291  0.3584
11022TIP3    H154481   1.871   1.922   4.753 -1.6220 -0.8464 -0.3407
11022TIP3    H254482   1.899   1.922   4.604  0.4849 -0.0436  0.0060
11023TIP3   OH254483   5.712   3.115  11.962  0.4733 -0.1512  0.4429
11023TIP3    H154484   5.761   3.032  11.961  0.2688 -0.2700 -0.2462
11023TIP3    H254485   5.625   3.091  11.930 -0.4085 -0.1502  2.6221
11024TIP3   OH254486   3.450   4.644  15.941  0.4626 -0.2168  0.1343
11024TIP3    H154487   3.430   4.689  15.858 -0.3751  1.4831  1.2117
11024TIP3    H254488   3.495   4.710  15.994 -0.7753 -0.6176  1.7576
11025TIP3   OH254489   3.459   3.795   2.158  0.8041 -0.7530  0.0353
11025TIP3    H154490   3.399   3.784   2.084 -0.8115  0.3340  1.1283
11025TIP3    H254491   3.545   3.802   2.117 -0.2174  2.0726 -1.9929
11026TIP3   OH254492   3.207   3.990   0.196 -0.3590  0.4163 -0.4916
11026TIP3    H154493   3.301   3.972   0.191 -0.1564  0.8798  1.0308
11026TIP3    H254494   3.166   3.904   0.190  0.2114  0.1267 -0.3636
11027TIP3   OH254495   1.742   4.423   3.479  0.2928 -0.1532 -0.1427
11027TIP3    H154496   1.734   4.410   3.574  2.0188  2.0417  0.4116
11027TIP3    H254497   1.654   4.447   3.451  0.0367  0.6658  1.2302
11028TIP3   OH254498   2.838   6.012   5.393  0.5399 -0.3127  0.4581
11028TIP3    H154499   2.856   6.031   5.485  0.1043 -2.0062  0.9220
11028TIP3    H254500   2.877   6.085   5.345  0.9692  0.4766  1.9637
11029TIP3   OH254501   0.531   2.691  13.960 -0.2869  0.1245 -0.1084
11029TIP3    H154502   0.626   2.694  13.972  0.0468 -0.7445 -2.0824
11029TIP3    H254503   0.516   2.607  13.917 -1.8973  0.5141 -0.3467
11030TIP3   OH254504   2.445   5.126  13.655  0.1213  0.6805  0.6718
11030TIP3    H154505   2.525   5.131  13.706  0.3690  2.3855  0.1830
11030TIP3    H254506   2.463   5.178  13.576 -1.0438  0.0819 -0.0231
11031TIP3   OH254507   6.627   3.957   6.421 -0.2149 -0.0060  1.0420
11031TIP3    H154508   6.587   3.978   6.337 -0.6079  2.0518  1.6941
11031TIP3    H254509   6.608   3.864   6.434 -0.2715 -0.3338 -1.0387
11032TIP3   OH254510   1.272   4.832   1.458 -0.2241 -0.0425  0.2618
11032TIP3    H154511   1.200   4.774   1.483 -1.6404  2.1278  1.5764
11032TIP3    H254512   1.247   4.866   1.372 -0.1144 -0.2441  0.1482
11033TIP3   OH254513   5.003   2.457  12.889  0.2192 -0.2989 -0.4966
11033TIP3    H154514   5.089   2.419  12.873  0.7547 -0.0445  1.4767
11033TIP3    H254515   4.941   2.388  12.865  1.0215 -0.9445 -0.7458
11034TIP3   OH254516   5.600   3.036  12.346 -0.9723 -0.1867  0.0189
11034TIP3    H154517   5.566   3.080  12.424  0.9209 -0.0534  0.8259
11034TIP3    H254518   5.685   3.077  12.331  0.6613 -3.1248  0.4815
11035TIP3   OH254519   3.602   2.593   1.455 -0.5708  0.1105  0.2200
11035TIP3    H154520   3.555   2.586   1.372  0.4313 -3.2407 -0.2156
11035TIP3    H254521   3.692   2.566   1.434 -0.0409  0.1089  2.2273
11036TIP3   OH254522   3.633   0.465   1.468 -0.7761 -0.2305 -0.3440
11036TIP3    H154523   3.729   0.460   1.466 -0.8344 -1.7537 -0.0356
11036TIP3    H254524   3.613   0.523   1.541 -0.0860  1.1442 -1.1948
11037TIP3   OH254525   5.367   2.077   0.348 -0.1205 -0.0671  0.4146
11037TIP3    H154526   5.382   2.048   0.437 -0.2561 -0.7620  0.2170
11037TIP3    H254527   5.390   2.170   0.348  2.2437 -0.5957  0.5971
11038TIP3   OH254528   2.066   3.393   1.924  0.0361  0.0846  0.1334
11038TIP3    H154529   2.092   3.327   1.860  0.4402  0.9205 -0.5700
11038TIP3    H254530   2.146   3.415   1.971 -0.1115  0.0318  0.4156
11039TIP3   OH254531   5.245   1.629   3.976 -0.6725  0.1469 -0.3917
11039TIP3    H154532   5.277   1.635   3.886  1.3623 -1.0600  0.1803
11039TIP3    H254533   5.191   1.550   3.978 -1.6574  0.7886 -0.7739
11040TIP3   OH254534   2.083   6.545   1.953  0.1641 -0.0517  0.1460
11040TIP3    H154535   2.129   6.590   1.882 -0.2526 -0.5623 -0.4543
11040TIP3    H254536   2.051   6.616   2.009  1.8834  0.3196  0.7383
11041TIP3   OH254537   2.038   5.581   1.822 -0.5121  0.4055  0.0464
11041TIP3    H154538   1.952   5.620   1.841  0.0975  1.4133  0.8244
11041TIP3    H254539   2.034   5.495   1.864 -1.0218  0.5814  0.3768
11042TIP3   OH254540   5.268   1.223  15.484  0.2039  0.2341  0.0085
11042TIP3    H154541   5.301   1.242  15.396 -1.2789  0.4536 -0.5343
11042TIP3    H254542   5.337   1.171  15.525  0.6972 -0.3487 -1.4836
11043TIP3   OH254543   1.148   0.448  17.083 -0.2915  0.2580  0.3124
11043TIP3    H154544   1.101   0.492  17.154 -0.6127 -0.3962  0.5214
11043TIP3    H254545   1.199   0.380  17.128 -1.4719 -0.9895 -0.1745
11044TIP3   OH254546   0.706   4.523   1.576  0.4137 -0.0139 -0.0479
11044TIP3    H154547   0.761   4.464   1.524 -0.4907 -1.0724  0.1660
11044TIP3    H254548   0.732   4.507   1.666 -0.4617 -0.7620  0.0800
11045TIP3   OH254549   1.076   3.477   3.176 -0.8231 -0.2164 -0.2753
11045TIP3    H154550   1.013   3.516   3.116 -0.1219  0.8205 -0.3745
11045TIP3    H254551   1.042   3.497   3.263 -1.1332 -0.5223 -0.3244
11046TIP3   OH254552   1.420   4.234   0.987  0.6674  0.3513  0.1548
11046TIP3    H154553   1.383   4.211   1.073 -0.0493  1.6763  0.2350
11046TIP3    H254554   1.396   4.161   0.930  1.2478 -0.6009  1.0922
11047TIP3   OH254555   5.008   1.430  14.099  0.5245  0.0179 -0.7688
11047TIP3    H154556   5.078   1.475  14.051  0.7067 -0.3652 -0.8648
11047TIP3    H254557   4.967   1.373  14.034  1.3157 -1.1368 -0.2804
11048TIP3   OH254558   1.501   5.138   2.729  0.3198  0.2956 -0.1827
11048TIP3    H154559   1.543   5.175   2.807 -0.3566 -0.5162  0.5856
11048TIP3    H254560   1.408   5.157   2.741  0.0612 -0.8980 -0.1765
11049TIP3   OH254561   2.855   3.190   4.650 -0.4956  0.0840  0.1564
11049TIP3    H154562   2.874   3.158   4.562 -0.7942  1.3856 -0.4019
11049TIP3    H254563   2.940   3.196   4.693 -0.1163  1.3003 -0.7148
11050TIP3   OH254564   1.147   3.689   1.015  0.2139 -0.1534 -0.4552
11050TIP3    H154565   1.126   3.610   1.065 -0.5174  0.9470  1.0533
11050TIP3    H254566   1.112   3.672   0.927 -1.3773 -0.8801  0.2821
11051TIP3   OH254567   3.690   2.595   5.816 -0.6342  0.2282 -0.0698
11051TIP3    H154568   3.724   2.552   5.737 -3.1799 -0.5795 -0.8109
11051TIP3    H254569   3.699   2.529   5.884 -0.5755  0.0669 -0.2317
11052TIP3   OH254570   2.478   5.068   6.571  0.1361  0.0480  0.1305
11052TIP3    H154571   2.504   5.018   6.649 -1.2824 -2.1168 -0.6794
11052TIP3    H254572   2.556   5.071   6.517  0.8205  0.5757  1.1219
11053TIP3   OH254573   1.286   2.235  12.339  0.0614 -0.2957  0.1422
11053TIP3    H154574   1.218   2.175  12.369  1.1446 -0.9910  1.3031
11053TIP3    H254575   1.329   2.189  12.267 -0.4214 -0.0289 -0.3213
11054TIP3   OH254576   3.904   3.084  13.318  0.1218 -0.6356 -0.2367
11054TIP3    H154577   3.889   3.043  13.403  0.0559  0.4667  0.3094
11054TIP3    H254578   3.903   3.178  13.337  3.4496 -0.3429 -0.8488
11055TIP3   OH254579   2.526   0.462   5.765 -0.7487  0.3627 -0.2704
11055TIP3    H154580   2.445   0.453   5.814 -0.0232 -2.7894  0.5702
11055TIP3    H254581   2.530   0.383   5.711  1.1831  1.0572 -1.2409
11056TIP3   OH254582   6.196   1.362   0.457 -0.1737  0.2988  0.0357
11056TIP3    H154583   6.116   1.413   0.449 -0.8343 -0.3471  2.0708
11056TIP3    H254584   6.203   1.340   0.550  0.9848 -1.8448 -0.4709
11057TIP3   OH254585   2.158   2.057  14.480  0.0881 -0.5517  0.8356
11057TIP3    H154586   2.170   1.996  14.552 -0.3447 -0.9021  0.6135
11057TIP3    H254587   2.153   2.002  14.402 -0.7055 -0.2679  0.6775
11058TIP3   OH254588   0.463   2.582  14.196  0.5102 -0.2836  0.2765
11058TIP3    H154589   0.393   2.522  14.170  0.3260 -0.5122  1.2783
11058TIP3    H254590   0.485   2.629  14.115 -2.1851  1.2409  0.3338
11059TIP3   OH254591   6.553   0.968  12.925  0.7536 -0.1366  0.0179
11059TIP3    H154592   6.554   0.939  12.834  0.0818  1.3845 -0.5097
11059TIP3    H254593   6.495   1.044  12.925 -0.8311 -1.2286  2.0864
11060TIP3   OH254594   2.601   0.242   2.495 -0.5233  0.3972 -0.5240
11060TIP3    H154595   2.692   0.218   2.514 -0.5235  0.5000 -0.3922
11060TIP3    H254596   2.576   0.300   2.566 -1.3235 -1.1142  0.4770
11061TIP3   OH254597   1.543   2.339   0.531 -0.1063 -0.1908  0.2660
11061TIP3    H154598   1.556   2.346   0.625  1.4913 -1.0236  0.1418
11061TIP3    H254599   1.554   2.428   0.498  3.3148 -0.4067  0.4853
11062TIP3   OH254600   3.469   2.997   1.535  0.4948 -0.7471 -0.0099
11062TIP3    H154601   3.529   3.039   1.597  1.7876 -2.1890 -0.2028
11062TIP3    H254602   3.467   2.905   1.562  1.0398 -1.4000 -2.0174
11063TIP3   OH254603   4.471   5.780  16.553 -0.3558  0.4276 -1.0916
11063TIP3    H154604   4.532   5.748  16.487 -0.9002  1.7439 -2.2884
11063TIP3    H254605   4.384   5.762  16.516 -0.6700  0.9447 -0.6235
11064TIP3   OH254606   5.690   3.231  14.169 -0.4999 -0.0555 -0.1243
11064TIP3    H154607   5.781   3.216  14.142 -0.6721 -1.0387 -0.2084
11064TIP3    H254608   5.660   3.303  14.114  0.9935  2.0759  1.6617
11065TIP3   OH254609   3.708   3.097  16.500  0.0811  0.1327 -0.5533
11065TIP3    H154610   3.712   3.105  16.595 -1.8391  2.5600 -0.5747
11065TIP3    H254611   3.723   3.186  16.468  1.1263 -0.6982 -2.5795
11066TIP3   OH254612   4.714   4.018  13.010 -0.3133 -0.1572 -0.1574
11066TIP3    H154613   4.649   4.029  13.079  1.0815 -0.7936  1.3250
11066TIP3    H254614   4.786   4.076  13.035 -0.6397  1.3057 -2.2940
11067TIP3   OH254615   4.983   4.651   2.200  1.0445  0.0952  0.2895
11067TIP3    H154616   4.926   4.640   2.277  0.3783  0.3797 -0.1535
11067TIP3    H254617   4.933   4.612   2.128  1.3637  0.4581 -0.1283
11068TIP3   OH254618   5.804   2.672  12.399  0.4406  0.4828  0.5265
11068TIP3    H154619   5.773   2.718  12.477  0.0842  0.0316  0.6551
11068TIP3    H254620   5.787   2.580  12.418 -0.8076  0.4537 -0.5972
11069TIP3   OH254621   4.701   1.559   2.156  0.1634 -0.2923  0.0284
11069TIP3    H154622   4.620   1.577   2.109  0.4230  3.5768  0.7500
11069TIP3    H254623   4.763   1.625   2.126  1.0282  1.0356  4.0153
11070TIP3   OH254624   1.390   1.671   1.733 -0.0329  0.7178 -0.1719
11070TIP3    H154625   1.353   1.759   1.720 -0.1066  0.7991  0.5446
11070TIP3    H254626   1.446   1.680   1.811  1.0803  0.4655 -0.9209
11071TIP3   OH254627   2.418   2.360  12.495 -1.0747  0.2659  0.0453
11071TIP3    H154628   2.437   2.360  12.402 -0.5320  0.2739  0.1525
11071TIP3    H254629   2.360   2.435  12.508 -0.7241  0.5827 -0.2027
11072TIP3   OH254630   2.655   3.672  16.900  0.7186 -0.3154 -0.2461
11072TIP3    H154631   2.637   3.730  16.973  0.8494 -0.0882 -0.3923
11072TIP3    H254632   2.583   3.688  16.838  1.0765  0.1341 -0.5526
11073TIP3   OH254633   6.493   2.751  15.689  0.2332 -0.0932  0.2600
11073TIP3    H154634   6.573   2.767  15.739 -0.0912  0.7955  0.5238
11073TIP3    H254635   6.423   2.785  15.745 -0.3145 -0.7300 -0.0274
11074TIP3   OH254636   4.341   1.628  15.039 -0.7888  0.1982  0.5695
11074TIP3    H154637   4.303   1.541  15.045 -1.3653  0.5333  2.2822
11074TIP3    H254638   4.274   1.687  15.074  0.5535  1.0194  1.9177
11075TIP3   OH254639   5.881   1.539  11.495 -0.1303  0.1943  0.1112
11075TIP3    H154640   5.826   1.489  11.555  0.9586 -3.1445 -1.3923
11075TIP3    H254641   5.825   1.557  11.420  0.3117 -2.1857 -0.9140
11076TIP3   OH254642   3.440   5.999  11.609 -0.4027 -0.3832 -0.1655
11076TIP3    H154643   3.448   6.018  11.702 -1.4917 -0.4277 -0.0453
11076TIP3    H254644   3.376   6.063  11.577 -2.5783 -2.4244 -0.1789
11077TIP3   OH254645   6.699   3.616   6.181 -0.5222 -0.0710 -0.1984
11077TIP3    H154646   6.765   3.620   6.251 -0.4818  1.7669 -0.3008
11077TIP3    H254647   6.667   3.526   6.184 -0.5230 -0.0654  2.2049
11078TIP3   OH254648   5.033   0.390   1.882  0.1306  0.2420 -0.2718
11078TIP3    H154649   4.956   0.447   1.882  1.2907  1.9092  0.5560
11078TIP3    H254650   5.087   0.424   1.811  1.4573  1.1444  1.0914
11079TIP3   OH254651   1.384   3.195   0.735  0.4873 -0.1261  0.9275
11079TIP3    H154652   1.387   3.119   0.794  1.6900 -1.7120 -1.0649
11079TIP3    H254653   1.475   3.221   0.724  0.1133  1.5385  1.4054
11080TIP3   OH254654   0.245   3.518  13.527 -0.0112  0.3803 -0.3839
11080TIP3    H154655   0.150   3.519  13.517  0.0665  1.4528 -1.2293
11080TIP3    H254656   0.278   3.486  13.443  0.3336 -2.3237  0.6994
11081TIP3   OH254657   2.831   3.560   3.095  0.1943  0.0201 -0.4613
11081TIP3    H154658   2.899   3.627   3.089  0.4844  0.1032  2.3826
11081TIP3    H254659   2.752   3.603   3.062  0.1988  2.1468  1.9939
11082TIP3   OH254660   6.357   5.346   5.876  0.2744 -0.0786 -0.0184
11082TIP3    H154661   6.400   5.426   5.846 -0.0456  0.0596 -0.1123
11082TIP3    H254662   6.416   5.276   5.849  0.4650  0.1145 -0.1049
11083TIP3   OH254663   0.938   1.734  10.752  0.3348  0.2657  0.2967
11083TIP3    H154664   1.031   1.719  10.770  0.4722  0.0227 -0.5499
11083TIP3    H254665   0.900   1.646  10.751  0.3330  0.2683 -0.5385
11084TIP3   OH254666   6.297   4.540  10.835 -0.2938 -0.5228  0.7377
11084TIP3    H154667   6.210   4.576  10.820 -0.3085 -0.6916  0.4062
11084TIP3    H254668   6.312   4.482  10.760  0.1550 -0.3933  0.7261
11085TIP3   OH254669   6.172   5.074  16.650  0.6483  0.1803  0.0095
11085TIP3    H154670   6.160   5.064  16.745  0.2332 -1.7297 -0.1993
11085TIP3    H254671   6.231   5.003  16.626 -0.7618 -0.5647 -1.4354
11086TIP3   OH254672   2.625   4.056  13.636  0.0292 -0.3042  0.3193
11086TIP3    H154673   2.581   4.048  13.551  0.7677  1.1224 -0.2368
11086TIP3    H254674   2.563   4.103  13.691  0.1878  0.2319  0.0488
11087TIP3   OH254675   5.644   6.589   4.818 -0.2881 -0.1831  0.1345
11087TIP3    H154676   5.721   6.596   4.876  0.1378 -1.8058 -0.1939
11087TIP3    H254677   5.627   6.679   4.791  0.4961  0.4180  1.5024
11088TIP3   OH254678   1.142   0.840   5.166 -0.4881  0.7927 -0.2115
11088TIP3    H154679   1.116   0.802   5.250 -1.8577  1.0046 -0.5283
11088TIP3    H254680   1.162   0.765   5.111 -0.8748  0.6106 -0.1039
11089TIP3   OH254681   6.169   5.001  15.067 -0.5152 -0.4917  0.2389
11089TIP3    H154682   6.080   4.997  15.101 -0.9653  1.1672 -0.6320
11089TIP3    H254683   6.220   5.040  15.137 -1.0744  1.2088 -0.2555
11090TIP3   OH254684   4.968   0.628   4.894  0.3152  0.5980  0.2160
11090TIP3    H154685   4.885   0.610   4.851 -0.0004 -1.3960  1.5703
11090TIP3    H254686   5.030   0.638   4.822 -0.6567 -0.1800 -0.7647
11091TIP3   OH254687   1.808   0.615  13.306 -0.2474 -0.1320  0.1349
11091TIP3    H154688   1.885   0.663  13.338 -0.1011  0.4974 -1.0983
11091TIP3    H254689   1.824   0.524  13.333  1.0601 -0.0555 -0.2927
11092TIP3   OH254690   0.693   3.041   4.373 -0.2698  0.0639  0.0080
11092TIP3    H154691   0.622   2.997   4.326 -1.2780  3.5161 -2.0823
11092TIP3    H254692   0.649   3.097   4.437  0.9242 -1.3925  2.2383
11093TIP3   OH254693   4.482   5.887   2.076 -0.7222  0.4285  0.4920
11093TIP3    H154694   4.415   5.904   2.011  0.4932  0.7412 -0.7297
11093TIP3    H254695   4.551   5.840   2.029  1.1441  2.4920  0.9534
11094TIP3   OH254696   5.447   4.186   1.766  0.8067 -0.2844 -0.1187
11094TIP3    H154697   5.364   4.234   1.770 -0.4035 -1.7906 -3.4501
11094TIP3    H254698   5.513   4.254   1.753 -0.1300  0.8176  0.6506
11095TIP3   OH254699   4.536   4.992   2.883  0.0615  0.5706  0.0705
11095TIP3    H154700   4.460   4.967   2.935  1.4357  0.0639  1.9540
11095TIP3    H254701   4.525   4.947   2.799 -1.7706  0.6638  0.2252
11096TIP3   OH254702   5.438   0.238   5.717 -0.2204  0.1251  0.1842
11096TIP3    H154703   5.517   0.254   5.665 -0.7081 -0.2639 -0.7156
11096TIP3    H254704   5.406   0.153   5.686 -0.7710  0.0917  0.8168
11097TIP3   OH254705   3.621   0.619   1.683  0.2853  0.0644  0.0381
11097TIP3    H154706   3.664   0.700   1.713  2.9517 -1.7347  1.5156
11097TIP3    H254707   3.539   0.617   1.732  0.8463  1.1728  1.0892
11098TIP3   OH254708   5.792   2.338   1.965  0.2197 -0.0225  0.1372
11098TIP3    H154709   5.730   2.374   1.901 -0.3158 -1.5710 -0.2440
11098TIP3    H254710   5.745   2.265   2.005  2.8147 -3.3947 -2.4506
11099TIP3   OH254711   6.157   5.748  12.915 -0.5988  0.6238  0.4198
11099TIP3    H154712   6.140   5.654  12.914  1.9923  0.0212 -2.4134
11099TIP3    H254713   6.209   5.763  12.993 -0.5867 -0.4095  0.6227
11100TIP3   OH254714   1.043   6.186   3.361  0.3367 -0.1008  0.2572
11100TIP3    H154715   1.115   6.132   3.330  0.0246 -1.1192  1.2402
11100TIP3    H254716   0.977   6.123   3.391 -1.5113  0.7444 -1.7273
11101TIP3   OH254717   1.834   6.598  15.335 -0.1813  0.2660 -0.6495
11101TIP3    H154718   1.795   6.518  15.368  0.0413  0.6623  0.6477
11101TIP3    H254719   1.927   6.590  15.356  0.3070 -0.2198 -2.7745
11102TIP3   OH254720   5.121   2.837  12.990 -0.1481  0.3047 -0.1444
11102TIP3    H154721   5.029   2.822  13.012 -0.6147  0.4810 -1.8352
11102TIP3    H254722   5.142   2.922  13.030 -0.5745  0.0508  0.6304
11103TIP3   OH254723   3.879   2.933  13.572 -0.1040  0.2870 -1.3677
11103TIP3    H154724   3.957   2.927  13.628 -0.1137  0.9321 -1.2873
11103TIP3    H254725   3.824   2.859  13.600  0.1057  0.3194 -0.8626
11104TIP3   OH254726   2.706   3.500   5.555 -0.7690  0.1808 -0.7525
11104TIP3    H154727   2.691   3.590   5.524 -1.7027  1.6049  3.2184
11104TIP3    H254728   2.794   3.502   5.591 -1.6245  0.4086  1.5658
11105TIP3   OH254729   5.399   6.209  14.033 -0.1924 -0.0352  0.0586
11105TIP3    H154730   5.367   6.260  13.959  2.5452  1.5404 -0.1802
11105TIP3    H254731   5.399   6.270  14.106 -0.9065 -0.9848  0.8782
11106TIP3   OH254732   0.897   5.519  16.764 -0.2695  0.5334  0.7151
11106TIP3    H154733   0.971   5.471  16.802  2.1269  0.6167 -3.2931
11106TIP3    H254734   0.890   5.598  16.818  1.1622 -0.4835  2.4966
11107TIP3   OH254735   1.666   4.655  12.013 -0.7670  0.5903  0.1472
11107TIP3    H154736   1.686   4.723  12.077  0.8120  1.6281 -1.3532
11107TIP3    H254737   1.739   4.658  11.952 -2.9306  0.7640 -2.6160
11108TIP3   OH254738   5.997   5.889   2.275 -0.0864 -0.6180  0.3371
11108TIP3    H154739   5.914   5.893   2.227 -0.5492 -3.1630  0.7947
11108TIP3    H254740   6.053   5.834   2.220  0.8270 -0.1001  0.7336
11109TIP3   OH254741   1.380   3.708  15.560 -0.3122 -0.0340  0.4143
11109TIP3    H154742   1.452   3.653  15.530 -0.2454  1.2747 -2.0905
11109TIP3    H254743   1.328   3.651  15.617  1.4808 -1.6486  0.5323
11110TIP3   OH254744   5.936   3.476  12.503 -0.5146  0.5992  0.4351
11110TIP3    H154745   6.030   3.467  12.487 -0.4312  0.7572  0.8233
11110TIP3    H254746   5.902   3.516  12.423 -0.3724 -0.1298 -0.0057
11111TIP3   OH254747   6.326   3.351  11.386  0.6684 -0.6512 -0.2902
11111TIP3    H154748   6.233   3.339  11.372  0.5750 -0.8955  0.4854
11111TIP3    H254749   6.333   3.379  11.478  1.1020  2.2791 -1.1173
11112TIP3   OH254750   2.059   0.798  16.135  0.1136  0.7743  0.4987
11112TIP3    H154751   1.981   0.837  16.175 -0.0755 -0.2632  1.1708
11112TIP3    H254752   2.069   0.713  16.179  1.0831  0.4896 -0.2382
11113TIP3   OH254753   2.930   0.956   0.559  0.1602  0.0741 -0.0398
11113TIP3    H154754   2.927   0.890   0.491  0.2930  1.0083 -0.9742
11113TIP3    H254755   2.839   0.974   0.580  0.1244 -0.4801  0.3149
11114TIP3   OH254756   3.685   4.062   1.292  0.2479  0.1468 -0.0660
11114TIP3    H154757   3.770   4.068   1.248  0.6803  1.5176  0.8912
11114TIP3    H254758   3.676   4.145   1.338 -2.1633  0.5362 -1.0704
11115TIP3   OH254759   0.999   5.445  12.413  0.8410  0.6078 -0.1078
11115TIP3    H154760   0.954   5.483  12.338  0.5419  0.0875 -0.1911
11115TIP3    H254761   1.070   5.507  12.431  0.4550  1.1312 -0.3386
11116TIP3   OH254762   4.578   3.606  17.090 -0.5189  0.5289  0.0051
11116TIP3    H154763   4.537   3.589  17.175  2.0613 -2.2143  0.8776
11116TIP3    H254764   4.505   3.630  17.033 -2.6791  0.1922  2.4074
11117TIP3   OH254765   3.198   0.180   5.391 -0.0458  0.7752  0.0819
11117TIP3    H154766   3.214   0.087   5.406  0.8074  0.8533 -0.3030
11117TIP3    H254767   3.267   0.208   5.331 -1.6356  1.1389 -1.6973
11118TIP3   OH254768   6.695   2.886   1.693 -0.0227 -0.4158 -0.2617
11118TIP3    H154769   6.783   2.887   1.732 -0.4231  0.0962  0.6563
11118TIP3    H254770   6.683   2.795   1.665  0.9584 -0.4036 -0.7898
11119TIP3   OH254771   3.245   4.230  15.700 -0.1304 -0.1542  0.4090
11119TIP3    H154772   3.320   4.171  15.691 -1.1390 -1.5143  0.5498
11119TIP3    H254773   3.276   4.315  15.668  1.3483 -0.7777  0.1399
11120TIP3   OH254774   5.112   5.529   1.257  0.1442  0.5312  0.5176
11120TIP3    H154775   5.178   5.580   1.304  2.1929 -0.5558 -1.0443
11120TIP3    H254776   5.048   5.594   1.228  0.1639  1.5468  2.5645
11121TIP3   OH254777   4.218   6.462  13.713  0.2546 -0.9970  0.0624
11121TIP3    H154778   4.285   6.518  13.673  0.0347 -2.0170 -1.9002
11121TIP3    H254779   4.263   6.379  13.728 -0.5708 -1.8020 -1.5819
11122TIP3   OH254780   5.224   3.290   1.482 -0.0272 -0.0552 -0.4022
11122TIP3    H154781   5.220   3.195   1.490 -1.0170  0.0853  1.3604
11122TIP3    H254782   5.289   3.318   1.546 -0.1933  0.4792 -0.4539
11123TIP3   OH254783   5.511   2.819  12.547 -0.1255  0.1575  0.3227
11123TIP3    H154784   5.604   2.806  12.567 -0.0048 -0.1288 -0.3929
11123TIP3    H254785   5.510   2.844  12.455 -0.7083  0.9202  0.5274
11124TIP3   OH254786   6.471   0.582  13.600  0.3409 -0.0767 -0.5071
11124TIP3    H154787   6.480   0.602  13.507  0.6407  0.8214 -0.3010
11124TIP3    H254788   6.392   0.627  13.627  0.5323  0.0903 -0.2205
11125TIP3   OH254789   1.282   2.922   5.197  0.3300 -0.0717  0.5414
11125TIP3    H154790   1.321   3.001   5.160  1.2292 -0.7501  0.0238
11125TIP3    H254791   1.257   2.869   5.121 -1.7659  0.3914  0.8336
11126TIP3   OH254792   3.567   3.257  12.862  0.1443  0.1988  0.2883
11126TIP3    H154793   3.552   3.351  12.875  1.5221  0.3041  1.3078
11126TIP3    H254794   3.657   3.243  12.890  0.3945 -1.2184 -1.1121
11127TIP3   OH254795   5.090   4.587   4.575 -0.6238 -0.0722 -0.0777
11127TIP3    H154796   5.024   4.614   4.511 -1.4959 -0.4558  0.6481
11127TIP3    H254797   5.123   4.670   4.611 -1.1649  0.1160  0.0069
11128TIP3   OH254798   4.828   0.548  13.881 -0.3285  0.1491  0.5998
11128TIP3    H154799   4.857   0.639  13.885  0.3661  0.1143 -1.7274
11128TIP3    H254800   4.909   0.498  13.873 -0.7879 -0.4571 -0.4185
11129TIP3   OH254801   6.183   2.494  13.490 -0.6093  0.0270 -0.6433
11129TIP3    H154802   6.178   2.568  13.551  1.3228 -0.3433  0.0444
11129TIP3    H254803   6.196   2.418  13.547  0.5680 -0.4175 -1.4824
11130TIP3   OH254804   5.832   5.494   4.108  0.0123  0.0865  0.4108
11130TIP3    H154805   5.840   5.466   4.016 -1.9158 -0.6698  0.4335
11130TIP3    H254806   5.801   5.416   4.153  0.0218  0.7296  1.5466
11131TIP3   OH254807   1.117   3.085  12.921 -0.1060  0.1504  0.1506
11131TIP3    H154808   1.164   3.047  12.995  3.3366  2.0922 -0.8386
11131TIP3    H254809   1.147   3.035  12.845  1.5134  2.2133 -0.6559
11132TIP3   OH254810   1.881   1.565   3.109 -0.0807 -0.3169  0.3595
11132TIP3    H154811   1.839   1.480   3.123  1.7951 -1.3549  0.0341
11132TIP3    H254812   1.864   1.585   3.017 -0.4708 -0.3725  0.4185
11133TIP3   OH254813   4.759   5.404   3.364 -0.4776 -0.4591 -0.3416
11133TIP3    H154814   4.792   5.493   3.352  0.3121 -0.7413 -0.3039
11133TIP3    H254815   4.668   5.409   3.336  0.2361 -0.2171 -2.9042
11134TIP3   OH254816   2.242   5.458   0.279  0.0828  0.0276 -0.1102
11134TIP3    H154817   2.179   5.517   0.321 -0.8206 -1.7873  1.2451
11134TIP3    H254818   2.238   5.480   0.186 -1.5953  0.8223  0.1125
11135TIP3   OH254819   3.451   5.317   0.772  0.4628 -0.2185  0.4405
11135TIP3    H154820   3.521   5.356   0.720  0.9624 -1.4420  0.1551
11135TIP3    H254821   3.492   5.300   0.857  0.1905  0.0575  0.6290
11136TIP3   OH254822   5.134   3.640  11.096 -0.5096  0.0481  1.1012
11136TIP3    H154823   5.127   3.676  11.008 -1.8671 -1.1759  0.6792
11136TIP3    H254824   5.046   3.650  11.133 -0.4704 -1.2653  1.5867
11137TIP3   OH254825   2.464   0.753  15.797  0.4710  0.6463  0.1180
11137TIP3    H154826   2.492   0.731  15.885  0.9536  2.3719  0.4217
11137TIP3    H254827   2.393   0.690  15.778  1.6598 -1.0244  0.9385
11138TIP3   OH254828   1.919   5.540   3.479  0.3908  0.1760 -0.3273
11138TIP3    H154829   1.825   5.531   3.497  0.1573 -2.2334 -2.2491
11138TIP3    H254830   1.930   5.632   3.457 -1.3741  0.6533  0.5323
11139TIP3   OH254831   3.550   2.215  16.953 -0.3179  0.4521 -0.0674
11139TIP3    H154832   3.580   2.302  16.925 -0.1249 -0.3732 -2.5894
11139TIP3    H254833   3.456   2.215  16.934 -0.3409  0.1374  0.0508
11140TIP3   OH254834   4.338   1.947   1.654 -0.2376  0.3391  0.0840
11140TIP3    H154835   4.328   1.863   1.609  1.0800 -1.2620  2.5076
11140TIP3    H254836   4.423   1.980   1.625  0.7285 -0.8133  1.4197
11141TIP3   OH254837   3.017   5.084   3.247  0.7119  0.6252  0.2314
11141TIP3    H154838   3.103   5.046   3.267 -0.2253 -3.1304 -1.8252
11141TIP3    H254839   3.025   5.116   3.158 -0.7223 -3.0835 -1.4455
11142TIP3   OH254840   6.569   2.032   3.099 -0.5446  0.1573  0.0228
11142TIP3    H154841   6.572   2.119   3.060 -1.6590  0.1226 -0.1756
11142TIP3    H254842   6.652   1.992   3.075 -0.7341  0.5493 -1.3596
11143TIP3   OH254843   2.854   4.459   2.312  0.4688  0.1091 -0.6415
11143TIP3    H154844   2.913   4.511   2.258  2.2202 -0.4907  0.5879
11143TIP3    H254845   2.860   4.499   2.399 -0.8673 -0.0413 -0.4679
11144TIP3   OH254846   1.583   2.812  14.613 -0.1643  0.1099  0.6563
11144TIP3    H154847   1.575   2.809  14.708 -1.4047 -0.3420  0.5553
11144TIP3    H254848   1.500   2.849  14.583 -0.5326 -1.4356 -0.3411
11145TIP3   OH254849   2.592   5.825   2.474  0.2622  0.1202 -0.3475
11145TIP3    H154850   2.546   5.830   2.558  0.8363  1.6300 -0.0835
11145TIP3    H254851   2.663   5.889   2.482  0.6231 -0.0644 -1.8063
11146TIP3   OH254852   5.794   2.351  12.895 -0.2926  0.1628  0.1189
11146TIP3    H154853   5.808   2.263  12.930 -0.2423 -0.4463 -1.3667
11146TIP3    H254854   5.868   2.365  12.836 -0.6965  0.9084 -0.2236
11147TIP3   OH254855   1.900   3.672   5.464  0.0375  0.4451  0.4279
11147TIP3    H154856   1.865   3.683   5.552  0.0601 -0.5068  0.5647
11147TIP3    H254857   1.878   3.582   5.440 -1.0053  1.0384 -1.0001
11148TIP3   OH254858   2.975   1.245  13.840 -0.3515 -0.1799 -0.1974
11148TIP3    H154859   3.056   1.284  13.872 -0.1799 -1.6846  1.3677
11148TIP3    H254860   2.917   1.320  13.825  1.3002  0.9238 -1.4309
11149TIP3   OH254861   0.109   0.307  12.999 -0.0462 -0.5105 -0.4447
11149TIP3    H154862   0.161   0.308  13.080 -1.4505 -4.2085  0.7488
11149TIP3    H254863   0.159   0.252  12.939 -0.2529  0.0368 -1.1323
11150TIP3   OH254864   3.236   0.521   5.029  0.3419  0.0578  0.1469
11150TIP3    H154865   3.181   0.507   5.107  1.5191 -0.5950  0.8991
11150TIP3    H254866   3.318   0.475   5.049  0.4927 -0.5735 -1.7063
11151TIP3   OH254867   6.481   0.751   5.180  0.4274  0.2409  0.4169
11151TIP3    H154868   6.558   0.782   5.132 -0.0872  1.5755  0.4144
11151TIP3    H254869   6.418   0.728   5.111  0.3071  0.5191  0.4341
11152TIP3   OH254870   2.807   3.891   3.229 -0.1317  0.5331  0.2858
11152TIP3    H154871   2.837   3.981   3.246  0.0759  0.5042  0.0794
11152TIP3    H254872   2.811   3.882   3.134 -2.4447  1.0922  0.0720
11153TIP3   OH254873   3.769   1.100  14.815 -0.3478  0.3730  0.8417
11153TIP3    H154874   3.705   1.033  14.790 -0.0087  0.3430 -0.0001
11153TIP3    H254875   3.717   1.179  14.827 -0.6525  0.1451  1.0497
11154TIP3   OH254876   6.483   5.711   4.508  0.0942  0.6177  0.4919
11154TIP3    H154877   6.425   5.765   4.562 -0.1951  1.6320 -0.7730
11154TIP3    H254878   6.492   5.760   4.426  1.3562 -0.3619  0.0014
11155TIP3   OH254879   3.891   2.316  16.390 -0.2210 -0.5254 -0.6613
11155TIP3    H154880   3.940   2.385  16.434  0.6732 -0.3133 -1.9191
11155TIP3    H254881   3.839   2.361  16.324  0.8789 -1.0718 -1.9443
11156TIP3   OH254882   2.484   3.068   2.739 -0.4368  0.0476  0.0949
11156TIP3    H154883   2.548   3.058   2.809 -0.3627  1.5084  0.2688
11156TIP3    H254884   2.408   3.108   2.781 -0.1724  1.5080 -0.7298
11157TIP3   OH254885   1.253   6.538  13.883  0.1735 -0.2818  0.2615
11157TIP3    H154886   1.183   6.513  13.942 -0.4929 -0.0708 -0.4197
11157TIP3    H254887   1.212   6.540  13.796  0.5846  1.5008  0.0572
11158TIP3   OH254888   6.629   5.181   5.340  0.1005  0.3024  0.5352
11158TIP3    H154889   6.651   5.098   5.383 -1.5077 -0.9789 -0.9379
11158TIP3    H254890   6.539   5.200   5.369 -0.2454  0.4922 -0.5917
11159TIP3   OH254891   2.736   0.924  15.322  0.2706 -0.7329 -0.3110
11159TIP3    H154892   2.795   0.848  15.326  1.2885 -0.0123 -0.8966
11159TIP3    H254893   2.774   0.979  15.253  0.6293  1.1696  1.3227
11160TIP3   OH254894   5.963   6.581  13.760  0.3452 -0.5473 -0.1494
11160TIP3    H154895   5.986   6.659  13.810  1.2449 -0.4401 -0.7125
11160TIP3    H254896   5.886   6.545  13.805  1.4464 -0.7737  1.6446
11161TIP3   OH254897   5.130   0.604   0.162  0.2148 -0.4973  0.2053
11161TIP3    H154898   5.217   0.623   0.127 -0.2944 -0.4621 -1.1174
11161TIP3    H254899   5.070   0.638   0.096 -0.8420  0.3775  1.5490
11162TIP3   OH254900   5.253   0.409   0.805  0.5149 -0.0133 -0.2157
11162TIP3    H154901   5.207   0.489   0.780 -2.2516 -0.2282  3.3303
11162TIP3    H254902   5.247   0.353   0.728 -3.1066  0.9855 -0.8721
11163TIP3   OH254903   2.029   3.634   4.231  0.1584 -0.2399  0.0432
11163TIP3    H154904   1.970   3.602   4.300  3.1818  0.5794  3.2905
11163TIP3    H254905   1.988   3.715   4.202 -1.5129 -0.9022  0.3968
11164TIP3   OH254906   2.036   6.334   1.804  0.5643 -0.3852  0.2031
11164TIP3    H154907   2.046   6.413   1.857  1.4298 -0.3369 -0.0194
11164TIP3    H254908   1.975   6.280   1.854  0.0533  0.3662  0.4146
11165TIP3   OH254909   2.549   4.837   5.396  0.2647 -0.4881 -0.5145
11165TIP3    H154910   2.564   4.762   5.339 -0.2296  0.1250 -1.4841
11165TIP3    H254911   2.486   4.806   5.461  0.6150 -1.1095 -0.4620
11166TIP3   OH254912   0.485   3.781   0.075  0.4179 -0.3554 -0.0654
11166TIP3    H154913   0.488   3.778   0.171  0.6444  2.2035  0.0913
11166TIP3    H254914   0.397   3.751   0.052  0.0362 -0.1043  1.0204
11167TIP3   OH254915   5.446   5.487   1.220  0.0621  0.2293  0.0797
11167TIP3    H154916   5.383   5.499   1.291  1.6373  0.8432  1.4547
11167TIP3    H254917   5.473   5.395   1.227 -0.5185  0.0167 -0.3915
11168TIP3   OH254918   1.257   3.075  13.987 -0.2404 -0.2962 -0.3015
11168TIP3    H154919   1.183   3.026  13.952 -1.6274  0.5052  1.3311
11168TIP3    H254920   1.251   3.161  13.947 -1.3024  0.3344  1.1036
11169TIP3   OH254921   1.532   3.902  12.641 -0.4728 -0.3778  0.4394
11169TIP3    H154922   1.586   3.852  12.702 -2.1373 -2.7033  0.1347
11169TIP3    H254923   1.489   3.968  12.696  1.9517  1.0281  0.8046
11170TIP3   OH254924   1.809   5.364   0.861 -0.2615  0.0064 -0.1880
11170TIP3    H154925   1.847   5.311   0.791 -0.5879  0.2234 -0.5339
11170TIP3    H254926   1.755   5.303   0.911  0.4190 -0.2729  0.2223
11171TIP3   OH254927   3.291   3.992  11.596  0.0431  0.2498 -0.1527
11171TIP3    H154928   3.261   4.037  11.674  2.0509  0.3756  0.5988
11171TIP3    H254929   3.333   3.912  11.629 -0.5102 -0.5211 -1.2312
11172TIP3   OH254930   2.897   5.196   6.720  0.1257  0.1223 -0.2413
11172TIP3    H154931   2.896   5.287   6.693 -0.4542 -0.3599 -1.9251
11172TIP3    H254932   2.964   5.155   6.665 -0.9038 -0.8419 -0.8128
11173TIP3   OH254933   1.037   5.946  15.507  0.2228  0.4501  0.2735
11173TIP3    H154934   1.093   5.937  15.583  0.6112  1.1437  0.0737
11173TIP3    H254935   1.089   5.911  15.434 -0.6199 -1.4038  0.5081
11174TIP3   OH254936   0.683   2.555  14.682 -0.2774 -0.2739 -0.8389
11174TIP3    H154937   0.610   2.570  14.742 -1.1451  0.3093 -2.0145
11174TIP3    H254938   0.721   2.641  14.668  0.6429 -0.5665 -0.2636
11175TIP3   OH254939   0.599   5.842   0.881  0.0182 -0.2618 -0.1645
11175TIP3    H154940   0.600   5.756   0.923  0.4202 -0.0180  0.3383
11175TIP3    H254941   0.591   5.904   0.953 -1.8752  0.0812 -0.6103
11176TIP3   OH254942   1.050   1.357   2.579 -0.7728  0.3255  0.7979
11176TIP3    H154943   0.998   1.278   2.594 -0.4638 -0.1645 -0.5963
11176TIP3    H254944   0.985   1.423   2.553 -0.7064 -0.5134 -1.8146
11177TIP3   OH254945   3.546   2.775   6.010 -0.3739  0.0828  0.6468
11177TIP3    H154946   3.609   2.784   6.082 -2.1177 -1.4052  2.4795
11177TIP3    H254947   3.583   2.706   5.955  0.4592  0.4829  0.6840
11178TIP3   OH254948   6.218   3.995   1.777  0.0309 -1.0191  0.0007
11178TIP3    H154949   6.181   4.071   1.732  0.0996 -0.6148  0.6133
11178TIP3    H254950   6.190   3.920   1.725 -2.1764 -0.7945  0.7308
11179TIP3   OH254951   5.782   2.000   0.191 -0.0764 -0.4567  0.1797
11179TIP3    H154952   5.789   1.952   0.274  0.9723 -0.0568  0.3330
11179TIP3    H254953   5.735   2.081   0.214  1.8695  0.5475  0.8021
11180TIP3   OH254954   1.759   0.751  12.058  0.1927 -0.0778  0.5601
11180TIP3    H154955   1.809   0.682  12.101  1.1938  1.3174  1.7249
11180TIP3    H254956   1.671   0.745  12.097  0.4269 -0.3530  1.0529
11181TIP3   OH254957   3.554   6.074  16.288  0.4133  0.1039 -0.2873
11181TIP3    H154958   3.592   6.141  16.231  0.2795  0.1915 -0.2731
11181TIP3    H254959   3.615   6.001  16.282  0.4461  0.1448 -0.4782
11182TIP3   OH254960   5.623   6.135   4.553 -0.0645  0.6196 -0.4813
11182TIP3    H154961   5.546   6.169   4.507  0.4810  0.2868 -1.6995
11182TIP3    H254962   5.693   6.197   4.531 -0.4361  2.3573  2.6324
11183TIP3   OH254963   2.566   0.882   1.464  0.2593 -0.2873  0.5724
11183TIP3    H154964   2.632   0.830   1.418 -0.0374 -0.7472  0.6630
11183TIP3    H254965   2.487   0.872   1.411 -0.2997 -1.4820  1.6087
11184TIP3   OH254966   6.176   5.803  14.196 -0.0614  0.1563  0.3667
11184TIP3    H154967   6.203   5.845  14.114 -0.1613 -0.1194  0.1923
11184TIP3    H254968   6.217   5.717  14.194  1.4285  0.8012  1.4418
11185TIP3   OH254969   4.309   0.623   3.705 -0.0112  0.1617 -0.7759
11185TIP3    H154970   4.381   0.646   3.646 -0.1453  1.4065 -0.4894
11185TIP3    H254971   4.293   0.703   3.755 -0.6074 -0.5547  0.2050
11186TIP3   OH254972   4.824   6.206  11.717 -0.3119  1.0235  0.4941
11186TIP3    H154973   4.888   6.135  11.724 -0.8630  0.1596 -2.0920
11186TIP3    H254974   4.750   6.178  11.771 -0.6750 -0.6126 -0.7716
11187TIP3   OH254975   6.547   5.461  13.686  0.2462 -0.6918  0.1713
11187TIP3    H154976   6.621   5.411  13.653  1.0020  0.1517  0.5527
11187TIP3    H254977   6.488   5.470  13.611  0.0508 -2.1872  0.1118
11188TIP3   OH254978   4.177   3.547  14.364  0.1457 -0.4095 -0.0237
11188TIP3    H154979   4.226   3.485  14.311 -2.2883 -1.3923 -1.3226
11188TIP3    H254980   4.111   3.493  14.409  2.2181  0.3164  4.4287
11189TIP3   OH254981   6.452   2.988  12.769  0.4555  0.3107 -0.6973
11189TIP3    H154982   6.449   3.082  12.748 -1.3071  0.6946  1.0214
11189TIP3    H254983   6.467   2.946  12.685 -1.2412  2.0196 -1.9518
11190TIP3   OH254984   6.140   0.383  12.902 -0.2701  0.0155  0.3500
11190TIP3    H154985   6.143   0.287  12.909 -1.8010 -0.0994 -0.2199
11190TIP3    H254986   6.232   0.410  12.904  0.2449 -1.5480 -0.5811
11191TIP3   OH254987   0.348   2.274   5.222  0.2320  0.3991 -0.0211
11191TIP3    H154988   0.330   2.303   5.312  0.9478  0.6361  0.0499
11191TIP3    H254989   0.441   2.250   5.223  0.0235 -0.4904 -0.4583
11192TIP3   OH254990   5.458   1.884  13.709  0.2284  0.0564  0.2790
11192TIP3    H154991   5.437   1.825  13.636 -1.0008 -0.2448  0.8569
11192TIP3    H254992   5.552   1.901  13.699  0.4084 -1.2210 -0.4646
11193TIP3   OH254993   4.690   6.339  16.184  0.4300 -0.0023  0.1554
11193TIP3    H154994   4.734   6.323  16.101  0.7680  0.2162  0.2912
11193TIP3    H254995   4.606   6.294  16.176  1.3705 -1.9465  0.5551
11194TIP3   OH254996   1.277   1.615   3.049  0.2435  0.2151  0.4630
11194TIP3    H154997   1.368   1.612   3.020  0.3001  0.0897  0.6518
11194TIP3    H254998   1.227   1.586   2.974  0.1736  2.4987 -0.4523
11195TIP3   OH254999   1.137   0.923  15.904 -0.1295  0.4887 -0.2364
11195TIP3    H155000   1.087   1.003  15.916 -0.1775  0.5139 -0.5942
11195TIP3    H255001   1.184   0.911  15.987 -1.0878  0.2037  0.2786
11196TIP3   OH255002   6.698   2.971  11.170  0.3319  0.0837  0.0313
11196TIP3    H155003   6.644   2.955  11.248  0.5979 -0.2771  0.1443
11196TIP3    H255004   6.636   2.969  11.097 -0.4207  3.1380  0.4185
11197TIP3   OH255005   5.275   3.640   4.394  0.0104  0.8274  0.1197
11197TIP3    H155006   5.304   3.609   4.480  0.4312  1.6900  0.3025
11197TIP3    H255007   5.212   3.575   4.365  0.4692  0.0966  0.7232
11198TIP3   OH255008   0.106   2.630  14.774 -0.6259  0.3990 -0.3027
11198TIP3    H155009   0.030   2.660  14.823 -0.3836 -0.0863  0.3818
11198TIP3    H255010   0.145   2.562  14.829  0.9078  1.3757 -0.1309
11199TIP3   OH255011   3.485   1.274  14.279  0.1920  0.0042  0.3363
11199TIP3    H155012   3.562   1.311  14.322 -0.6952  1.8948  0.3928
11199TIP3    H255013   3.471   1.329  14.202 -0.4964 -0.9514 -0.2425
11200TIP3   OH255014   5.805   1.721  13.099  0.4493 -0.4098  0.0325
11200TIP3    H155015   5.765   1.787  13.155 -1.6743  0.0521 -1.8887
11200TIP3    H255016   5.869   1.769  13.046 -0.0326 -0.1615 -0.3310
11201TIP3   OH255017   3.290   6.092   1.000  0.2479  0.3761  0.3106
11201TIP3    H155018   3.332   6.062   0.920  1.5079  1.2492  0.6247
11201TIP3    H255019   3.320   6.031   1.067 -0.2991  0.0275  0.2443
11202TIP3   OH255020   2.364   2.164   2.951 -0.4412  0.2534  0.4380
11202TIP3    H155021   2.400   2.210   2.876  0.9343  0.7772  1.3733
11202TIP3    H255022   2.361   2.072   2.924  1.4398  0.2240  0.2399
11203TIP3   OH255023   0.588   5.880   4.071  0.2305  0.4930 -0.5371
11203TIP3    H155024   0.501   5.920   4.066  0.2443  0.9691  1.9192
11203TIP3    H255025   0.636   5.917   3.997 -1.3768  0.9023 -1.4079
11204TIP3   OH255026   3.019   0.340   5.753  0.3893 -0.1537 -0.0762
11204TIP3    H155027   3.105   0.346   5.712  0.6300 -0.8369  0.3076
11204TIP3    H255028   2.965   0.293   5.690  0.7629 -1.2177  0.3774
11205TIP3   OH255029   5.622   5.394   5.157  0.1551 -0.5392  0.0456
11205TIP3    H155030   5.656   5.466   5.104 -0.6822  0.5580  0.9346
11205TIP3    H255031   5.648   5.416   5.247  0.4911 -1.7201  0.2543
11206TIP3   OH255032   4.956   6.775  11.768 -0.4941 -0.8326 -0.4235
11206TIP3    H155033   5.026   6.733  11.720  1.3970  0.2708  1.2091
11206TIP3    H255034   4.922   6.708  11.826  0.7045 -0.8405  0.2937
11207TIP3   OH255035   6.369   2.190  15.701  0.1258 -0.2476  0.3050
11207TIP3    H155036   6.406   2.103  15.718 -1.0084 -0.7080  0.5218
11207TIP3    H255037   6.379   2.236  15.785  2.4407  0.5240 -0.3266
11208TIP3   OH255038   1.886   4.797   5.198 -0.3151  0.3818 -0.4691
11208TIP3    H155039   1.844   4.781   5.114 -1.7901 -2.1037  0.6604
11208TIP3    H255040   1.976   4.767   5.185 -0.5595 -0.0950 -1.1135
11209TIP3   OH255041   6.443   3.715   6.267 -0.5750 -0.6991  0.5744
11209TIP3    H155042   6.508   3.696   6.200 -1.3116 -4.5704  0.7581
11209TIP3    H255043   6.484   3.688   6.349 -1.0002  0.6307  1.2656
11210TIP3   OH255044   3.534   5.039   2.595 -0.3215 -1.0879 -0.0302
11210TIP3    H155045   3.602   4.985   2.635 -0.0217 -1.0810 -0.5172
11210TIP3    H255046   3.525   5.114   2.654  1.7222  0.0664 -1.0923
11211TIP3   OH255047   1.277   1.959  15.927 -0.1911 -0.4917  0.5600
11211TIP3    H155048   1.324   2.021  15.983  0.4102 -0.2216 -0.2168
11211TIP3    H255049   1.277   1.877  15.976 -0.6593  0.0214  1.4364
11212TIP3   OH255050   0.763   4.373  14.416 -0.2398  0.9760  0.1833
11212TIP3    H155051   0.744   4.327  14.498 -1.4089  0.5405 -0.3065
11212TIP3    H255052   0.834   4.323  14.376 -1.1268 -0.1116 -0.0798
11213TIP3   OH255053   4.030   5.851  16.679 -0.1078  0.0290  0.1257
11213TIP3    H155054   3.959   5.824  16.737 -1.5272  1.0343 -1.0636
11213TIP3    H255055   4.077   5.918  16.728  0.0441 -0.6565  0.9354
11214TIP3   OH255056   1.873   1.970   1.049  0.7092  0.2540 -0.3176
11214TIP3    H155057   1.855   2.045   1.106  1.7993  0.5925 -0.3994
11214TIP3    H255058   1.790   1.953   1.004  0.0033  0.3819  0.8895
11215TIP3   OH255059   5.655   0.894   2.852 -0.3429  0.0733  0.3657
11215TIP3    H155060   5.626   0.803   2.856  0.5199 -0.3351 -1.5786
11215TIP3    H255061   5.631   0.930   2.938 -2.0219 -1.5554  0.6622
11216TIP3   OH255062   1.022   1.470   4.383 -0.2615  0.0387  0.1892
11216TIP3    H155063   1.093   1.481   4.320  0.3402  1.2184  1.0293
11216TIP3    H255064   0.945   1.503   4.338  0.0810  0.4579 -0.0969
11217TIP3   OH255065   6.033   2.823   3.332 -0.2243 -0.2502  0.3427
11217TIP3    H155066   6.079   2.740   3.320 -0.8810 -0.7270  1.0542
11217TIP3    H255067   5.963   2.821   3.267 -0.4886 -0.4356  0.6320
11218TIP3   OH255068   2.000   2.224  11.206  0.3989 -1.1614  1.6147
11218TIP3    H155069   2.000   2.167  11.282  1.8362  0.9829  3.3346
11218TIP3    H255070   1.908   2.241  11.189  0.0681 -1.2595  3.2072
11219TIP3   OH255071   0.137   0.936   2.862 -0.3951  0.5651  0.7565
11219TIP3    H155072   0.082   0.867   2.901 -0.1068 -2.1420 -3.1165
11219TIP3    H255073   0.226   0.900   2.865 -0.5018 -0.4454 -3.1928
11220TIP3   OH255074   2.771   6.665   2.693 -0.2049  0.1517 -0.2961
11220TIP3    H155075   2.728   6.594   2.646 -0.7259  0.6418 -0.5739
11220TIP3    H255076   2.864   6.648   2.681 -0.3226  0.1600 -1.3656
11221TIP3   OH255077   3.601   4.775  16.531 -0.2067 -0.2528 -0.9108
11221TIP3    H155078   3.552   4.709  16.481  3.7359 -2.0050 -2.9450
11221TIP3    H255079   3.669   4.726  16.576  0.5625  2.1124  0.7314
11222TIP3   OH255080   0.419   1.987   3.076 -0.0736 -0.6595 -0.0481
11222TIP3    H155081   0.345   2.037   3.110  0.9106  0.7886  0.0837
11222TIP3    H255082   0.396   1.967   2.986 -1.7075 -2.4908  0.7300
11223TIP3   OH255083   6.244   3.495   3.087  0.5011 -0.1637  0.2434
11223TIP3    H155084   6.166   3.523   3.040  0.8332  0.0022 -0.2223
11223TIP3    H255085   6.274   3.417   3.040  0.6137 -0.2313  0.4240
11224TIP3   OH255086   4.405   2.510   3.106 -0.0507  0.2334  0.0327
11224TIP3    H155087   4.457   2.448   3.055 -1.6281 -2.0730  1.0790
11224TIP3    H255088   4.370   2.459   3.179 -2.2081  2.1253  0.4529
11225TIP3   OH255089   6.315   5.700  15.814  0.1681 -0.1349 -0.1517
11225TIP3    H155090   6.358   5.731  15.735  0.2980  1.2468  0.4323
11225TIP3    H255091   6.315   5.605  15.806 -0.1457 -0.0101 -1.9676
11226TIP3   OH255092   1.497   6.364   3.388  0.3006 -0.4711  0.3054
11226TIP3    H155093   1.520   6.409   3.307  3.3695 -1.0918  0.6989
11226TIP3    H255094   1.469   6.433   3.447 -0.7863  0.1386 -0.8841
11227TIP3   OH255095   1.289   5.366   1.665 -0.3194 -0.0037  0.1336
11227TIP3    H155096   1.294   5.330   1.754  0.8131  1.8457  0.8951
11227TIP3    H255097   1.322   5.296   1.609  0.5351 -0.6480  1.3732
11228TIP3   OH255098   6.011   4.832  11.270  0.4110 -0.2575  0.2130
11228TIP3    H155099   5.940   4.881  11.230  0.7267 -0.0546 -0.1057
11228TIP3    H255100   6.024   4.756  11.213  0.0269 -0.6396  0.6201
11229TIP3   OH255101   2.736   1.748  14.301 -0.2046  0.0026 -0.4002
11229TIP3    H155102   2.737   1.772  14.393  1.1878 -0.2623 -0.3349
11229TIP3    H255103   2.655   1.699  14.290 -0.2201 -0.2476  0.7477
11230TIP3   OH255104   1.728   1.655  17.059  0.3436  0.3996 -0.6666
11230TIP3    H155105   1.763   1.741  17.083 -1.2906  0.4378  1.9222
11230TIP3    H255106   1.644   1.675  17.017  0.8931  0.0893 -1.9775
11231TIP3   OH255107   0.249   4.854  16.301  0.2667  0.1246  0.2916
11231TIP3    H155108   0.268   4.773  16.254  1.0199  0.4397  0.0339
11231TIP3    H255109   0.328   4.907  16.291  0.0531  0.6143  1.0502
11232TIP3   OH255110   0.438   3.224   6.663  0.2446  0.4924 -0.3710
11232TIP3    H155111   0.484   3.220   6.580  0.5404  0.1874 -0.1947
11232TIP3    H255112   0.503   3.255   6.726 -0.7717  3.8303 -0.8058
11233TIP3   OH255113   3.811   3.598   5.073 -0.0871 -0.2083  0.5154
11233TIP3    H155114   3.777   3.529   5.130  0.0376  0.4030  1.3356
11233TIP3    H255115   3.751   3.671   5.085 -0.9237 -0.5434 -1.2637
11234TIP3   OH255116   5.574   5.557   1.006  0.8840 -0.0303 -0.2673
11234TIP3    H155117   5.538   5.529   1.090 -0.6151  1.3784 -0.3850
11234TIP3    H255118   5.657   5.599   1.029  0.2804  0.7420  0.5969
11235TIP3   OH255119   2.797   1.576  15.468  0.3672 -0.4622 -0.0535
11235TIP3    H155120   2.841   1.621  15.539 -0.0189 -0.2370  0.0458
11235TIP3    H255121   2.794   1.484  15.495  2.9156 -0.9593 -1.1147
11236TIP3   OH255122   3.067   2.223  16.002  0.0049  0.3024  0.0827
11236TIP3    H155123   3.087   2.303  15.953 -1.1369  0.3124 -0.3955
11236TIP3    H255124   3.087   2.152  15.942  0.3310  0.2474  0.2530
11237TIP3   OH255125   2.153   4.167  12.276  0.0583  0.8299 -0.3899
11237TIP3    H155126   2.111   4.130  12.354 -0.3348  1.6997 -0.1797
11237TIP3    H255127   2.247   4.153  12.290 -0.1275 -2.5380 -1.5665
11238TIP3   OH255128   2.344   1.128  14.324 -0.0843  0.0539  0.3020
11238TIP3    H155129   2.350   1.035  14.301 -1.6435 -0.2039  0.7604
11238TIP3    H255130   2.363   1.130  14.418  0.8286  0.3388  0.1211
11239TIP3   OH255131   5.516   5.332  11.984  0.0879  0.4087 -0.0323
11239TIP3    H155132   5.485   5.306  12.071  0.5193  1.9983  0.6320
11239TIP3    H255133   5.597   5.284  11.972  0.2877  0.5549  0.6694
11240TIP3   OH255134   5.794   4.171  15.468  0.5714 -0.5246 -0.3636
11240TIP3    H155135   5.745   4.252  15.452 -0.4241 -0.9460  0.3927
11240TIP3    H255136   5.736   4.120  15.525  1.7703 -1.1928  0.2834
11241TIP3   OH255137   1.233   2.153   1.564 -0.2559  0.0979 -0.7569
11241TIP3    H155138   1.280   2.230   1.595  1.8455  0.2149 -3.7823
11241TIP3    H255139   1.261   2.082   1.621 -1.9440  1.3684  1.8407
11242TIP3   OH255140   1.819   1.333   3.490  0.0102 -0.1764 -0.5153
11242TIP3    H155141   1.864   1.376   3.418  1.1398 -1.5987 -0.7148
11242TIP3    H255142   1.833   1.391   3.566  1.9230 -0.3928 -0.6506
11243TIP3   OH255143   0.361   6.672   5.369 -0.0502 -0.0588  0.3294
11243TIP3    H155144   0.269   6.645   5.372  0.3437 -1.4452  1.3266
11243TIP3    H255145   0.394   6.635   5.287 -0.5211  0.9902 -0.3477
11244TIP3   OH255146   3.807   5.419  12.318  0.1635 -0.2729  0.5579
11244TIP3    H155147   3.824   5.420  12.224 -1.0675 -0.3276  0.3235
11244TIP3    H255148   3.888   5.455  12.357  0.2261  0.9241 -0.5919
11245TIP3   OH255149   5.605   6.118  16.150 -0.3641 -0.4350  0.0088
11245TIP3    H155150   5.566   6.156  16.229 -0.7335 -0.8602  0.0310
11245TIP3    H255151   5.531   6.091  16.097 -0.1457  0.6623 -0.8997
11246TIP3   OH255152   1.498   0.691   5.855  0.4034  0.5436  0.1999
11246TIP3    H155153   1.458   0.619   5.904  0.4021 -0.3717 -1.1026
11246TIP3    H255154   1.492   0.766   5.914 -1.5159 -0.0030  0.7848
11247TIP3   OH255155   1.656   4.143  16.240 -0.8022  0.0958  0.5632
11247TIP3    H155156   1.682   4.224  16.284 -0.2600  0.0516  0.3344
11247TIP3    H255157   1.730   4.084  16.254 -0.0048  0.5187 -1.5400
11248TIP3   OH255158   0.417   1.587   6.159 -0.6795 -0.1488 -0.0272
11248TIP3    H155159   0.508   1.587   6.132  0.4048  0.9838  3.1594
11248TIP3    H255160   0.404   1.501   6.199 -0.8518 -0.0997  0.0243
11249TIP3   OH255161   0.858   1.055   5.137 -0.6685  0.4260 -0.3730
11249TIP3    H155162   0.807   1.068   5.217 -1.2813  1.5261 -0.9137
11249TIP3    H255163   0.946   1.084   5.161 -0.8438  0.7370 -0.0817
11250TIP3   OH255164   6.088   1.258  15.677  0.5103 -0.0177 -0.2538
11250TIP3    H155165   6.151   1.232  15.743  1.5169 -0.2227 -1.2708
11250TIP3    H255166   6.014   1.199  15.689 -0.7562  1.9434  2.7237
11251TIP3   OH255167   3.230   1.759   2.837  0.3227  0.3589 -0.5067
11251TIP3    H155168   3.215   1.833   2.896 -2.5897 -1.7280  1.6709
11251TIP3    H255169   3.166   1.771   2.767 -0.9256 -0.5958  0.4392
11252TIP3   OH255170   3.220   3.681  14.663 -0.1667  0.4439  0.2814
11252TIP3    H155171   3.253   3.769  14.645  0.0099  0.7556  1.9264
11252TIP3    H255172   3.207   3.680  14.758  0.0942 -1.3937  0.3268
11253TIP3   OH255173   0.176   5.283  15.014 -0.1478 -0.1903 -0.3055
11253TIP3    H155174   0.238   5.215  15.039 -0.1844 -0.6093 -1.3281
11253TIP3    H255175   0.209   5.315  14.930 -1.0840 -0.1257 -0.6491
11254TIP3   OH255176   1.400   4.031  12.244  0.0087 -0.1519 -0.0970
11254TIP3    H155177   1.399   4.067  12.155  0.5464 -1.5832 -0.7022
11254TIP3    H255178   1.409   3.937  12.232 -0.8188 -0.4592  1.4663
11255TIP3   OH255179   6.105   3.980  16.691  0.7774  0.5637  0.3779
11255TIP3    H155180   6.189   3.982  16.736  1.1927 -1.2983 -0.2289
11255TIP3    H255181   6.118   4.033  16.612  2.3152 -1.8348 -1.1165
11256TIP3   OH255182   6.367   2.262   0.630 -0.0758  0.2974  0.3915
11256TIP3    H155183   6.338   2.180   0.590  0.8494 -0.9825  2.2031
11256TIP3    H255184   6.306   2.276   0.703 -0.3123  1.3211  0.0141
11257TIP3   OH255185   2.756   0.973   0.804 -0.0028 -0.2760 -0.0456
11257TIP3    H155186   2.704   0.911   0.855  0.9443 -0.1537  1.1094
11257TIP3    H255187   2.847   0.948   0.821  0.4269  1.6242  0.7372
11258TIP3   OH255188   3.174   0.351  12.215  0.5952 -0.1038  0.4146
11258TIP3    H155189   3.229   0.352  12.293  1.5258 -0.6073 -0.2117
11258TIP3    H255190   3.208   0.279  12.163  1.4630  1.5844 -1.4787
11259TIP3   OH255191   2.444   0.783   5.185 -0.0140 -0.2034  0.2760
11259TIP3    H155192   2.449   0.803   5.278 -2.0407 -1.5041  0.7194
11259TIP3    H255193   2.361   0.737   5.174 -0.0629  0.3248 -2.2658
11260TIP3   OH255194   0.063   5.744   4.436  1.1117  0.2772  0.7712
11260TIP3    H155195   0.120   5.810   4.396  0.4122  0.9910  0.9388
11260TIP3    H255196   0.015   5.707   4.362  3.4579 -2.0787  0.2437
11261TIP3   OH255197   0.339   2.461  16.433  0.0090 -0.0580  0.1170
11261TIP3    H155198   0.268   2.428  16.488  0.9021 -0.1998  1.2374
11261TIP3    H255199   0.413   2.403  16.452  0.8954  1.0668  0.2443
11262TIP3   OH255200   2.492   5.377  16.729 -0.5492 -0.2187 -0.4799
11262TIP3    H155201   2.497   5.289  16.767  0.7262 -0.7843 -1.8682
11262TIP3    H255202   2.398   5.395  16.725 -0.8951 -1.9320 -1.0382
11263TIP3   OH255203   5.444   6.360   0.907 -0.2505  0.2729  0.1475
11263TIP3    H155204   5.471   6.414   0.981  2.1264 -0.9774  0.3067
11263TIP3    H255205   5.474   6.272   0.929 -3.3798 -1.0485 -0.4113
11264TIP3   OH255206   0.960   2.934  13.763 -0.7323 -0.3334  0.0804
11264TIP3    H155207   0.952   2.848  13.723  1.6626 -0.6468  0.1436
11264TIP3    H255208   0.909   2.928  13.844 -0.6090 -1.6775  0.0726
11265TIP3   OH255209   3.800   2.484   2.166 -0.6912 -0.4250 -0.5096
11265TIP3    H155210   3.860   2.420   2.128  0.2392 -1.0139  1.7346
11265TIP3    H255211   3.722   2.433   2.188 -1.0501 -0.1810 -1.1883
11266TIP3   OH255212   5.310   6.605  16.111 -0.5429 -0.6211 -0.4180
11266TIP3    H155213   5.366   6.591  16.187 -2.1275 -2.0962  0.5317
11266TIP3    H255214   5.325   6.697  16.087  0.5644 -0.3486  1.1690
11267TIP3   OH255215   1.954   4.558   3.319 -0.5607  0.2068  0.1776
11267TIP3    H155216   2.023   4.507   3.363  1.6041  3.1303  0.4646
11267TIP3    H255217   1.887   4.571   3.386 -0.0492 -0.3023  0.8021
11268TIP3   OH255218   3.390   1.015  11.829  0.0374 -0.2814 -0.1022
11268TIP3    H155219   3.313   1.058  11.865  0.6680  0.6570  0.1644
11268TIP3    H255220   3.356   0.957  11.761 -0.9930 -0.6466  0.6906
11269TIP3   OH255221   3.783   4.012  14.672 -0.4819 -0.0054  0.1993
11269TIP3    H155222   3.764   4.069  14.597 -1.1060 -0.7991 -0.2598
11269TIP3    H255223   3.822   3.934  14.633 -0.4799 -0.2730  0.7390
11270TIP3   OH255224   1.723   1.089   5.128  0.5021  0.2377 -0.2404
11270TIP3    H155225   1.794   1.092   5.192  0.8893  0.9054 -0.6855
11270TIP3    H255226   1.714   1.180   5.099 -2.2838  0.7273  1.6849
11271TIP3   OH255227   0.938   5.359  13.555 -0.3391 -0.3990 -0.1427
11271TIP3    H155228   0.916   5.380  13.464 -1.4378  0.1796  0.2459
11271TIP3    H255229   0.963   5.443  13.594 -4.4014  0.3668  1.3165
11272TIP3   OH255230   6.078   6.064  16.405  0.6042 -0.1330 -0.2419
11272TIP3    H155231   6.033   6.071  16.320 -0.4605  1.6089  0.4044
11272TIP3    H255232   6.044   5.984  16.444  1.0597 -0.9218 -1.4221
11273TIP3   OH255233   4.767   0.226   6.261  0.6361  0.3343  0.1331
11273TIP3    H155234   4.830   0.168   6.306  2.1290  0.1300 -2.0781
11273TIP3    H255235   4.820   0.300   6.231 -0.9336  2.0554  1.4045
11274TIP3   OH255236   0.312   5.935   0.188  0.5223 -0.2116 -0.1012
11274TIP3    H155237   0.227   5.960   0.224  0.6045  0.7497 -0.5511
11274TIP3    H255238   0.321   5.986   0.108  0.9900 -1.2313 -0.7195
11275TIP3   OH255239   1.576   4.757   3.399 -1.1050 -0.2384  0.0357
11275TIP3    H155240   1.541   4.845   3.385 -1.8130 -0.4884  0.1695
11275TIP3    H255241   1.669   4.770   3.414 -1.2614  0.5273  0.3954
11276TIP3   OH255242   3.506   4.966   4.967  0.2388  0.3583  0.4052
11276TIP3    H155243   3.556   4.908   4.909 -2.4376 -0.9396 -0.8270
11276TIP3    H255244   3.438   5.002   4.910 -0.2327  2.0316  1.9640
11277TIP3   OH255245   1.775   5.294  17.123 -0.2265  0.5268  0.2077
11277TIP3    H155246   1.718   5.297  17.046  0.7169  1.7622 -0.4835
11277TIP3    H255247   1.822   5.377  17.121  0.7471  0.0381  1.4229
11278TIP3   OH255248   0.844   2.420  15.846  0.2139  0.4617  0.2057
11278TIP3    H155249   0.759   2.432  15.888 -0.1963  0.2233 -0.5284
11278TIP3    H255250   0.849   2.326  15.829  1.7101  0.0507  2.4387
11279TIP3   OH255251   6.444   6.318  10.807 -0.3204  0.2875 -0.2444
11279TIP3    H155252   6.365   6.307  10.753 -0.6755 -1.1495  0.5189
11279TIP3    H255253   6.421   6.389  10.867 -0.4637  0.8926 -0.9845
11280TIP3   OH255254   5.403   6.583  13.060  0.0415 -0.4147 -0.2250
11280TIP3    H155255   5.453   6.530  13.123  0.9485  0.2337 -0.3808
11280TIP3    H255256   5.413   6.536  12.977 -0.2710 -0.7005 -0.1065
11281TIP3   OH255257   1.484   4.963   0.324  0.1018  0.0669  0.2557
11281TIP3    H155258   1.557   4.997   0.271 -0.1241  1.4065  0.7743
11281TIP3    H255259   1.513   4.876   0.350  1.2097  0.2877 -0.1546
11282TIP3   OH255260   6.243   2.276  12.995  0.3643 -0.0443  0.1090
11282TIP3    H155261   6.172   2.247  13.052  0.4534 -0.0343  0.2252
11282TIP3    H255262   6.267   2.198  12.944 -0.8021  0.3443 -1.0718
11283TIP3   OH255263   5.319   4.055  12.581  0.0396 -0.2215  0.1635
11283TIP3    H155264   5.301   4.049  12.675  0.7962 -0.5197  0.2974
11283TIP3    H255265   5.233   4.044  12.540 -0.5412  1.3932  0.8526
11284TIP3   OH255266   0.723   0.078   4.322 -0.4852 -0.6097 -0.4146
11284TIP3    H155267   0.672   0.042   4.394  0.6811  1.0454  1.3657
11284TIP3    H255268   0.675   0.156   4.295  0.7260  0.6561  0.9119
11285TIP3   OH255269   5.027   2.153  10.860  0.7399  0.4283 -0.5419
11285TIP3    H155270   5.026   2.229  10.801  0.5080  0.9330  0.1020
11285TIP3    H255271   5.120   2.136  10.874  0.8316  1.7351  0.7225
11286TIP3   OH255272   0.159   5.667  12.113 -0.3852  0.0501 -0.1551
11286TIP3    H155273   0.147   5.640  12.204  0.6123  0.8310  0.2273
11286TIP3    H255274   0.207   5.596  12.072 -0.8189 -0.2946 -0.0699
11287TIP3   OH255275   2.604   0.940   2.372 -0.2418 -0.1148  0.1313
11287TIP3    H155276   2.630   0.889   2.448 -1.6852  0.5998  1.1311
11287TIP3    H255277   2.625   1.030   2.395 -1.1248  0.1604 -0.1154
11288TIP3   OH255278   6.691   1.754   1.623  0.2458 -0.4638 -0.1190
11288TIP3    H155279   6.698   1.675   1.677  1.1098  0.5776  1.3554
11288TIP3    H255280   6.612   1.798   1.656  1.4799  0.8261  1.2871
11289TIP3   OH255281   6.295   0.720  11.508 -0.2051  0.3522 -0.5095
11289TIP3    H155282   6.224   0.701  11.447 -0.3262 -0.4561 -0.1208
11289TIP3    H255283   6.373   0.685  11.465 -0.5153 -1.6517  0.4796
11290TIP3   OH255284   1.006   4.619   6.441  0.0883  0.9192 -0.4280
11290TIP3    H155285   0.916   4.625   6.407 -0.4586  1.1064  0.9840
11290TIP3    H255286   1.017   4.527   6.464 -0.8266  1.3491  2.0846
11291TIP3   OH255287   3.173   4.993   1.433  0.0365 -0.2875  0.2669
11291TIP3    H155288   3.265   4.972   1.418 -0.1554  0.1647 -1.8699
11291TIP3    H255289   3.176   5.075   1.483  0.8037 -0.1575  0.0291
11292TIP3   OH255290   4.757   0.780  16.054 -0.1573 -0.4026  0.4806
11292TIP3    H155291   4.849   0.797  16.074 -0.6619  1.4805  1.3510
11292TIP3    H255292   4.749   0.799  15.960  0.7482 -2.6540 -0.1266
11293TIP3   OH255293   4.858   5.956  14.512 -0.5572 -0.1030 -0.0995
11293TIP3    H155294   4.926   5.990  14.570 -2.2977  0.0932  1.9453
11293TIP3    H255295   4.873   6.000  14.428  0.0761  2.1895  1.1285
11294TIP3   OH255296   1.365   2.136   0.620  0.1030 -0.1738 -1.0433
11294TIP3    H155297   1.401   2.203   0.562 -0.5851  1.3939  0.2732
11294TIP3    H255298   1.360   2.178   0.706 -0.4170 -1.9018 -0.1783
11295TIP3   OH255299   1.139   2.147  11.200 -0.1835  0.1109  0.3829
11295TIP3    H155300   1.230   2.174  11.190 -0.3087  0.7551  0.9318
11295TIP3    H255301   1.098   2.168  11.116 -0.3128  1.8234  0.8343
11296TIP3   OH255302   6.677   1.094  11.460 -0.4506  0.2964 -0.1110
11296TIP3    H155303   6.688   1.063  11.550 -0.4572  0.8424  0.0773
11296TIP3    H255304   6.643   1.183  11.469  0.8559  0.8658 -0.6447
11297TIP3   OH255305   5.613   2.591  14.192  0.2304  0.2196  0.1254
11297TIP3    H155306   5.592   2.575  14.100  0.1350 -1.5930  0.4257
11297TIP3    H255307   5.592   2.683  14.206 -0.4915  0.3249 -1.4723
11298TIP3   OH255308   1.089   1.386  15.982 -0.0701 -0.2764  0.6468
11298TIP3    H155309   1.175   1.355  16.010  0.1299  1.9006  2.7526
11298TIP3    H255310   1.108   1.456  15.919 -0.2939  0.0640  0.9546
11299TIP3   OH255311   2.153   2.030  13.368  0.1075 -0.6450 -0.3691
11299TIP3    H155312   2.220   2.094  13.391 -1.6065  0.8482  0.8645
11299TIP3    H255313   2.183   1.990  13.287  1.7415  1.0070 -0.6300
11300TIP3   OH255314   3.204   5.723   4.148  0.4917  0.2015 -0.4813
11300TIP3    H155315   3.272   5.660   4.122  0.9613  1.3822 -2.2855
11300TIP3    H255316   3.141   5.720   4.076  0.7487  2.1135 -0.8123
11301TIP3   OH255317   2.091   1.244   0.326  0.0139 -0.6530  0.0413
11301TIP3    H155318   2.064   1.333   0.302  0.5027 -0.6404 -0.5111
11301TIP3    H255319   2.020   1.211   0.380 -0.9299 -0.4960 -1.0513
11302TIP3   OH255320   0.364   2.616   1.204  0.3988  0.3846  0.3494
11302TIP3    H155321   0.427   2.544   1.201  0.7662  0.6989  0.4676
11302TIP3    H255322   0.321   2.607   1.288 -0.2563 -0.2842 -0.0451
11303TIP3   OH255323   2.309   3.837   5.637 -0.5325 -0.4143  0.1745
11303TIP3    H155324   2.230   3.882   5.605 -1.5793 -2.3002 -0.0923
11303TIP3    H255325   2.380   3.871   5.583 -1.6354 -0.6022 -1.4685
11304TIP3   OH255326   4.557   4.630   3.064  0.0924 -0.2072  0.5583
11304TIP3    H155327   4.611   4.572   3.009  0.1730 -0.9566  1.3906
11304TIP3    H255328   4.621   4.677   3.118  0.0717  1.2633 -0.6489
11305TIP3   OH255329   6.604   2.857   1.283 -0.1004  0.7099 -0.0197
11305TIP3    H155330   6.567   2.875   1.369  1.4797 -0.9595  1.0726
11305TIP3    H255331   6.537   2.805   1.239 -1.4700  2.6360 -0.3766
11306TIP3   OH255332   2.711   3.912   1.047  0.1728  0.1661  0.1589
11306TIP3    H155333   2.739   3.938   1.135 -0.1011 -0.5989  0.4828
11306TIP3    H255334   2.717   3.817   1.047 -3.0809 -0.1609  0.5306
11307TIP3   OH255335   3.277   2.423  13.314 -0.2889 -0.4205  0.1540
11307TIP3    H155336   3.364   2.384  13.307  0.0712  0.1189  1.2821
11307TIP3    H255337   3.294   2.516  13.327 -1.1423  0.3507 -3.3149
11308TIP3   OH255338   6.019   2.985   0.829  0.0826  0.3365 -0.0484
11308TIP3    H155339   5.988   3.070   0.860 -1.2064  0.4326 -1.4968
11308TIP3    H255340   5.966   2.966   0.751  1.3727 -1.0953 -0.6472
11309TIP3   OH255341   2.724   6.813  14.303 -0.3373  0.1228 -0.7971
11309TIP3    H155342   2.688   6.901  14.312 -2.9368 -0.9811  0.9882
11309TIP3    H255343   2.696   6.785  14.216 -0.3509  0.7010 -0.9847
11310TIP3   OH255344   5.743   0.289  16.205  0.0134  0.4662  0.2431
11310TIP3    H155345   5.705   0.329  16.126  0.2292 -0.9755 -0.6248
11310TIP3    H255346   5.797   0.217  16.172  0.1974 -0.0993  1.7126
11311TIP3   OH255347   2.498   1.451  13.303 -0.1910  0.5086 -0.8374
11311TIP3    H155348   2.541   1.404  13.232  3.3507  0.0306  1.4280
11311TIP3    H255349   2.457   1.383  13.356  0.3476  0.5108 -0.4216
11312TIP3   OH255350   2.727   2.574   5.676 -0.3356  0.3293  0.4955
11312TIP3    H155351   2.760   2.617   5.755 -2.2736 -1.0829  2.1696
11312TIP3    H255352   2.634   2.594   5.674 -0.9273 -2.0721  0.2768
11313TIP3   OH255353   5.972   5.075  12.776 -0.1180 -0.5019 -0.3526
11313TIP3    H155354   5.940   5.080  12.686 -0.4236  0.0343 -0.2151
11313TIP3    H255355   6.068   5.077  12.768 -0.1503 -0.0070 -0.6381
11314TIP3   OH255356   4.383   6.537  10.837 -0.4529  1.0932  0.1539
11314TIP3    H155357   4.365   6.629  10.853 -0.9964  1.0639 -0.2524
11314TIP3    H255358   4.477   6.533  10.817 -0.3146  1.4750  0.7091
11315TIP3   OH255359   1.146   6.687  10.370  0.0744 -0.0032 -0.4104
11315TIP3    H155360   1.237   6.692  10.402  0.6954  0.7773 -2.1735
11315TIP3    H255361   1.093   6.714  10.445  1.5459  3.2183 -0.3504
11316TIP3   OH255362   0.787   2.627  11.150  0.1102  0.3700  0.1983
11316TIP3    H155363   0.703   2.658  11.116  0.8201  1.3356 -0.7228
11316TIP3    H255364   0.827   2.580  11.077  0.0283 -0.8320  0.8937
11317TIP3   OH255365   1.496   5.156   1.146  0.7475  0.2969  0.8263
11317TIP3    H155366   1.531   5.243   1.161  0.3331  0.4158  1.1156
11317TIP3    H255367   1.539   5.101   1.212 -1.4814  0.9223  2.9238
11318TIP3   OH255368   6.198   2.785   2.337 -0.3462 -0.0153 -0.2860
11318TIP3    H155369   6.172   2.850   2.272  0.3099 -0.6540 -1.2100
11318TIP3    H255370   6.176   2.825   2.421 -0.6246  1.0890 -0.8675
11319TIP3   OH255371   2.372   3.005   0.773 -0.7640  0.7146 -0.5531
11319TIP3    H155372   2.385   2.911   0.761 -0.9227  0.7839 -1.3541
11319TIP3    H255373   2.400   3.022   0.863  0.4509  0.1251 -0.7980
11320TIP3   OH255374   5.079   4.612  14.663  0.3101 -0.1893  0.6958
11320TIP3    H155375   5.132   4.628  14.584 -0.6533  0.4905  0.1708
11320TIP3    H255376   5.087   4.518  14.678  1.4178 -0.1513  0.4567
11321TIP3   OH255377   1.211   5.234   3.342 -0.5202  0.4539  0.3108
11321TIP3    H155378   1.219   5.140   3.329 -0.3979  0.3487  1.1145
11321TIP3    H255379   1.181   5.267   3.258 -0.0566 -0.2378 -0.1341
11322TIP3   OH255380   2.674   3.156  13.554  0.2042  0.4097  0.8654
11322TIP3    H155381   2.668   3.083  13.491 -0.6905 -0.4822  1.9332
11322TIP3    H255382   2.611   3.220  13.522  2.1458  1.5188 -1.0014
11323TIP3   OH255383   6.635   0.274   1.439 -0.2787 -0.0962  0.4336
11323TIP3    H155384   6.554   0.278   1.389  0.0868 -1.5639 -0.2999
11323TIP3    H255385   6.705   0.270   1.373  0.4098  1.0414  1.0521
11324TIP3   OH255386   3.605   3.261  12.363 -0.2321 -0.0850  0.0435
11324TIP3    H155387   3.589   3.180  12.315  1.9051 -0.6234  0.1150
11324TIP3    H255388   3.551   3.254  12.442 -1.6632 -0.4453 -0.9386
11325TIP3   OH255389   1.923   1.998  12.568  0.4092  0.4024 -0.9369
11325TIP3    H155390   1.914   2.064  12.499  0.9360 -0.0131 -1.4117
11325TIP3    H255391   1.997   1.945  12.541  0.6547  0.2558 -0.0202
11326TIP3   OH255392   0.223   4.038  11.293  0.0506 -0.4835 -0.6363
11326TIP3    H155393   0.299   3.990  11.262  0.3195  1.3574 -3.1305
11326TIP3    H255394   0.247   4.131  11.283 -0.4943  0.3745  3.7332
11327TIP3   OH255395   5.203   2.032   1.640  0.4161  0.0873 -0.3232
11327TIP3    H155396   5.163   1.979   1.571 -0.9663  2.0846 -1.1423
11327TIP3    H255397   5.196   1.977   1.719 -0.2461 -1.2387 -1.2581
11328TIP3   OH255398   5.933   2.278   1.266  0.0980 -0.1830 -0.3996
11328TIP3    H155399   5.846   2.306   1.237 -0.4991 -2.2178 -0.7556
11328TIP3    H255400   5.964   2.349   1.322 -1.8846  0.5020 -0.0850
11329TIP3   OH255401   5.433   3.066   1.035 -0.0692  0.5568  0.6397
11329TIP3    H155402   5.373   3.035   1.104 -0.1977  0.2933  0.4155
11329TIP3    H255403   5.375   3.092   0.964  0.0873 -0.0280  0.2861
11330TIP3   OH255404   0.187   0.542   3.914 -0.0141 -0.1331 -0.0995
11330TIP3    H155405   0.124   0.488   3.961  1.8665 -2.4800 -0.1094
11330TIP3    H255406   0.227   0.598   3.981 -1.5656  0.9044  0.0045
11331TIP3   OH255407   5.946   0.188  11.165  0.2879 -0.2536 -0.1078
11331TIP3    H155408   6.027   0.138  11.169  1.2748  1.3448  0.7082
11331TIP3    H255409   5.958   0.249  11.092  0.3572  0.8465  0.7989
11332TIP3   OH255410   2.682   0.356  10.951 -0.0144  0.1587  0.3787
11332TIP3    H155411   2.633   0.334  11.030  1.1897  1.8102  1.6701
11332TIP3    H255412   2.773   0.360  10.979  0.8546 -1.9328 -1.7549
11333TIP3   OH255413   0.960   0.030  12.259 -0.3517  0.0903 -0.1178
11333TIP3    H155414   0.868   0.012  12.244 -0.0848 -1.9741  0.4228
11333TIP3    H255415   0.975   0.116  12.218 -2.5969  0.7305  0.2772
11334TIP3   OH255416   2.308   1.564  14.702 -0.1664 -0.3699 -0.1198
11334TIP3    H155417   2.299   1.513  14.621 -1.7489  3.5339 -2.6745
11334TIP3    H255418   2.378   1.626  14.684 -0.6184  0.6636  1.4470
11335TIP3   OH255419   1.901   0.104  15.511 -0.1500  0.2083  0.1677
11335TIP3    H155420   1.847   0.175  15.476  0.0363  0.2998  0.0619
11335TIP3    H255421   1.873   0.026  15.463 -1.9773 -0.2742  1.8543
11336TIP3   OH255422   2.506   4.330   2.222  0.6606  0.5744  0.0886
11336TIP3    H155423   2.419   4.301   2.194  1.4449  0.2735 -2.2867
11336TIP3    H255424   2.551   4.250   2.250  0.3628  0.6560  0.8197
11337TIP3   OH255425   2.066   5.877  11.319 -0.2175  0.0148  0.0721
11337TIP3    H155426   2.050   5.967  11.293 -0.2293 -0.2486 -0.8696
11337TIP3    H255427   2.041   5.825  11.243  2.8661 -0.5828 -0.6647
11338TIP3   OH255428   6.460   5.777  15.373 -0.3851 -0.1423  0.5944
11338TIP3    H155429   6.374   5.738  15.357  0.7424 -1.7105 -2.5999
11338TIP3    H255430   6.452   5.818  15.459 -4.3221 -0.1085  0.4170
11339TIP3   OH255431   2.502   1.384  15.738 -0.4547  0.7107  0.3557
11339TIP3    H155432   2.583   1.405  15.785 -0.1935  0.5453 -0.0142
11339TIP3    H255433   2.491   1.457  15.676  0.5564 -0.2784 -1.0653
11340TIP3   OH255434   2.304   2.877  13.263  0.4265  0.0479 -0.0646
11340TIP3    H155435   2.358   2.929  13.204  0.5086 -0.8797 -0.8311
11340TIP3    H255436   2.230   2.934  13.284  2.0855  1.6871  1.7325
11341TIP3   OH255437   3.596   0.890  14.777 -0.4259  0.0776 -0.0261
11341TIP3    H155438   3.524   0.909  14.838  0.5736  1.9216  0.6603
11341TIP3    H255439   3.622   0.800  14.799 -0.2915  0.5720  2.1299
11342TIP3   OH255440   1.699   2.449   4.683  0.2182 -0.2836  0.3169
11342TIP3    H155441   1.632   2.382   4.699  0.0854 -0.3472 -0.4695
11342TIP3    H255442   1.775   2.399   4.653  1.1988 -0.3812  2.7508
11343TIP3   OH255443   0.169   1.305  15.637  0.0725  0.2571  0.1776
11343TIP3    H155444   0.169   1.400  15.647  0.0785  0.5278 -1.9044
11343TIP3    H255445   0.228   1.289  15.563 -1.1604 -1.2082 -0.5368
11344TIP3   OH255446   3.730   3.815   2.135  0.2368 -0.2699  0.0660
11344TIP3    H155447   3.825   3.813   2.123  0.3531 -0.1081  0.9093
11344TIP3    H255448   3.715   3.762   2.213 -0.4377 -0.8967 -0.4852
11345TIP3   OH255449   1.560   2.921   5.876 -0.0540  0.5116 -0.6464
11345TIP3    H155450   1.541   2.858   5.947  1.0324 -0.0516 -0.8309
11345TIP3    H255451   1.514   2.886   5.800  2.0470 -1.1874 -1.2519
11346TIP3   OH255452   5.787   5.406  12.366  0.4157  0.1298 -0.1738
11346TIP3    H155453   5.713   5.440  12.415  0.7772 -2.2578  2.2624
11346TIP3    H255454   5.861   5.461  12.394  0.1497  0.4426 -0.0754
11347TIP3   OH255455   3.108   5.935  15.812  0.0285 -0.1634 -0.2485
11347TIP3    H155456   3.115   5.962  15.903  0.5573  0.1295 -0.3740
11347TIP3    H255457   3.015   5.916  15.800 -0.0578 -0.1238  0.3274
11348TIP3   OH255458   3.803   3.102   2.062 -1.0090 -0.7444  0.7011
11348TIP3    H155459   3.751   3.063   2.133 -1.9737  0.3084  0.5905
11348TIP3    H255460   3.769   3.062   1.982 -1.3182 -0.4234  0.6702
11349TIP3   OH255461   1.003   0.166   2.960 -0.4576  0.0641 -0.7853
11349TIP3    H155462   1.014   0.185   3.053  2.3070  0.8023 -1.1794
11349TIP3    H255463   1.087   0.187   2.921 -1.0276 -1.7279 -3.2404
11350TIP3   OH255464   3.063   3.259   2.693 -0.4034  0.8086  0.2710
11350TIP3    H155465   3.047   3.298   2.779 -0.9549  1.3926 -0.0874
11350TIP3    H255466   3.158   3.246   2.690 -0.3000  1.4181  0.6952
11351TIP3   OH255467   1.358   6.319  16.517 -0.0967  0.2984 -0.3309
11351TIP3    H155468   1.356   6.317  16.613 -1.6482 -2.6173 -0.3191
11351TIP3    H255469   1.380   6.230  16.491 -4.4021 -0.3777 -2.5994
11352TIP3   OH255470   1.712   0.752  10.189  0.5557  0.6135  0.1429
11352TIP3    H155471   1.654   0.725  10.261 -0.0928  0.9752 -0.2267
11352TIP3    H255472   1.730   0.844  10.208  2.3674  0.0985  1.1424
11353TIP3   OH255473   4.657   6.525  10.823  0.0060 -0.4220 -0.0675
11353TIP3    H155474   4.723   6.560  10.883 -0.3643 -1.5539  1.0315
11353TIP3    H255475   4.708   6.478  10.757  0.3744  0.2424 -0.2699
11354TIP3   OH255476   5.359   1.502  16.701  0.3184  0.5668  0.2576
11354TIP3    H155477   5.435   1.546  16.738  1.8652 -0.7172 -1.2138
11354TIP3    H255478   5.332   1.558  16.628 -0.1611  1.0272  0.7856
11355TIP3   OH255479   1.061   2.559  13.185  0.4377 -0.1003 -0.1750
11355TIP3    H155480   1.136   2.513  13.147 -0.9081 -1.6796 -1.0462
11355TIP3    H255481   1.097   2.643  13.214  2.5715 -0.8781 -0.3684
11356TIP3   OH255482   2.176   1.941   6.496  0.3594 -0.1342 -0.3217
11356TIP3    H155483   2.166   1.921   6.403 -0.0167  0.8403 -0.5088
11356TIP3    H255484   2.096   1.907   6.537 -0.8546  1.8986 -0.8176
11357TIP3   OH255485   5.232   0.791  15.301 -0.4986  0.5102  0.2447
11357TIP3    H155486   5.240   0.756  15.212 -0.3117 -1.3262  0.9385
11357TIP3    H255487   5.243   0.715  15.358 -1.7900  1.4340  1.8271
11358TIP3   OH255488   4.422   2.445  10.503 -0.7159 -0.1891  0.2474
11358TIP3    H155489   4.364   2.378  10.539  0.5973 -1.4482  0.1356
11358TIP3    H255490   4.389   2.527  10.539  0.1608 -1.2620  3.9575
11359TIP3   OH255491   0.887   3.476  12.100  0.2991 -0.5076 -0.1748
11359TIP3    H155492   0.980   3.495  12.089  0.0035  2.1377  1.1748
11359TIP3    H255493   0.884   3.408  12.167  1.2499 -0.3726  0.0170
11360TIP3   OH255494   1.409   4.361  13.516  0.4841 -0.0065  0.4416
11360TIP3    H155495   1.433   4.453  13.506 -2.4335  0.8917  0.9370
11360TIP3    H255496   1.401   4.328  13.427  0.0289  0.6667  0.2248
11361TIP3   OH255497   4.484   2.460   4.248 -0.7014  0.0702  0.5154
11361TIP3    H155498   4.508   2.514   4.323 -0.4510 -0.6123  0.9238
11361TIP3    H255499   4.436   2.521   4.190  0.7356  1.0853  0.3375
11362TIP3   OH255500   6.535   1.678  16.228 -0.2025 -0.1664 -0.2203
11362TIP3    H155501   6.538   1.605  16.166 -0.4159  0.0686 -0.5130
11362TIP3    H255502   6.449   1.718  16.214 -0.6393 -0.6748  0.8945
11363TIP3   OH255503   1.876   4.794  12.969 -0.2030 -0.5722 -0.3501
11363TIP3    H155504   1.932   4.724  12.934  1.5633  0.2362  0.7071
11363TIP3    H255505   1.873   4.859  12.899  1.2168 -0.0939 -0.0055
11364TIP3   OH255506   4.138   3.783   4.458 -0.1753 -0.5852  0.7175
11364TIP3    H155507   4.137   3.866   4.507 -0.1584  1.4992 -2.5212
11364TIP3    H255508   4.211   3.734   4.497  0.0574  1.0356  2.5130
11365TIP3   OH255509   2.754   1.469  16.587 -0.3280  0.2368 -0.5173
11365TIP3    H155510   2.787   1.507  16.506 -1.0383  0.7524 -0.5668
11365TIP3    H255511   2.665   1.442  16.567 -0.0420 -0.9392 -0.3128
11366TIP3   OH255512   6.736   1.071   5.510  0.9697 -0.5585 -0.3369
11366TIP3    H155513   6.797   1.000   5.531  1.3781  0.2537  1.4563
11366TIP3    H255514   6.668   1.064   5.577  0.4069  0.0388 -0.8374
11367TIP3   OH255515   0.403   3.438   2.698 -0.1006  0.1802  0.1574
11367TIP3    H155516   0.340   3.409   2.633  0.7558  0.3804 -0.7768
11367TIP3    H255517   0.356   3.431   2.781 -0.9480 -0.8290 -0.3832
11368TIP3   OH255518   4.770   5.706   2.523 -0.1860  0.2863  0.1858
11368TIP3    H155519   4.862   5.709   2.548  0.0077  1.5161 -0.5782
11368TIP3    H255520   4.767   5.752   2.439 -0.9608 -2.7039 -1.5556
11369TIP3   OH255521   0.783   4.683  12.414 -0.1816  0.8070  0.3227
11369TIP3    H155522   0.761   4.725  12.331  1.9540  1.2764 -0.0700
11369TIP3    H255523   0.816   4.597  12.388 -2.7361 -0.4604  0.9907
11370TIP3   OH255524   5.128   0.331   3.405  0.0455  0.1203 -0.5645
11370TIP3    H155525   5.154   0.323   3.497  1.5442  0.1911 -0.9496
11370TIP3    H255526   5.097   0.421   3.396 -1.3077 -0.2531  0.1298
11371TIP3   OH255527   5.824   5.758  12.525  0.3399 -0.1541 -0.4297
11371TIP3    H155528   5.730   5.751  12.546  0.7003 -3.5579  0.6332
11371TIP3    H255529   5.827   5.757  12.430 -0.7182 -0.7443 -0.4755
11372TIP3   OH255530   1.108   3.321   1.581 -0.2147 -0.7246 -0.4266
11372TIP3    H155531   1.133   3.231   1.560 -0.3850 -0.8797  0.0237
11372TIP3    H255532   1.144   3.337   1.668  0.5745 -0.0494 -0.8581
11373TIP3   OH255533   2.066   5.835  12.448  0.4256 -0.6157  0.0718
11373TIP3    H155534   2.151   5.789  12.454  0.4129 -0.6657 -0.1182
11373TIP3    H255535   2.007   5.769  12.411  0.0518 -0.9128  1.1678
11374TIP3   OH255536   2.225   6.655   5.514 -0.0227 -0.2073  0.0611
11374TIP3    H155537   2.298   6.717   5.523 -0.1834  0.4104 -2.1945
11374TIP3    H255538   2.152   6.698   5.559  0.8915 -0.7359  2.1582
11375TIP3   OH255539   3.580   1.721   4.097 -0.4183  0.0171 -0.6627
11375TIP3    H155540   3.634   1.645   4.118  0.0750  0.6865  0.5704
11375TIP3    H255541   3.512   1.722   4.164 -0.4366  0.6442 -0.6863
11376TIP3   OH255542   2.593   4.890  13.063 -0.1807  0.1143 -0.1112
11376TIP3    H155543   2.611   4.980  13.088 -1.2018 -0.0082  1.1480
11376TIP3    H255544   2.541   4.855  13.135  1.6943 -2.0360  0.3201
11377TIP3   OH255545   0.415   3.783  12.409 -0.1655 -0.0091  0.4721
11377TIP3    H155546   0.394   3.692  12.431  0.8018  0.0046  1.5290
11377TIP3    H255547   0.348   3.834  12.455  0.2859 -0.1183  1.2757
11378TIP3   OH255548   6.199   5.224  15.735 -0.0432 -0.4452 -0.1577
11378TIP3    H155549   6.231   5.216  15.825 -1.2190 -0.7707  0.2480
11378TIP3    H255550   6.135   5.154  15.726 -1.5317  0.9101 -0.5283
11379TIP3   OH255551   0.194   1.006   3.552 -0.5751  0.0657 -1.0221
11379TIP3    H155552   0.260   1.071   3.531 -1.4630  1.1708 -0.5217
11379TIP3    H255553   0.195   0.999   3.647  0.5132 -1.7722 -1.1248
11380TIP3   OH255554   6.509   2.584   3.784  0.1851 -0.4634 -0.2866
11380TIP3    H155555   6.442   2.515   3.787 -0.7722 -0.0107 -4.4347
11380TIP3    H255556   6.459   2.665   3.775  1.3274  0.3482  0.4039
11381TIP3   OH255557   5.271   0.833   0.537  0.8323 -0.2593  0.0461
11381TIP3    H155558   5.301   0.811   0.624  0.9218 -1.7204 -0.3282
11381TIP3    H255559   5.349   0.860   0.489  0.8172  0.3149  0.3332
11382TIP3   OH255560   0.034   1.282  11.285  0.4847 -0.2705 -0.2074
11382TIP3    H155561   0.049   1.338  11.361 -2.0673 -0.1719  0.2933
11382TIP3    H255562  -0.026   1.215  11.316  1.1125 -1.5344 -1.6014
11383TIP3   OH255563   5.753   3.110  14.551  0.5375  0.3975 -0.3410
11383TIP3    H155564   5.662   3.127  14.526  0.1533  0.9387  1.2976
11383TIP3    H255565   5.780   3.037  14.495 -1.6847 -1.3724  0.6927
11384TIP3   OH255566   0.672   3.617  12.021 -0.5537 -0.0603 -0.1810
11384TIP3    H155567   0.732   3.565  12.074  0.2358 -0.4305 -1.4081
11384TIP3    H255568   0.661   3.566  11.940 -3.2799 -0.5007  0.3652
11385TIP3   OH255569   3.814   6.452  13.043 -0.2747 -0.5555  0.3143
11385TIP3    H155570   3.898   6.474  13.003 -0.5403 -1.6734 -0.9263
11385TIP3    H255571   3.837   6.403  13.122  0.2870 -1.9682 -0.6755
11386TIP3   OH255572   0.302   6.581  12.457 -0.4322  0.0196  0.3035
11386TIP3    H155573   0.301   6.489  12.483  0.6465  0.3531  1.6101
11386TIP3    H255574   0.300   6.629  12.539 -0.5111  1.1658 -0.3529
11387TIP3   OH255575   2.857   5.089  11.746 -0.4361 -0.1980 -0.0179
11387TIP3    H155576   2.830   5.004  11.712 -0.0602 -1.1487  1.9272
11387TIP3    H255577   2.784   5.118  11.801 -0.6513  0.8556 -0.8302
11388TIP3   OH255578   6.285   3.943   2.552  0.1342 -0.0538  0.1132
11388TIP3    H155579   6.336   3.889   2.493 -0.6127 -0.7789  0.1098
11388TIP3    H255580   6.254   4.016   2.498 -1.7020 -1.4193 -0.8119
11389TIP3   OH255581   3.656   1.111   4.701 -0.6910 -0.0947  0.2015
11389TIP3    H155582   3.636   1.149   4.787  0.6470  2.6941 -0.6141
11389TIP3    H255583   3.728   1.050   4.718  0.1443  1.0642  0.9993
11390TIP3   OH255584   1.323   4.315   4.910 -0.0622 -0.2320  0.2031
11390TIP3    H155585   1.403   4.267   4.928 -0.0595 -0.2773  0.0683
11390TIP3    H255586   1.273   4.258   4.851 -0.2794 -0.2905  0.4398
11391TIP3   OH255587   5.734   6.758   6.476  0.2980  0.1093 -0.7884
11391TIP3    H155588   5.724   6.789   6.386 -1.5861 -1.7270 -1.2897
11391TIP3    H255589   5.783   6.676   6.467  0.8607  0.3519 -0.0208
11392TIP3   OH255590   4.153   4.757  10.840 -0.1634 -0.0470  0.4148
11392TIP3    H155591   4.058   4.747  10.834 -0.0248 -0.9882 -0.4913
11392TIP3    H255592   4.185   4.667  10.847  0.7940  0.0702 -1.7027
11393TIP3   OH255593   4.407   2.014   4.922  0.2207 -0.0535 -0.2743
11393TIP3    H155594   4.340   2.082   4.934  1.9381  1.4205  1.5506
11393TIP3    H255595   4.490   2.061   4.924  1.5001 -2.1997  1.2005
11394TIP3   OH255596   2.743   3.532   5.871 -0.4237 -0.0888 -0.5537
11394TIP3    H155597   2.765   3.568   5.956 -2.4932  0.8154 -0.3507
11394TIP3    H255598   2.811   3.565   5.812  1.3829 -1.2274  0.7935
11395TIP3   OH255599   4.107   6.088   0.881 -0.1285  0.1747 -0.1279
11395TIP3    H155600   4.072   6.130   0.803 -0.5893  0.5032  0.2500
11395TIP3    H255601   4.166   6.153   0.919  1.3941 -0.5946 -1.0842
11396TIP3   OH255602   1.235   6.381  15.092 -0.1647  0.1957 -0.3355
11396TIP3    H155603   1.174   6.313  15.119  0.9730 -0.3450  1.0203
11396TIP3    H255604   1.209   6.459  15.141  0.6592 -0.2333  0.8050
11397TIP3   OH255605   0.191   2.677   2.206  0.4170 -0.1800  0.2971
11397TIP3    H155606   0.228   2.752   2.252 -1.5163  0.2586  1.2570
11397TIP3    H255607   0.148   2.625   2.274 -0.0986 -1.0299 -0.6408
11398TIP3   OH255608   2.071   3.949   6.029 -0.0320 -0.3374 -0.3024
11398TIP3    H155609   2.054   3.895   6.106 -2.2411  1.8723  0.8759
11398TIP3    H255610   2.013   3.914   5.962  0.7793 -1.3017 -0.5205
11399TIP3   OH255611   4.061   5.021   6.068 -0.1976 -0.3394 -0.0374
11399TIP3    H155612   4.059   5.054   5.978 -0.4605  0.0417  0.1008
11399TIP3    H255613   4.081   4.928   6.060  0.6110 -0.1357 -0.4402
11400TIP3   OH255614   2.343   4.417  11.844  0.1410 -0.1177  0.5248
11400TIP3    H155615   2.426   4.397  11.887  0.2307 -1.4404 -0.2147
11400TIP3    H255616   2.286   4.344  11.865 -0.9039  0.8296  1.1113
11401TIP3   OH255617   5.036   0.428  16.712  0.3576 -0.2290 -0.2403
11401TIP3    H155618   4.962   0.442  16.652  1.5186 -0.9015 -1.9151
11401TIP3    H255619   5.017   0.345  16.754  0.6555 -0.9685 -1.5109
11402TIP3   OH255620   2.554   2.946  14.497  0.5946  0.5056 -0.9094
11402TIP3    H155621   2.470   2.958  14.542  1.2693 -0.7496  0.7918
11402TIP3    H255622   2.530   2.933  14.405 -0.9919  1.1689 -0.6279
11403TIP3   OH255623   0.860   4.501   1.240  0.1240  0.2294 -0.1597
11403TIP3    H155624   0.800   4.438   1.200 -0.6936  0.0932  1.2207
11403TIP3    H255625   0.943   4.454   1.246 -0.8692 -1.4141  2.3571
11404TIP3   OH255626   3.269   0.596   5.487  0.2104  0.4402  0.0473
11404TIP3    H155627   3.356   0.631   5.470  0.9910 -1.4476 -0.1742
11404TIP3    H255628   3.237   0.647   5.561  2.2252  0.1008  1.2478
11405TIP3   OH255629   1.698   5.407  10.493  0.1914 -0.5810 -0.2020
11405TIP3    H155630   1.687   5.502  10.489  2.7753 -0.2196 -0.2446
11405TIP3    H255631   1.788   5.391  10.462 -0.0882 -3.0255  0.0062
11406TIP3   OH255632   1.120   0.421  14.095  0.0755  0.2337  0.1704
11406TIP3    H155633   1.063   0.351  14.127  0.4440  0.4713  1.4400
11406TIP3    H255634   1.067   0.470  14.033 -1.1404  0.4713  1.3552
11407TIP3   OH255635   0.313   2.272   2.327 -0.1809 -0.2669  0.0885
11407TIP3    H155636   0.265   2.275   2.409 -0.7595 -0.4757 -0.2398
11407TIP3    H255637   0.395   2.228   2.349 -1.3409 -2.5714  0.0723
11408TIP3   OH255638   2.651   4.809  13.705 -0.1190 -0.2504  0.0050
11408TIP3    H155639   2.568   4.776  13.673  1.1594 -0.8075 -3.0593
11408TIP3    H255640   2.699   4.732  13.734 -0.1449 -0.0873  0.4983
11409TIP3   OH255641   1.128   2.171   3.780 -0.4813  0.7357 -0.7876
11409TIP3    H155642   1.147   2.201   3.869  0.0084  0.4217 -0.7805
11409TIP3    H255643   1.157   2.243   3.724  0.5666  0.3516 -0.7646
11410TIP3   OH255644   5.868   2.701   4.843  0.2127 -0.3560 -0.1698
11410TIP3    H155645   5.838   2.610   4.849  0.2877 -0.3248  1.0861
11410TIP3    H255646   5.884   2.726   4.934 -1.5779  1.5041 -0.2850
11411TIP3   OH255647   3.782   4.573  16.480  0.1357 -0.3711  0.1181
11411TIP3    H155648   3.718   4.504  16.461 -0.8010  0.4003  0.3825
11411TIP3    H255649   3.865   4.537  16.451 -0.1539 -2.0472  1.2402
11412TIP3   OH255650   1.537   5.529  13.065 -0.6550  0.0019  0.7353
11412TIP3    H155651   1.543   5.585  13.142  0.8580  0.1322  0.5457
11412TIP3    H255652   1.510   5.444  13.099  1.4029 -0.3497  1.6582
11413TIP3   OH255653   0.175   1.026   4.407 -0.0503 -0.1237  0.3693
11413TIP3    H155654   0.200   0.994   4.494 -0.1008 -0.4869  0.2536
11413TIP3    H255655   0.080   1.037   4.412  0.1401  1.5548  0.9058
11414TIP3   OH255656   4.928   4.576  13.140 -0.0747  0.1572 -0.1163
11414TIP3    H155657   4.947   4.640  13.209 -1.9071 -0.5107  1.0626
11414TIP3    H255658   4.846   4.606  13.101  0.9575  0.5697 -2.1490
11415TIP3   OH255659   0.040   3.122  12.507  0.7883  0.4893  0.0398
11415TIP3    H155660   0.083   3.053  12.557 -4.3750 -2.0005  1.8383
11415TIP3    H255661   0.034   3.196  12.568 -0.6446 -0.5644  1.2768
11416TIP3   OH255662   3.289   5.728  13.378  0.3354 -0.2771  0.7253
11416TIP3    H155663   3.232   5.661  13.414 -0.0691  0.6401  1.8721
11416TIP3    H255664   3.327   5.771  13.455  1.6529 -0.0831  0.0043
11417TIP3   OH255665   2.993   4.913   4.159 -0.8380 -0.0116 -0.5166
11417TIP3    H155666   3.069   4.912   4.102 -0.9151  1.3490 -0.6817
11417TIP3    H255667   3.021   4.962   4.236 -1.1649 -0.5999 -0.0115
11418TIP3   OH255668   5.703   0.180   0.357  0.7308 -0.0636  0.4219
11418TIP3    H155669   5.695   0.252   0.294 -2.4625  0.1344  0.9160
11418TIP3    H255670   5.627   0.189   0.415  0.2844 -3.6926  0.6489
11419TIP3   OH255671   1.577   1.805   5.821  0.6804  0.1488 -0.0746
11419TIP3    H155672   1.610   1.891   5.795  0.0439  0.8090  1.1875
11419TIP3    H255673   1.641   1.773   5.885  0.9476 -0.3646 -0.5847
11420TIP3   OH255674   4.017   2.332   5.148  0.7544  0.0868  0.5109
11420TIP3    H155675   4.074   2.375   5.212  0.3321 -0.7199  1.4571
11420TIP3    H255676   4.075   2.311   5.075  1.4757  0.1096  1.0655
11421TIP3   OH255677   2.161   2.469  13.651 -0.3100 -0.2797 -0.0798
11421TIP3    H155678   2.202   2.402  13.704  0.2691 -1.4677 -1.9254
11421TIP3    H255679   2.215   2.547  13.664  1.2944 -1.2240 -0.7766
11422TIP3   OH255680   4.519   0.347   2.440  0.0301  0.4298  0.1049
11422TIP3    H155681   4.541   0.390   2.523 -0.8356 -1.5288  1.4431
11422TIP3    H255682   4.460   0.408   2.396 -1.0794  0.7038  1.8860
11423TIP3   OH255683   5.580   2.995  16.465 -0.8847  0.1887 -0.7451
11423TIP3    H155684   5.552   3.033  16.549 -2.6943  2.5393 -2.2923
11423TIP3    H255685   5.499   2.963  16.425  0.1636 -2.4097 -1.0049
11424TIP3   OH255686   4.559   0.832  13.139  0.4242  0.7013  0.0250
11424TIP3    H155687   4.501   0.778  13.087  0.6100  0.4832  0.0424
11424TIP3    H255688   4.607   0.770  13.194  0.6560  0.8799  0.0267
11425TIP3   OH255689   0.703   3.166  14.653  0.3102  0.1635 -0.2325
11425TIP3    H155690   0.615   3.194  14.676  0.5899  1.3056 -0.4984
11425TIP3    H255691   0.696   3.136  14.562 -0.0255 -0.8054  0.1077
11426TIP3   OH255692   0.243   1.410   1.869  0.5885  0.5251  0.1487
11426TIP3    H155693   0.181   1.354   1.916  0.4535  0.5872  0.0453
11426TIP3    H255694   0.213   1.409   1.779  0.3855  1.0354  0.2074
11427TIP3   OH255695   3.879   1.904  14.359  0.6010 -0.0670 -0.5709
11427TIP3    H155696   3.962   1.924  14.316  1.0477  0.3691  0.4621
11427TIP3    H255697   3.890   1.935  14.448  0.5967 -3.1390  0.6158
11428TIP3   OH255698   0.607   2.962   0.725 -0.2450  0.4629  0.0389
11428TIP3    H155699   0.629   2.953   0.632 -2.4405  0.4295 -0.5208
11428TIP3    H255700   0.611   3.056   0.742 -0.0611  0.4867 -0.1359
11429TIP3   OH255701   4.916   4.097  13.602  0.3482 -0.0157  1.0964
11429TIP3    H155702   5.011   4.082  13.596  0.1110 -1.3441  0.1348
11429TIP3    H255703   4.906   4.192  13.594  1.6166  0.1850  1.5903
11430TIP3   OH255704   3.224   5.013  13.391  0.2461 -0.1191 -0.3764
11430TIP3    H155705   3.206   4.953  13.464 -0.1763 -0.3609 -0.6713
11430TIP3    H255706   3.259   5.091  13.433  0.0458 -0.2693  0.0862
11431TIP3   OH255707   1.987   2.415   0.102  0.2275 -0.7965 -0.5685
11431TIP3    H155708   2.037   2.333   0.106  0.0521 -0.9199 -0.8069
11431TIP3    H255709   2.033   2.468   0.037  1.4783  0.0935  0.9597
11432TIP3   OH255710   5.159   0.443   1.632 -0.4079  0.4490 -0.0082
11432TIP3    H155711   5.181   0.479   1.546  0.3501  0.7799  0.3156
11432TIP3    H255712   5.243   0.429   1.675 -0.7935  1.2247  1.0590
11433TIP3   OH255713   4.736   4.408  15.371  0.0829 -0.0739 -0.6894
11433TIP3    H155714   4.684   4.488  15.358  1.7136  1.1351 -0.1637
11433TIP3    H255715   4.710   4.350  15.300 -1.8391  0.5354 -0.5336
11434TIP3   OH255716   6.299   2.488  13.173  0.1156 -0.1823  0.0227
11434TIP3    H155717   6.329   2.431  13.244  1.1714  0.2159 -0.0819
11434TIP3    H255718   6.274   2.428  13.103  2.3212 -0.5575 -0.5299
11435TIP3   OH255719   0.604   6.564   1.949  0.2127  0.6515  0.1074
11435TIP3    H155720   0.669   6.562   2.019  1.2239 -0.0307 -0.8200
11435TIP3    H255721   0.555   6.645   1.964  1.7404  1.5486  0.4044
11436TIP3   OH255722   3.701   6.326  13.359 -0.0240 -0.0247 -0.1529
11436TIP3    H155723   3.681   6.401  13.415 -0.0788  0.3811 -0.7151
11436TIP3    H255724   3.619   6.276  13.357 -0.2378  0.3349 -0.4458
11437TIP3   OH255725   6.540   2.880   0.342 -0.0065  0.5682 -0.4752
11437TIP3    H155726   6.554   2.822   0.417 -0.1130  0.1667 -0.7601
11437TIP3    H255727   6.464   2.843   0.297 -0.6091  1.4285 -0.1910
11438TIP3   OH255728   1.473   0.873   3.900  0.0291 -0.2159 -0.2684
11438TIP3    H155729   1.469   0.967   3.917 -1.8717 -0.0146 -1.5499
11438TIP3    H255730   1.563   0.857   3.872  1.0668  0.7524  2.2187
11439TIP3   OH255731   0.438   5.843   1.307 -0.2814 -0.1696  0.1489
11439TIP3    H155732   0.396   5.773   1.256 -0.3432  0.4051 -0.6100
11439TIP3    H255733   0.460   5.802   1.391 -2.0461 -0.5738  0.4451
11440TIP3   OH255734   1.704   0.928  14.296  0.0439 -0.5390 -0.0828
11440TIP3    H155735   1.641   0.980  14.346  1.5177  0.7112  0.5990
11440TIP3    H255736   1.771   0.992  14.270  4.5033 -2.5034  4.7271
11441TIP3   OH255737   3.603   3.914   6.106 -0.0978  0.3378 -0.3958
11441TIP3    H155738   3.594   4.001   6.146 -1.5135 -0.5938  1.5540
11441TIP3    H255739   3.581   3.853   6.177  3.2354 -1.7810 -0.9490
11442TIP3   OH255740   3.998   5.579  14.926  0.1508 -0.5570  0.9721
11442TIP3    H155741   3.958   5.510  14.978  1.0775 -2.0144 -0.1654
11442TIP3    H255742   4.031   5.534  14.848 -0.4760  1.4044 -0.4928
11443TIP3   OH255743   1.975   3.746  13.222 -0.2294 -0.0926  0.2336
11443TIP3    H155744   1.894   3.784  13.256  0.1219 -0.9567  2.1983
11443TIP3    H255745   1.980   3.776  13.132 -1.9398  1.2522  0.5374
11444TIP3   OH255746   6.096   3.034  16.529  0.8745 -0.0764 -0.0955
11444TIP3    H155747   6.081   3.072  16.443  2.3473 -0.4838 -0.5656
11444TIP3    H255748   6.185   3.061  16.552  0.2513  0.6679  1.6526
11445TIP3   OH255749   5.322   5.862   3.063  0.0153 -0.2556  0.5258
11445TIP3    H155750   5.375   5.924   3.114  0.1619  0.0980 -0.0428
11445TIP3    H255751   5.385   5.805   3.020  0.2964  2.5385 -3.2650
11446TIP3   OH255752   1.106   3.587  11.707 -0.0297 -0.2039  0.7968
11446TIP3    H155753   1.160   3.578  11.629  0.4300 -1.8329  1.2784
11446TIP3    H255754   1.168   3.586  11.780 -0.4610  1.1913  1.2223
11447TIP3   OH255755   1.628   4.533  13.693 -0.0091  0.4802 -0.0816
11447TIP3    H155756   1.604   4.597  13.761  0.8970  1.1965 -0.4175
11447TIP3    H255757   1.679   4.584  13.629  0.8639 -0.6162 -0.2816
11448TIP3   OH255758   2.873   0.285  15.209  0.4583 -0.4467 -0.1547
11448TIP3    H155759   2.953   0.268  15.260 -0.1757 -1.9716  0.3849
11448TIP3    H255760   2.822   0.205  15.218 -1.4979  0.7816  0.1802
11449TIP3   OH255761   4.852   1.035  15.491  0.8048 -0.9441  0.2348
11449TIP3    H155762   4.803   0.969  15.540  0.2815 -1.0079 -0.3830
11449TIP3    H255763   4.863   1.107  15.554  1.8557 -1.8100  1.1036
11450TIP3   OH255764   2.286   4.900  11.973 -0.3692 -0.3154  0.0723
11450TIP3    H155765   2.332   4.819  11.952 -0.4145  0.1122 -1.8858
11450TIP3    H255766   2.259   4.935  11.888  2.8264  3.6292  0.3308
11451TIP3   OH255767   5.041   5.344  13.669  0.0934 -0.3128 -0.6182
11451TIP3    H155768   5.018   5.357  13.577 -0.1668  0.5631 -0.4421
11451TIP3    H255769   5.025   5.251  13.685 -1.6219 -0.1211 -0.9898
11452TIP3   OH255770   3.244   2.412  15.916 -0.3781 -0.5533  0.3747
11452TIP3    H155771   3.269   2.352  15.986 -2.0504 -0.9465  0.6648
11452TIP3    H255772   3.214   2.491  15.961  1.1761  0.2997  0.0080
11453TIP3   OH255773   6.582   2.916  13.823 -0.2388  0.1557  0.2357
11453TIP3    H155774   6.656   2.945  13.877  0.3746  0.4141 -0.7281
11453TIP3    H255775   6.506   2.955  13.865  0.2077  0.2489  0.9915
11454TIP3   OH255776   0.653   0.078   5.576 -0.0405 -0.0694 -0.1014
11454TIP3    H155777   0.708   0.156   5.583  0.4530 -0.5357  2.8432
11454TIP3    H255778   0.570   0.104   5.616 -0.1454 -0.8110  0.1843
11455TIP3   OH255779   1.458   5.668  17.058 -0.3698  0.1320  0.4465
11455TIP3    H155780   1.450   5.733  17.128 -0.1420 -0.5054  1.0733
11455TIP3    H255781   1.376   5.619  17.061 -1.7494  2.1296 -1.8355
11456TIP3   OH255782   1.752   3.120   3.298 -0.3052 -0.8189  0.3358
11456TIP3    H155783   1.670   3.158   3.267 -0.9960 -1.6447  1.0972
11456TIP3    H255784   1.772   3.051   3.234 -1.4502 -2.1645  1.3523
11457TIP3   OH255785   4.638   1.093  13.079 -0.3040 -0.3079 -0.6488
11457TIP3    H155786   4.731   1.074  13.092 -0.6535 -0.3624  2.5458
11457TIP3    H255787   4.593   1.014  13.107 -1.3754  0.5897  0.2273
11458TIP3   OH255788   5.853   0.451   1.986  0.2404  0.6209  0.3260
11458TIP3    H155789   5.855   0.421   1.895  0.0390  0.5360  0.3495
11458TIP3    H255790   5.930   0.411   2.026 -0.5978 -0.7479  0.6367
11459TIP3   OH255791   2.627   6.286   3.449 -0.0002  0.1764 -0.3594
11459TIP3    H155792   2.683   6.359   3.473 -1.2137  1.1487 -0.3661
11459TIP3    H255793   2.676   6.236   3.384  0.1985  1.9106 -1.5784
11460TIP3   OH255794   4.157   4.093  17.058 -0.3863  0.4316 -0.5175
11460TIP3    H155795   4.102   4.159  17.016 -0.6752  0.1263 -0.6207
11460TIP3    H255796   4.173   4.028  16.989 -0.7036  0.0244 -0.2058
11461TIP3   OH255797   4.535   5.538   4.195 -0.4516  0.4313  0.1377
11461TIP3    H155798   4.609   5.597   4.178  0.8978 -0.8355  1.3431
11461TIP3    H255799   4.515   5.500   4.110  1.1439 -0.1353 -0.0235
11462TIP3   OH255800   0.821   3.304  15.206 -0.4820 -0.5378 -0.4694
11462TIP3    H155801   0.906   3.327  15.245 -1.1829  0.1106  0.7215
11462TIP3    H255802   0.803   3.375  15.145 -0.9771  0.2601  0.5818
11463TIP3   OH255803   4.009   6.036   4.337  0.4758 -0.9184  0.5058
11463TIP3    H155804   3.927   5.995   4.311  0.0629  0.7828 -1.0248
11463TIP3    H255805   4.033   6.092   4.264  2.1335 -0.0784  1.6224
11464TIP3   OH255806   2.227   6.293  12.591 -0.3066 -0.1417 -0.3230
11464TIP3    H155807   2.143   6.336  12.604  0.0696  0.5829 -0.2390
11464TIP3    H255808   2.220   6.251  12.505 -2.1594 -3.4121  1.2367
11465TIP3   OH255809   3.459   6.207   2.165 -0.1237 -0.3911  0.0106
11465TIP3    H155810   3.483   6.248   2.082  0.4588 -0.8764 -0.0694
11465TIP3    H255811   3.415   6.276   2.215 -1.0080 -0.2605 -0.9274
11466TIP3   OH255812   1.995   3.547  16.216 -0.1370 -0.0491 -0.1171
11466TIP3    H155813   2.050   3.618  16.183 -0.3133 -0.5846 -1.6026
11466TIP3    H255814   2.046   3.467  16.198  0.8814 -0.2846  3.1135
11467TIP3   OH255815   5.226   5.546   4.593 -0.2604  0.2148  0.0159
11467TIP3    H155816   5.289   5.609   4.559  0.3927 -0.0851  0.6310
11467TIP3    H255817   5.181   5.592   4.664  1.0433 -0.3514  1.2620
11468TIP3   OH255818   6.091   0.947  12.596 -0.2771 -0.2261 -0.3923
11468TIP3    H155819   6.052   1.033  12.613 -2.0453 -0.8921 -0.8253
11468TIP3    H255820   6.022   0.899  12.551  0.0106 -2.4906  1.4417
11469TIP3   OH255821   3.908   3.767  12.154 -0.0050 -0.4749 -0.3002
11469TIP3    H155822   3.865   3.736  12.233  0.8747 -0.1762  0.3169
11469TIP3    H255823   3.880   3.706  12.085 -0.9672 -0.5939  0.1821
11470TIP3   OH255824   0.954   2.438  11.769  0.7557 -0.2456 -0.1302
11470TIP3    H155825   0.871   2.451  11.722  0.9026  0.3088 -0.2353
11470TIP3    H255826   1.019   2.485  11.716  1.0153 -0.0780  0.3404
11471TIP3   OH255827   0.571   3.090   1.639  0.3366 -0.4876  0.1916
11471TIP3    H155828   0.650   3.144   1.640  0.6306 -0.9137  0.6657
11471TIP3    H255829   0.502   3.147   1.674  1.2806 -1.3158  3.9032
11472TIP3   OH255830   1.758   4.005  12.055 -0.2857  0.4177  0.1268
11472TIP3    H155831   1.744   3.911  12.067  1.2095  0.3656  2.0612
11472TIP3    H255832   1.671   4.040  12.035 -1.3009 -1.0954  1.6045
11473TIP3   OH255833   5.804   2.764  13.464  0.1031  0.3910 -0.8080
11473TIP3    H155834   5.805   2.759  13.368 -1.6792 -0.4262 -0.8247
11473TIP3    H255835   5.763   2.683  13.492  2.3428 -0.2895  0.7885
11474TIP3   OH255836   2.521   0.733  10.812  0.1011  0.0500 -0.1938
11474TIP3    H155837   2.552   0.824  10.809  0.0149  0.1225  0.7943
11474TIP3    H255838   2.490   0.715  10.723 -1.3314  1.4922 -0.0307
11475TIP3   OH255839   3.717   3.789   5.320 -0.2931 -0.3598  0.1466
11475TIP3    H155840   3.687   3.813   5.233 -2.9243 -1.3663  0.6666
11475TIP3    H255841   3.740   3.872   5.362  0.1829  0.2098 -1.1902
11476TIP3   OH255842   5.892   6.169  11.844  0.4706 -0.0271  0.3246
11476TIP3    H155843   5.899   6.242  11.905 -0.0653  0.4820 -0.2089
11476TIP3    H255844   5.974   6.170  11.795  0.0672  0.8587 -0.3651
11477TIP3   OH255845   1.430   0.580  16.672 -0.0711 -0.1946  0.0024
11477TIP3    H155846   1.352   0.608  16.722  1.0536  2.3990  0.4728
11477TIP3    H255847   1.448   0.654  16.614  1.3319 -1.2918 -1.0016
11478TIP3   OH255848   4.194   3.120   4.644 -0.0712  0.5395 -0.0933
11478TIP3    H155849   4.134   3.112   4.570 -1.3101  0.6668  0.8630
11478TIP3    H255850   4.189   3.035   4.689  0.8282  0.3901 -0.2507
11479TIP3   OH255851   3.347   6.188   2.542 -0.1144  0.4387  0.1241
11479TIP3    H155852   3.441   6.206   2.543 -0.1541  0.7795  2.3884
11479TIP3    H255853   3.313   6.238   2.468  1.5099  0.0578 -0.9285
11480TIP3   OH255854   1.369   0.027  11.329 -0.1855  0.1047 -0.0975
11480TIP3    H155855   1.379   0.061  11.418  0.6328 -0.4905  0.0485
11480TIP3    H255856   1.408   0.094  11.273 -0.2672  0.2590  0.0299
11481TIP3   OH255857   3.317   3.883   0.513  0.1355  0.1310  0.0953
11481TIP3    H155858   3.227   3.856   0.531 -0.2688  1.8345  0.8319
11481TIP3    H255859   3.368   3.846   0.585  0.3064 -2.0203 -1.0588
11482TIP3   OH255860   2.987   4.365  11.716  0.4792 -0.3945  0.5968
11482TIP3    H155861   2.932   4.348  11.639  1.5139  0.2974 -0.3316
11482TIP3    H255862   2.925   4.386  11.785 -0.4403  0.0872 -0.3432
11483TIP3   OH255863   0.829   6.015  12.139  0.0134  0.2440  0.4966
11483TIP3    H155864   0.797   6.104  12.126  0.7527  0.4916  0.3385
11483TIP3    H255865   0.768   5.960  12.090  0.0154  0.7339 -0.0617
11484TIP3   OH255866   3.094   4.944   5.399  0.0202  0.4074 -0.1677
11484TIP3    H155867   3.130   4.947   5.310 -0.3601 -1.4921 -0.4145
11484TIP3    H255868   2.999   4.952   5.386 -0.0421  0.0239  0.0643
11485TIP3   OH255869   4.860   5.760   0.882  0.2189  0.3407 -0.5618
11485TIP3    H155870   4.858   5.675   0.836 -1.0204 -0.4695  0.8771
11485TIP3    H255871   4.772   5.795   0.869  1.5512  2.9886 -3.7855
11486TIP3   OH255872   5.778   3.029   4.956  0.0626 -0.5831 -0.1739
11486TIP3    H155873   5.816   3.113   4.930  1.7432 -0.6406  1.8115
11486TIP3    H255874   5.692   3.027   4.912 -0.0827  2.1957 -0.2303
11487TIP3   OH255875   6.526   0.928   0.468  0.1018 -0.1760  0.2262
11487TIP3    H155876   6.432   0.913   0.457  0.2818 -1.5903  0.4890
11487TIP3    H255877   6.565   0.898   0.386  0.5828 -2.4871  1.2111
11488TIP3   OH255878   0.761   5.864  12.611  0.2805 -0.5505  0.1114
11488TIP3    H155879   0.810   5.827  12.537  0.3324 -1.5418  0.6271
11488TIP3    H255880   0.670   5.867  12.580  0.4559  0.0810 -0.3787
11489TIP3   OH255881   0.684   3.150  14.390 -0.1611  0.1031  0.1838
11489TIP3    H155882   0.606   3.180  14.344  0.7033 -0.3940 -1.6700
11489TIP3    H255883   0.690   3.057  14.371  0.7490  0.0780  0.5123
11490TIP3   OH255884   2.406   0.567   0.189  0.0781 -0.1387 -0.1161
11490TIP3    H155885   2.459   0.559   0.268 -1.6980 -0.6982  1.0915
11490TIP3    H255886   2.469   0.580   0.119  1.7097  0.5577  1.4077
11491TIP3   OH255887   4.998   1.624  11.975 -0.0888  0.0782 -0.1847
11491TIP3    H155888   5.093   1.617  11.986 -0.0823  0.5707  0.0974
11491TIP3    H255889   4.985   1.709  11.932 -0.3772 -0.1597 -0.5811
11492TIP3   OH255890   3.692   3.363   2.738 -0.3499 -0.0939 -0.0994
11492TIP3    H155891   3.781   3.393   2.718 -0.7506  0.7048 -0.7717
11492TIP3    H255892   3.637   3.440   2.720 -1.0547 -0.1962  1.4480
11493TIP3   OH255893   5.092   0.972  12.711  0.8657  0.0186  0.0359
11493TIP3    H155894   5.103   0.975  12.616  1.4988  1.4349  0.1250
11493TIP3    H255895   5.024   1.037  12.729  0.9804 -0.0117  0.5813
11494TIP3   OH255896   5.114   5.260  15.004 -0.6982 -0.0613 -0.3110
11494TIP3    H155897   5.185   5.197  14.990 -0.7593 -0.0101 -0.8767
11494TIP3    H255898   5.074   5.233  15.086  0.9313  0.8107  0.8508
11495TIP3   OH255899   4.402   4.488   6.114 -0.2989 -0.6099  0.4587
11495TIP3    H155900   4.453   4.568   6.116  0.6137 -1.2022  1.4464
11495TIP3    H255901   4.321   4.512   6.068  1.0236  0.2232 -1.5166
11496TIP3   OH255902   4.036   5.532   2.041  0.1967 -0.0730  0.2383
11496TIP3    H155903   4.122   5.504   2.072  0.7160 -1.3120 -2.0362
11496TIP3    H255904   3.999   5.454   2.000 -1.1155  0.9650 -0.6533
11497TIP3   OH255905   0.777   6.170  13.560 -0.4177  0.2120  0.7120
11497TIP3    H155906   0.689   6.144  13.586 -1.0982  0.4684 -1.1632
11497TIP3    H255907   0.765   6.213  13.475  1.8011 -2.0972 -0.8930
11498TIP3   OH255908   4.477   2.766  11.138  0.5101  0.4276  0.1581
11498TIP3    H155909   4.497   2.859  11.127 -2.0750  1.0085 -0.1828
11498TIP3    H255910   4.562   2.722  11.125  1.8121  2.7022  0.3875
11499TIP3   OH255911   4.664   2.046  12.459 -0.0517 -0.4792  0.8647
11499TIP3    H155912   4.661   1.984  12.386  0.3112 -0.4015  0.7807
11499TIP3    H255913   4.733   2.012  12.516  0.7914  0.3417  0.3583
11500TIP3   OH255914   6.044   0.537   0.402 -0.1699  0.2767 -0.2874
11500TIP3    H155915   6.013   0.472   0.338 -3.0049 -0.9209  2.0724
11500TIP3    H255916   6.085   0.486   0.471 -2.7275  0.7567  1.7694
11501TIP3   OH255917   6.695   2.959   4.333 -0.5152 -0.3218 -0.4489
11501TIP3    H155918   6.759   2.997   4.393  0.7408  0.2226 -2.0576
11501TIP3    H255919   6.611   2.977   4.373  0.3138 -1.2359  1.8328
11502TIP3   OH255920   4.208   0.956  16.284  0.0517 -0.2877  0.2867
11502TIP3    H155921   4.147   0.915  16.345 -0.5335 -1.0228 -0.7523
11502TIP3    H255922   4.271   1.002  16.339 -0.9762 -0.1815  1.4031
11503TIP3   OH255923   5.324   3.288   3.069 -0.0405  0.2621  0.4828
11503TIP3    H155924   5.303   3.362   3.125 -0.7625  0.5955 -0.2211
11503TIP3    H255925   5.419   3.292   3.059 -0.0978  1.2169  0.2702
11504TIP3   OH255926   2.297   2.104  16.995 -0.3880  0.4784 -0.1289
11504TIP3    H155927   2.357   2.061  16.934 -0.7631  1.1901 -1.0218
11504TIP3    H255928   2.351   2.167  17.042 -0.4059  1.0775 -0.8930
11505TIP3   OH255929   2.352   2.181  13.467 -0.4190  0.8917  0.5241
11505TIP3    H155930   2.363   2.276  13.464  1.5741  0.6943 -0.8696
11505TIP3    H255931   2.383   2.156  13.554  1.1549  1.3537  0.1341
11506TIP3   OH255932   2.508   2.997  11.767 -0.0238 -0.4329  0.1040
11506TIP3    H155933   2.539   3.062  11.704 -0.2325 -1.2002 -0.8159
11506TIP3    H255934   2.472   3.048  11.839  0.9013  0.4688 -0.0538
11507TIP3   OH255935   6.380   5.143   3.981 -0.0200  0.2669  0.1873
11507TIP3    H155936   6.459   5.188   4.012  1.9181 -2.4993 -0.3283
11507TIP3    H255937   6.369   5.070   4.042 -1.9247  0.3069 -0.0666
11508TIP3   OH255938   6.740   1.384  12.536 -0.1802  0.4872 -0.2611
11508TIP3    H155939   6.835   1.390  12.548 -0.1807  1.5477 -0.7166
11508TIP3    H255940   6.705   1.460  12.583 -0.7596  0.4526 -0.6335
11509TIP3   OH255941   4.600   2.617   5.220  0.0454 -0.2967 -0.0265
11509TIP3    H155942   4.587   2.661   5.136 -0.0436 -2.6685 -1.3386
11509TIP3    H255943   4.695   2.617   5.232  0.1761 -1.1224 -0.8651
11510TIP3   OH255944   2.120   5.437  16.203  0.4499  0.4627  0.3054
11510TIP3    H155945   2.025   5.437  16.188  0.4782 -1.4165 -0.0353
11510TIP3    H255946   2.154   5.498  16.137 -0.5008  1.1501  0.4293
11511TIP3   OH255947   1.207   0.869   2.610  0.1184 -0.3981  0.1430
11511TIP3    H155948   1.286   0.887   2.661 -0.3790 -3.0019  2.0659
11511TIP3    H255949   1.145   0.832   2.674 -0.4693 -4.1418 -2.2505
11512TIP3   OH255950   0.469   5.502   0.195 -0.1169  0.3628 -0.5002
11512TIP3    H155951   0.471   5.595   0.170  0.4318  0.7999  1.0256
11512TIP3    H255952   0.531   5.461   0.135  0.0171  1.0752 -0.8698
11513TIP3   OH255953   5.367   0.682  14.345  0.3235 -0.5120 -0.8454
11513TIP3    H155954   5.398   0.752  14.287  0.8199  1.3335  1.5187
11513TIP3    H255955   5.279   0.710  14.370  1.3774  0.6039  1.9699
11514TIP3   OH255956   1.053   2.966   0.665  0.3048  0.1449 -0.3075
11514TIP3    H155957   0.995   3.025   0.712 -0.6744 -0.4978 -0.6790
11514TIP3    H255958   1.038   2.985   0.573  1.1160  0.3636 -0.4095
11515TIP3   OH255959   3.120   0.766  11.968 -1.0921 -0.4702 -0.2805
11515TIP3    H155960   3.181   0.768  11.895  0.3581 -0.6689  0.8607
11515TIP3    H255961   3.105   0.672  11.984 -0.9014 -0.4469  0.0540
11516TIP3   OH255962   3.266   1.283  13.097 -0.5042  0.5165  0.2778
11516TIP3    H155963   3.361   1.280  13.112 -0.5395  0.4621  0.4886
11516TIP3    H255964   3.228   1.256  13.180 -0.6988  0.1634  0.0749
11517TIP3   OH255965   2.029   1.780   1.166  0.2605 -0.4564 -0.1763
11517TIP3    H155966   1.964   1.813   1.104  1.2835  1.9953 -0.0626
11517TIP3    H255967   2.113   1.801   1.126  1.0344 -2.8370  0.0510
11518TIP3   OH255968   2.778   4.966   3.288 -0.1539  0.1755 -0.2177
11518TIP3    H155969   2.715   4.995   3.222 -1.2107  0.4742  0.8861
11518TIP3    H255970   2.858   5.014   3.268 -0.8120  1.1321 -0.5998
11519TIP3   OH255971   6.382   1.344  12.202 -0.1068 -0.0967  0.4550
11519TIP3    H155972   6.399   1.308  12.115 -1.3005  0.6871 -0.1302
11519TIP3    H255973   6.461   1.393  12.224  0.6377 -1.1867  0.2968
11520TIP3   OH255974   0.425   1.738  15.467 -0.5148  0.0285 -0.2205
11520TIP3    H155975   0.408   1.742  15.373 -0.7057  0.5985 -0.1646
11520TIP3    H255976   0.508   1.691  15.475 -0.2110  0.4743 -0.7093
11521TIP3   OH255977   5.567   4.668  16.731  0.0742  0.0488  0.4738
11521TIP3    H155978   5.494   4.705  16.782 -0.0316  0.6217 -0.0822
11521TIP3    H255979   5.543   4.576  16.720  0.0143 -0.0491  1.3029
11522TIP3   OH255980   5.588   1.111   5.719 -0.1832  0.4333 -0.1498
11522TIP3    H155981   5.583   1.085   5.811  0.7861 -2.0807 -0.7301
11522TIP3    H255982   5.668   1.164   5.713 -0.9805  1.8072  0.6414
11523TIP3   OH255983   3.276   5.752  16.968  0.2169 -0.4335  0.0139
11523TIP3    H155984   3.327   5.686  16.921  0.4672 -0.4579  0.3149
11523TIP3    H255985   3.229   5.703  17.035  1.3007 -0.1775  1.0002
11524TIP3   OH255986   0.415   3.944   4.271  0.0426  0.1122 -0.4422
11524TIP3    H155987   0.333   3.976   4.311  0.6534  1.0018  0.1552
11524TIP3    H255988   0.463   3.904   4.344  0.3132 -0.0402 -0.7036
11525TIP3   OH255989   6.648   1.406   1.796  0.1084  0.6228  0.4876
11525TIP3    H155990   6.699   1.365   1.726  0.1816  0.8422  0.4108
11525TIP3    H255991   6.631   1.335   1.858 -1.8655 -0.1293 -0.8038
11526TIP3   OH255992   6.232   5.497   2.736  0.6922  0.3576 -0.1281
11526TIP3    H155993   6.199   5.586   2.746  2.4789  0.8792  2.0386
11526TIP3    H255994   6.177   5.458   2.669 -2.7191  1.8315  1.5716
11527TIP3   OH255995   2.955   0.396  10.979  0.3766 -0.0993 -0.3475
11527TIP3    H155996   3.005   0.473  11.004  1.8424 -0.9378 -0.6217
11527TIP3    H255997   2.963   0.392  10.883  1.5700 -1.4128 -0.2107
11528TIP3   OH255998   0.286   1.051   1.593  0.1861 -0.4141 -0.7221
11528TIP3    H155999   0.329   1.103   1.661  1.0154 -1.0619 -0.7304
11528TIP3    H256000   0.206   1.019   1.634 -0.2098  0.6465 -0.6364
11529TIP3   OH256001   5.985   2.338  15.891 -0.2207 -0.2029  0.2916
11529TIP3    H156002   6.012   2.429  15.878 -1.9811  0.4529  0.9720
11529TIP3    H256003   5.971   2.305  15.802 -1.3733  0.7901  0.0721
11530TIP3   OH256004   4.436   4.368  15.243  0.1676  0.2200 -0.3872
11530TIP3    H156005   4.396   4.294  15.289  3.9380 -1.0477  1.2759
11530TIP3    H256006   4.416   4.444  15.298  0.0364 -0.3615  0.3894
11531TIP3   OH256007   6.236   0.364  16.872  0.2126 -0.0129  0.2705
11531TIP3    H156008   6.269   0.357  16.782  0.1630 -0.9739  0.3175
11531TIP3    H256009   6.281   0.441  16.907  0.3440  0.2911 -0.5290
11532TIP3   OH256010   2.343   5.269  16.329  0.1962  0.2967  0.2298
11532TIP3    H156011   2.430   5.228  16.326  1.0720  2.0853 -0.1059
11532TIP3    H256012   2.361   5.362  16.343 -1.7602  0.3826  2.9327
11533TIP3   OH256013   5.758   5.044   3.438 -0.7480  0.7356  0.3761
11533TIP3    H156014   5.777   5.132   3.469  2.7024 -0.1070  1.0776
11533TIP3    H256015   5.803   5.038   3.354  0.8057 -0.8992  1.2607
11534TIP3   OH256016   5.992   0.058   0.169 -0.2976  0.0539  0.1970
11534TIP3    H156017   5.938   0.001   0.114 -0.6175  1.2791 -0.8231
11534TIP3    H256018   6.076   0.013   0.175 -0.4874 -0.4448 -0.7170
11535TIP3   OH256019   4.982   4.064  11.726 -0.5400  0.4671 -0.9367
11535TIP3    H156020   5.059   4.084  11.672 -0.9265  1.5221 -1.1365
11535TIP3    H256021   5.009   3.993  11.783  0.8108  1.2599 -0.5476
11536TIP3   OH256022   1.753   3.977   2.705 -0.3516 -0.3504  0.4630
11536TIP3    H156023   1.831   3.939   2.664  0.5636  1.3570  0.5488
11536TIP3    H256024   1.783   4.059   2.743 -2.2613  0.5008  0.2599
11537TIP3   OH256025   4.845   5.831  12.990 -0.4641  0.3120 -0.1097
11537TIP3    H156026   4.916   5.848  13.052 -0.2164 -0.5832 -0.1263
11537TIP3    H256027   4.841   5.909  12.936  0.7097  0.2678 -0.2874
11538TIP3   OH256028   4.865   5.998   4.177  0.3602  0.1049  0.4240
11538TIP3    H156029   4.894   6.068   4.118 -0.1616  0.4668  0.5962
11538TIP3    H256030   4.911   5.920   4.145 -0.8143  0.0321 -1.2395
11539TIP3   OH256031   4.021   3.716   2.203 -0.0565  0.4677 -0.5594
11539TIP3    H156032   4.058   3.658   2.268  0.2575 -0.4554 -1.5268
11539TIP3    H256033   4.050   3.804   2.228  0.9425  0.0050 -0.0741
11540TIP3   OH256034   6.215   2.752   6.065  0.2846  0.6996  0.5420
11540TIP3    H156035   6.229   2.750   5.970  0.5475  0.0160  0.5918
11540TIP3    H256036   6.121   2.762   6.075  0.2274  0.5304  0.2042
11541TIP3   OH256037   2.005   2.395   4.896  0.8516 -0.2486 -0.5633
11541TIP3    H156038   2.070   2.418   4.963  0.5920  1.6508 -0.9163
11541TIP3    H256039   2.056   2.347   4.830  1.5203 -0.3513  0.0061
11542TIP3   OH256040   4.499   6.226  11.782  0.1602 -0.0763 -0.8777
11542TIP3    H156041   4.502   6.197  11.873 -0.8118 -1.2799 -1.2029
11542TIP3    H256042   4.500   6.321  11.787  2.3644 -0.0997  0.2867
11543TIP3   OH256043   5.427   4.555  12.932 -0.3986 -0.7008 -0.9274
11543TIP3    H156044   5.512   4.597  12.921 -0.8328  0.0472 -1.5154
11543TIP3    H256045   5.392   4.594  13.013 -0.4885 -0.4669 -1.0774
11544TIP3   OH256046   2.880   2.970   2.328 -0.3134 -0.0075  0.3357
11544TIP3    H156047   2.923   3.052   2.349  1.3244 -0.8533  0.4276
11544TIP3    H256048   2.839   2.985   2.242  2.5087  0.0421 -1.1202
11545TIP3   OH256049   4.527   5.468  11.479 -0.2308  0.5948 -0.7876
11545TIP3    H156050   4.463   5.528  11.441 -0.4969  0.9487  0.1920
11545TIP3    H256051   4.607   5.482  11.428  0.1644  2.8989  0.3797
11546TIP3   OH256052   4.795   5.028  11.361 -0.2686  0.0474 -0.5263
11546TIP3    H156053   4.886   5.030  11.329 -0.5578 -0.0679 -1.4013
11546TIP3    H256054   4.743   5.047  11.283 -1.1354 -2.4900 -0.6591
11547TIP3   OH256055   2.350   1.246  16.811  0.7822  0.5690  0.5235
11547TIP3    H156056   2.435   1.211  16.786  0.5503  1.0487 -1.0292
11547TIP3    H256057   2.288   1.201  16.754  0.2931  2.1378 -0.2351
11548TIP3   OH256058   2.958   4.508  16.826  0.1788 -0.3288  0.1275
11548TIP3    H156059   3.006   4.431  16.857  0.4117 -1.3174 -2.4119
11548TIP3    H256060   3.021   4.555  16.771 -0.6991  0.3157 -0.3574
11549TIP3   OH256061   2.107   4.045  16.524 -0.4308  0.1228  0.4391
11549TIP3    H156062   2.090   4.089  16.608  1.7793  2.7479 -0.3434
11549TIP3    H256063   2.058   4.097  16.460 -0.1711 -0.3847 -0.1736
11550TIP3   OH256064   6.540   2.196   4.735  0.3420  0.0128 -0.4392
11550TIP3    H156065   6.559   2.235   4.649 -0.5187  0.6934 -0.3324
11550TIP3    H256066   6.448   2.168   4.729  0.4855 -0.5939  0.0274
11551TIP3   OH256067   3.937   3.215   1.555  0.1689 -0.0310  0.0156
11551TIP3    H156068   3.871   3.271   1.515  1.5833  0.6185 -1.5495
11551TIP3    H256069   3.914   3.212   1.648 -0.2483  2.7624  0.0728
11552TIP3   OH256070   1.429   1.515   6.131 -0.0675 -0.0418 -0.9857
11552TIP3    H156071   1.395   1.426   6.122 -0.4180  0.0550 -0.6293
11552TIP3    H256072   1.520   1.503   6.160 -0.6462 -0.2619  0.8372
11553TIP3   OH256073   5.726   1.242  13.642 -0.1064  0.9888 -0.0322
11553TIP3    H156074   5.807   1.255  13.692 -0.3481 -0.8017  0.9231
11553TIP3    H256075   5.687   1.329  13.636  1.7816  1.8722 -0.3705
11554TIP3   OH256076   6.607   0.903   2.387  0.1805 -0.3534  0.8632
11554TIP3    H156077   6.678   0.944   2.437 -1.8872  2.9368  1.3985
11554TIP3    H256078   6.536   0.893   2.450 -1.7721  1.9565 -0.8071
11555TIP3   OH256079   2.206   0.568   4.224  0.3143 -0.4035 -0.5143
11555TIP3    H156080   2.133   0.518   4.187 -0.8124 -0.6765  1.8674
11555TIP3    H256081   2.270   0.501   4.251 -0.3448 -0.4975  0.9300
11556TIP3   OH256082   5.047   3.599  15.893  0.2455  0.2811 -0.6355
11556TIP3    H156083   5.116   3.550  15.938 -0.2277 -1.5407 -1.7530
11556TIP3    H256084   4.970   3.590  15.949 -1.2098 -4.5841 -2.8499
11557TIP3   OH256085   5.028   3.955  15.271  0.3338 -0.4987  0.7269
11557TIP3    H156086   4.985   3.878  15.234  0.6236 -0.4067  0.2026
11557TIP3    H256087   4.969   3.983  15.341 -0.2302 -0.6566  0.3228
11558TIP3   OH256088   0.202   1.404  15.964 -0.1712  0.2620  0.1147
11558TIP3    H156089   0.234   1.491  15.987  0.3764  1.0469 -3.1157
11558TIP3    H256090   0.123   1.421  15.912 -1.8770 -1.3678  2.0364
11559TIP3   OH256091   0.290   2.355  12.209 -0.4253 -0.1207 -0.1701
11559TIP3    H156092   0.205   2.381  12.174 -0.5474 -1.0408 -0.5821
11559TIP3    H256093   0.349   2.353  12.134  0.0342  0.7435  0.1499
11560TIP3   OH256094   0.659   6.313  11.657 -0.1258  0.3150 -0.6302
11560TIP3    H156095   0.709   6.267  11.724 -0.1228  2.8612  1.2363
11560TIP3    H256096   0.687   6.273  11.574 -0.4909 -3.2726  0.7842
11561TIP3   OH256097   2.962   0.033   5.883  0.0075  0.4732 -0.0090
11561TIP3    H156098   3.034   0.001   5.829 -0.1331 -2.5958  1.3885
11561TIP3    H256099   2.884   0.023   5.828  0.0869 -0.9179  0.0954
11562TIP3   OH256100   5.851   4.623  12.997  0.3073  0.1082 -0.6437
11562TIP3    H156101   5.848   4.536  12.957 -0.6418  0.8080 -2.1863
11562TIP3    H256102   5.865   4.606  13.090  1.9389 -1.6038 -1.1491
11563TIP3   OH256103   2.870   1.299  10.838 -0.8219  0.0934 -0.2075
11563TIP3    H156104   2.904   1.292  10.927 -4.5465 -1.9741  1.2744
11563TIP3    H256105   2.843   1.391  10.830 -1.9107 -0.0239  1.5195
11564TIP3   OH256106   5.082   5.781   4.187  0.6293  0.1830  0.0386
11564TIP3    H156107   5.127   5.856   4.147  0.0422  0.3911 -0.2316
11564TIP3    H256108   5.123   5.705   4.146  1.8100  0.3174  0.9177
11565TIP3   OH256109   1.437   1.770  13.846  0.2153 -0.2513  0.2651
11565TIP3    H156110   1.353   1.727  13.828  0.0248  0.5002 -0.7002
11565TIP3    H256111   1.426   1.859  13.813  1.0908  0.1262  0.9595
11566TIP3   OH256112   4.075   3.576  13.532 -0.0062  0.4359  0.2263
11566TIP3    H156113   4.133   3.554  13.605  0.0005 -0.6872 -0.0909
11566TIP3    H256114   3.993   3.601  13.573  0.3546  0.9269  0.6483
11567TIP3   OH256115   2.539   0.919   1.779 -0.0046 -0.1709  0.2892
11567TIP3    H156116   2.571   0.838   1.818  3.3339  0.9327  0.1714
11567TIP3    H256117   2.596   0.933   1.703  0.1222  2.6724  0.8059
11568TIP3   OH256118   0.350   0.088  16.945 -0.1624 -0.5680 -0.1412
11568TIP3    H156119   0.345   0.017  17.009 -2.4500 -0.8987 -0.5818
11568TIP3    H256120   0.259   0.102  16.919  0.5599  0.4942 -2.2944
11569TIP3   OH256121   1.879   6.685  12.867  0.2416  0.2049  0.1307
11569TIP3    H156122   1.824   6.729  12.801  1.4754 -0.6601 -1.5600
11569TIP3    H256123   1.951   6.745  12.881  1.2759 -0.6483 -1.2424
11570TIP3   OH256124   5.538   5.425  15.599 -0.3628  0.5903 -0.0125
11570TIP3    H156125   5.504   5.340  15.624  0.5782 -0.5755 -2.3912
11570TIP3    H256126   5.480   5.454  15.528  0.8925  0.6431 -1.0506
11571TIP3   OH256127   2.485   1.380   5.393 -0.6311 -0.7837 -0.3423
11571TIP3    H156128   2.480   1.338   5.478 -2.1914  0.0929  0.0321
11571TIP3    H256129   2.568   1.349   5.356 -0.1905 -1.6071  1.2439
11572TIP3   OH256130   4.489   1.230  16.627  0.0504  0.3803 -0.1946
11572TIP3    H156131   4.422   1.176  16.668  0.8466  0.0601  0.7142
11572TIP3    H256132   4.464   1.232  16.534  0.2997 -2.0383 -0.3795
11573TIP3   OH256133   0.214   1.819   2.227  0.0028  0.2682 -0.1027
11573TIP3    H156134   0.171   1.902   2.244  0.8078  0.6066  0.3638
11573TIP3    H256135   0.294   1.843   2.179  0.2938 -0.2212  0.1293
11574TIP3   OH256136   4.191   6.220   5.758 -0.2319 -0.4376  0.4597
11574TIP3    H156137   4.212   6.312   5.777  2.2385 -1.1841  1.7576
11574TIP3    H256138   4.268   6.188   5.711 -1.2332 -1.7598 -0.3096
11575TIP3   OH256139   5.370   0.815   5.449  0.5109  0.0339 -0.2038
11575TIP3    H156140   5.328   0.747   5.396  0.8770 -0.1183 -0.3014
11575TIP3    H256141   5.387   0.773   5.533  0.7357  0.0063 -0.2637
11576TIP3   OH256142   4.648   0.991  13.831 -0.2884 -0.0595  0.1052
11576TIP3    H156143   4.576   0.931  13.809 -0.2453  0.0291 -0.2840
11576TIP3    H256144   4.644   1.059  13.764  0.1110 -0.0121  0.1288
11577TIP3   OH256145   5.637   5.763  15.345 -0.5688  1.2638 -0.3224
11577TIP3    H156146   5.542   5.770  15.343 -0.5519  2.2449  0.9453
11577TIP3    H256147   5.658   5.741  15.436  0.3574 -0.4462 -0.9095
11578TIP3   OH256148   3.915   1.733   3.324  0.0045 -0.1061 -0.0297
11578TIP3    H156149   3.918   1.742   3.229 -1.1873  1.4016  0.0522
11578TIP3    H256150   3.822   1.731   3.345  0.2562 -0.6719  1.1065
11579TIP3   OH256151   5.758   0.359  12.196  0.1174 -0.2201  0.2524
11579TIP3    H156152   5.850   0.383  12.187  0.2540 -0.0763  1.7566
11579TIP3    H256153   5.710   0.442  12.189  0.1255 -0.2464 -0.1413
11580TIP3   OH256154   3.647   0.544   3.728 -0.0983  0.1901 -0.4799
11580TIP3    H156155   3.716   0.594   3.684 -1.1889  0.2077 -2.2622
11580TIP3    H256156   3.694   0.478   3.780  1.3155  2.1065  0.7935
11581TIP3   OH256157   6.018   2.613   2.205 -0.0284  0.0837  0.0131
11581TIP3    H156158   5.965   2.677   2.158 -1.0722 -1.1149 -0.4957
11581TIP3    H256159   6.070   2.665   2.267 -0.1623  1.4830 -1.0228
11582TIP3   OH256160   1.200   4.303  15.052  0.1380  0.1989 -0.4742
11582TIP3    H156161   1.269   4.295  14.986  0.0996  0.0046 -0.4909
11582TIP3    H256162   1.214   4.229  15.110 -1.0453 -0.7992 -1.4057
11583TIP3   OH256163   4.245   2.028   0.606 -0.1107 -0.2827  0.2322
11583TIP3    H156164   4.273   2.014   0.516 -1.2834 -1.1590 -0.0178
11583TIP3    H256165   4.175   2.093   0.600 -1.5046 -1.7164  0.2548
11584TIP3   OH256166   6.003   1.201   5.426 -0.4237 -0.0043 -0.2695
11584TIP3    H156167   6.068   1.257   5.469 -0.0628  0.3405 -1.2273
11584TIP3    H256168   5.948   1.262   5.377 -0.2342 -0.4514 -1.0596
11585TIP3   OH256169   0.123   6.144   2.033  0.2733 -1.0122 -0.8819
11585TIP3    H156170   0.138   6.210   1.965  1.9975 -0.5717 -0.1343
11585TIP3    H256171   0.140   6.190   2.115  1.4809 -2.3395 -0.3361
11586TIP3   OH256172   5.648   6.173  17.050  0.3458  0.7804 -0.4295
11586TIP3    H156173   5.736   6.193  17.016  1.1865 -1.9268 -0.0716
11586TIP3    H256174   5.655   6.190  17.144  0.9018 -0.5647 -0.2045
11587TIP3   OH256175   4.845   3.941  11.061 -0.6560  0.0209  0.3783
11587TIP3    H156176   4.858   3.900  10.976  0.1529  0.8408  0.0917
11587TIP3    H256177   4.758   3.981  11.055 -0.5397  0.2030 -0.1135
11588TIP3   OH256178   0.355   0.134  16.595  0.5770 -0.1495 -0.4204
11588TIP3    H156179   0.285   0.184  16.635 -0.1604  0.0218 -1.8593
11588TIP3    H256180   0.419   0.201  16.567  0.3539 -0.1241 -0.8905
11589TIP3   OH256181   1.579   6.028  13.196  0.1413 -0.5268 -0.1435
11589TIP3    H156182   1.540   5.959  13.250 -0.7369 -0.6031 -0.8527
11589TIP3    H256183   1.536   6.108  13.226  1.4949 -0.2041  0.9978
11590TIP3   OH256184   4.043   4.852   3.868 -0.1096  0.3614 -0.6738
11590TIP3    H156185   3.995   4.859   3.785  0.8011 -0.8392 -1.3455
11590TIP3    H256186   4.135   4.856   3.842  0.2244 -1.6155  0.0829
11591TIP3   OH256187   0.070   5.626  10.860  0.6052  0.2109 -0.0988
11591TIP3    H156188  -0.016   5.652  10.827  1.2927  0.8014 -1.5051
11591TIP3    H256189   0.051   5.563  10.929 -0.9415 -1.6452 -2.0674
11592TIP3   OH256190   5.891   0.077  16.149  0.1323  0.1289  0.3806
11592TIP3    H156191   5.981   0.073  16.182 -0.0623 -2.0818  0.7891
11592TIP3    H256192   5.899   0.053  16.056  0.0161  0.4529  0.2863
11593TIP3   OH256193   0.615   2.706   4.637 -0.2812  0.6111  0.0016
11593TIP3    H156194   0.615   2.621   4.680 -2.4297  1.3826  1.7507
11593TIP3    H256195   0.696   2.708   4.586 -0.3828 -2.6070 -0.4642
11594TIP3   OH256196   5.885   0.799   0.945 -0.3225  0.4766  0.6467
11594TIP3    H156197   5.934   0.877   0.969  0.2369  0.4762 -0.4256
11594TIP3    H256198   5.880   0.802   0.850 -0.6541 -0.5817  0.6182
11595TIP3   OH256199   4.182   5.140   6.282  0.2664  0.0792 -0.1498
11595TIP3    H156200   4.277   5.129   6.273  0.2213  0.9660 -2.4413
11595TIP3    H256201   4.145   5.081   6.217 -0.7652 -0.1431  0.6178
11596TIP3   OH256202   3.346   1.710  12.165 -0.0959 -0.1522  0.1627
11596TIP3    H156203   3.350   1.773  12.093 -0.8189  0.5953  0.7565
11596TIP3    H256204   3.370   1.761  12.243  1.0101 -1.0250  0.4170
11597TIP3   OH256205   6.251   0.753  13.640 -0.0165  0.0423 -0.0650
11597TIP3    H156206   6.267   0.803  13.560 -0.3589 -1.5942 -1.2074
11597TIP3    H256207   6.171   0.790  13.677 -0.2582  0.3368 -0.8818
11598TIP3   OH256208   4.070   2.233  13.128 -0.5710  0.0207  0.5590
11598TIP3    H156209   4.072   2.138  13.123 -1.4050  0.0256 -0.1221
11598TIP3    H256210   4.096   2.262  13.041  0.4769  0.4470  0.9897
11599TIP3   OH256211   1.390   5.701   1.222 -0.0424  0.1888  0.0493
11599TIP3    H156212   1.457   5.748   1.271  1.0937 -0.0912 -1.1975
11599TIP3    H256213   1.429   5.616   1.201 -0.2804  0.4697 -1.7376
11600TIP3   OH256214   1.440   4.881  16.776 -0.3222  0.3030  0.5179
11600TIP3    H156215   1.501   4.816  16.740  1.3383  0.1087  3.3793
11600TIP3    H256216   1.387   4.831  16.838 -0.7174  1.2263  0.9383
11601TIP3   OH256217   5.832   5.165  17.090  0.4572  0.3266  0.2677
11601TIP3    H156218   5.745   5.170  17.051  0.5148 -0.5235  0.0208
11601TIP3    H256219   5.865   5.079  17.066  2.2044  1.3704 -1.4272
11602TIP3   OH256220   0.995   3.478  17.058 -0.3530  0.4406 -0.0405
11602TIP3    H156221   0.901   3.459  17.055 -0.5551  1.1745  0.8752
11602TIP3    H256222   1.001   3.569  17.027  0.3473 -0.3548 -2.3982
11603TIP3   OH256223   0.184   1.288   5.143 -0.0351 -0.3745  0.1264
11603TIP3    H156224   0.199   1.337   5.224 -0.1181 -2.0224  1.1753
11603TIP3    H256225   0.135   1.349   5.087  0.3113  0.9024  1.1741
11604TIP3   OH256226   2.927   6.405  16.955  0.1036  0.1636 -0.1173
11604TIP3    H156227   2.844   6.401  16.907  0.0422  1.5862 -0.1857
11604TIP3    H256228   2.994   6.397  16.886  0.0175  0.1580 -0.2016
11605TIP3   OH256229   0.474   6.110  12.149  0.4040 -0.3856 -0.7173
11605TIP3    H156230   0.553   6.108  12.095 -0.6276 -0.7609 -2.2774
11605TIP3    H256231   0.402   6.116  12.086 -0.7920  0.7794  0.6805
11606TIP3   OH256232   0.882   4.432  11.498 -0.0502 -0.0795 -0.3291
11606TIP3    H156233   0.898   4.519  11.462  1.1302 -0.3528 -0.5128
11606TIP3    H256234   0.902   4.441  11.591  0.4359 -0.2394 -0.4167
11607TIP3   OH256235   0.298   0.093  15.241  0.2167 -0.1954  0.5822
11607TIP3    H156236   0.259   0.177  15.264 -1.5501  0.2204 -3.2359
11607TIP3    H256237   0.280   0.037  15.317 -0.8878  2.1165  2.1483
11608TIP3   OH256238   0.939   1.344  14.482  0.0599 -0.0946 -0.0492
11608TIP3    H156239   0.861   1.350  14.537  0.8185  1.4319  0.9463
11608TIP3    H256240   0.999   1.290  14.533  0.2690  0.1893  0.0100
11609TIP3   OH256241   6.018   5.817  11.886 -0.6204 -0.4671 -0.0243
11609TIP3    H156242   6.009   5.726  11.914 -1.1143 -0.6887 -0.8779
11609TIP3    H256243   5.941   5.861  11.923 -0.1048 -0.2710  0.8390
11610TIP3   OH256244   0.863   5.446  13.306  0.8613  0.5322  0.4056
11610TIP3    H156245   0.901   5.524  13.266  1.6182  0.4058  0.8521
11610TIP3    H256246   0.769   5.458  13.299  0.9774  1.1729 -0.1271
11611TIP3   OH256247   5.050   3.185  14.556 -0.3246 -0.1727 -0.3983
11611TIP3    H156248   5.109   3.124  14.511  0.0320  0.2893 -0.5748
11611TIP3    H256249   5.070   3.270  14.516  0.6781  0.4200  1.2545
11612TIP3   OH256250   1.586   5.038   4.372 -0.1717  0.2790 -0.0449
11612TIP3    H156251   1.563   4.975   4.303 -1.8613  1.4732 -0.6452
11612TIP3    H256252   1.602   5.120   4.325  0.6419  0.6400  0.8364
11613TIP3   OH256253   3.410   3.538  15.758  0.0263  0.0991 -0.2901
11613TIP3    H156254   3.481   3.601  15.748 -0.4104  0.4128 -1.5243
11613TIP3    H256255   3.354   3.574  15.827 -0.1276  0.9859 -0.8715
11614TIP3   OH256256   5.391   6.643  11.645  0.3005 -0.1847  0.5284
11614TIP3    H156257   5.412   6.625  11.553  2.2390  1.7164  0.5075
11614TIP3    H256258   5.444   6.581  11.695 -1.8714 -2.2458  0.4423
11615TIP3   OH256259   6.675   3.027   5.650  0.1255  0.1946 -0.2224
11615TIP3    H156260   6.672   2.945   5.599  0.7917 -1.0245  1.6037
11615TIP3    H256261   6.583   3.054   5.656 -0.2166 -0.9481 -0.0523
11616TIP3   OH256262   4.834   0.822  11.999 -0.1316  0.2856  0.0228
11616TIP3    H156263   4.869   0.908  12.022  2.4507 -0.4576 -0.8903
11616TIP3    H256264   4.885   0.760  12.051 -1.9163 -0.7692  0.6204
11617TIP3   OH256265   3.016   1.893   3.759 -0.0327  0.3289 -0.4934
11617TIP3    H156266   3.047   1.983   3.752  1.1035  0.3352  2.8928
11617TIP3    H256267   2.926   1.901   3.790 -0.7881  0.2476 -2.5415
11618TIP3   OH256268   4.440   5.904  15.951  0.0774  0.3631 -0.3325
11618TIP3    H156269   4.458   5.932  15.861  2.7707  0.1228  0.0484
11618TIP3    H256270   4.482   5.970  16.006  0.4531 -0.7052  0.7036
11619TIP3   OH256271   3.093   3.569  16.873 -0.4455  0.0829  0.2236
11619TIP3    H156272   3.131   3.596  16.789 -0.2906 -1.7103 -0.3168
11619TIP3    H256273   3.024   3.507  16.850 -2.2505  1.5713  1.3261
11620TIP3   OH256274   1.467   0.123   3.880 -0.2015 -0.0257  0.3838
11620TIP3    H156275   1.441   0.211   3.852 -0.3316  0.4455  1.9145
11620TIP3    H256276   1.442   0.118   3.972  0.7532 -1.2997  0.6075
11621TIP3   OH256277   1.059   3.428   2.255 -0.7681  0.0893  0.0770
11621TIP3    H156278   0.995   3.368   2.293 -2.3363  0.7635 -1.3594
11621TIP3    H256279   1.143   3.401   2.292 -1.2554 -3.4189 -0.9897
11622TIP3   OH256280   5.155   0.662   3.127 -0.0210 -0.5661  0.0151
11622TIP3    H156281   5.066   0.662   3.094  0.2444  0.6425 -0.8139
11622TIP3    H256282   5.201   0.726   3.072  1.3898 -1.2608  0.3212
11623TIP3   OH256283   5.185   3.696  13.935  0.8576  0.3780 -0.0256
11623TIP3    H156284   5.197   3.747  13.855  0.6745 -2.1055 -1.7678
11623TIP3    H256285   5.100   3.653  13.923  0.8132 -0.0225  1.5405
11624TIP3   OH256286   5.612   5.657  13.956 -0.8008  0.3043  0.7168
11624TIP3    H156287   5.696   5.617  13.976 -1.1343 -1.0531 -0.4511
11624TIP3    H256288   5.558   5.586  13.922 -1.7659  1.5493 -0.4966
11625TIP3   OH256289   0.109   0.608  16.212 -0.0269 -0.4540  0.2753
11625TIP3    H156290   0.078   0.649  16.293  0.1843  1.6502 -0.6241
11625TIP3    H256291   0.034   0.613  16.153  0.4972  0.1587 -0.3606
11626TIP3   OH256292   2.997   5.199   2.978  0.4579 -0.4736 -0.1713
11626TIP3    H156293   2.977   5.185   2.886 -0.3950 -0.8737  0.0697
11626TIP3    H256294   2.982   5.293   2.993 -0.2785 -0.5775 -0.2326
11627TIP3   OH256295   3.482   4.492  10.453 -0.3950 -0.3434 -0.1291
11627TIP3    H156296   3.560   4.543  10.475 -1.1655  1.6750 -1.6533
11627TIP3    H256297   3.409   4.550  10.476 -1.4168 -1.6428  0.0269
11628TIP3   OH256298   6.070   3.414  11.309 -0.1070  0.2686  0.2692
11628TIP3    H156299   6.024   3.482  11.357  0.2914  0.1047  0.8944
11628TIP3    H256300   6.130   3.461  11.252  0.4446  0.4511  0.9793
11629TIP3   OH256301   6.079   5.103   2.768 -0.2585 -0.0605 -0.2364
11629TIP3    H156302   6.095   5.128   2.677  1.2865  0.7747  0.2322
11629TIP3    H256303   6.080   5.186   2.816 -1.7858 -0.4175  0.4665
11630TIP3   OH256304   1.481   3.748  14.700  0.1456 -0.3000  0.0756
11630TIP3    H156305   1.410   3.802  14.734  0.2337  0.2845 -0.6400
11630TIP3    H256306   1.548   3.750  14.768 -0.5331 -0.8834  0.7715
11631TIP3   OH256307   2.426   2.894  12.988  0.4004  0.0953  0.3333
11631TIP3    H156308   2.353   2.832  12.992 -1.3127  1.8950 -0.9051
11631TIP3    H256309   2.493   2.849  12.937 -0.5691 -0.9547 -0.0596
11632TIP3   OH256310   1.287   4.304  12.935  0.0992  0.6884 -0.2488
11632TIP3    H156311   1.231   4.366  12.889  1.6651  1.6666 -0.9209
11632TIP3    H256312   1.321   4.353  13.010  0.1099  0.1273  0.1222
11633TIP3   OH256313   0.406   6.170  13.797 -0.4395  0.2300  0.0282
11633TIP3    H156314   0.431   6.262  13.806  0.0512  0.5142 -3.3118
11633TIP3    H256315   0.317   6.172  13.762 -0.5942 -0.6236  0.3345
11634TIP3   OH256316   6.377   1.938   2.655  0.0523 -0.2653  0.4175
11634TIP3    H156317   6.285   1.952   2.678  0.0365  1.6187 -0.5805
11634TIP3    H256318   6.378   1.851   2.614 -1.5239  0.1843 -0.6712
11635TIP3   OH256319   0.808   2.837   4.173  0.5319 -0.3735 -0.1480
11635TIP3    H156320   0.844   2.831   4.084 -0.0685  0.4044 -0.4598
11635TIP3    H256321   0.784   2.929   4.182 -1.0321 -0.7918  0.1819
11636TIP3   OH256322   1.848   3.920  16.276 -0.2228 -0.6219  0.4280
11636TIP3    H156323   1.913   3.866  16.322 -0.7152 -0.2456  1.6001
11636TIP3    H256324   1.881   3.925  16.186  0.7656 -1.3892  0.7249
11637TIP3   OH256325   5.849   2.340  14.773 -0.1663 -0.4958  0.5326
11637TIP3    H156326   5.942   2.318  14.783  0.1760  1.3380  2.0210
11637TIP3    H256327   5.843   2.380  14.687  0.4483 -0.5934  0.4382
11638TIP3   OH256328   5.668   5.469   6.606  0.5658 -0.2082  0.8383
11638TIP3    H156329   5.646   5.557   6.576 -1.2319 -1.3861 -1.6642
11638TIP3    H256330   5.752   5.449   6.563 -0.4727 -0.7282 -1.0662
11639TIP3   OH256331   1.914   2.802   4.334  0.5265 -0.2442  0.8267
11639TIP3    H156332   1.961   2.727   4.371  1.4111  0.1300  0.4663
11639TIP3    H256333   1.957   2.879   4.372 -0.6029  0.1015  1.4753
11640TIP3   OH256334   1.053   4.520  15.124  0.1697  0.1107 -0.2827
11640TIP3    H156335   1.108   4.453  15.082  1.3136  0.7004  0.2254
11640TIP3    H256336   1.109   4.557  15.192 -0.7422  0.9991  0.0017
11641TIP3   OH256337   3.237   5.333  15.910 -0.4841 -0.2108 -0.0148
11641TIP3    H156338   3.322   5.300  15.880 -1.4616 -0.0801 -3.3686
11641TIP3    H256339   3.249   5.428  15.919  0.2641 -0.4386  1.8781
11642TIP3   OH256340   6.742   2.460  13.944 -0.0527  0.2385  0.0148
11642TIP3    H156341   6.786   2.542  13.919  0.5579 -0.1559 -0.2174
11642TIP3    H256342   6.810   2.393  13.938 -0.5093 -0.2640  0.3662
11643TIP3   OH256343   4.023   3.255  16.690  0.3053 -0.0523  0.3586
11643TIP3    H156344   4.103   3.277  16.737  0.1947 -0.3526  0.6871
11643TIP3    H256345   3.992   3.339  16.656  0.8280  0.0427  0.1193
11644TIP3   OH256346   4.094   3.155  10.384 -0.0196  0.1253 -0.5551
11644TIP3    H156347   4.072   3.199  10.466  1.5717  2.5538 -1.3534
11644TIP3    H256348   4.009   3.124  10.351 -1.0582  1.5175  0.6506
11645TIP3   OH256349   2.202   3.716   5.838  0.4189 -0.7083  0.6662
11645TIP3    H156350   2.234   3.730   5.749 -0.6967 -2.6424 -0.0988
11645TIP3    H256351   2.245   3.784   5.890  1.1597  0.4157 -1.3155
11646TIP3   OH256352   4.484   5.733  14.412  0.0271  0.4394  0.0213
11646TIP3    H156353   4.550   5.696  14.470 -1.7970 -3.4956 -0.0676
11646TIP3    H256354   4.413   5.759  14.470 -1.0504 -1.8229 -0.1588
11647TIP3   OH256355   6.248   0.772   3.117  0.9376  0.2309  0.1378
11647TIP3    H156356   6.179   0.805   3.061  0.5682 -0.6726  0.0491
11647TIP3    H256357   6.261   0.681   3.090  0.4299 -0.3798  1.7995
11648TIP3   OH256358   3.212   0.542  11.407 -0.5994 -0.1358  0.9265
11648TIP3    H156359   3.213   0.464  11.463 -0.1784  0.3554  1.6199
11648TIP3    H256360   3.252   0.513  11.325  1.6663 -0.1201  1.9585
11649TIP3   OH256361   6.096   2.493  12.472  0.1298 -0.2910 -0.4559
11649TIP3    H156362   6.096   2.588  12.459 -0.3923 -0.5352 -2.5568
11649TIP3    H256363   6.008   2.473  12.501 -0.1615 -0.2620 -1.2931
11650TIP3   OH256364   1.118   3.488  16.230  0.0531 -0.4166  0.6233
11650TIP3    H156365   1.077   3.511  16.147  1.9163  1.5599  0.1321
11650TIP3    H256366   1.159   3.403  16.214  0.1930 -0.1716 -0.4280
11651TIP3   OH256367   2.659   4.729  12.857 -0.4511  0.1968 -0.1943
11651TIP3    H156368   2.747   4.733  12.821 -0.8139  1.1344 -1.0271
11651TIP3    H256369   2.653   4.804  12.916 -0.9889  0.7245 -0.8966
11652TIP3   OH256370   1.839   0.469  15.225  0.3573 -0.1807 -0.4045
11652TIP3    H156371   1.932   0.452  15.235  0.3665 -0.7455 -1.2853
11652TIP3    H256372   1.833   0.564  15.215  0.5379  0.1796  2.3118
11653TIP3   OH256373   6.634   4.550   3.934 -0.3067  0.0775 -0.2148
11653TIP3    H156374   6.689   4.479   3.968 -1.2769 -0.1995  0.8166
11653TIP3    H256375   6.656   4.554   3.841  1.3966 -0.0754  0.1555
11654TIP3   OH256376   6.816   1.967   1.807  0.2062  0.4830  0.2839
11654TIP3    H156377   6.894   2.002   1.852  0.0756 -0.4641  1.2856
11654TIP3    H256378   6.793   1.889   1.857  0.3846 -0.9500 -1.7954
11655TIP3   OH256379   4.771   5.044  15.985  0.1429  0.1110 -0.2369
11655TIP3    H156380   4.850   5.066  15.934  0.3725  0.3015  0.1918
11655TIP3    H256381   4.791   5.076  16.073  1.2877 -3.4985  0.9781
11656TIP3   OH256382   2.369   6.610   2.892  0.3366 -0.1977  0.3772
11656TIP3    H156383   2.397   6.676   2.829  0.2997 -0.5057  0.0287
11656TIP3    H256384   2.442   6.548   2.896 -0.6311 -1.5453 -1.2889
11657TIP3   OH256385   4.734   2.680  14.728 -0.6428 -0.1411  0.0092
11657TIP3    H156386   4.750   2.756  14.672 -0.4375 -0.2941 -0.1436
11657TIP3    H256387   4.745   2.714  14.817  1.3803 -0.3848 -0.0907
11658TIP3   OH256388   3.428   5.149   1.126 -0.0684 -0.4097 -0.2056
11658TIP3    H156389   3.351   5.154   1.069  0.7214 -0.4775 -1.3039
11658TIP3    H256390   3.492   5.099   1.076  0.5965 -0.6293  0.8235
11659TIP3   OH256391   1.979   4.440  11.739  0.0315  0.0159  0.1630
11659TIP3    H156392   1.924   4.517  11.750 -0.7866 -0.3520 -1.1989
11659TIP3    H256393   1.947   4.378  11.804 -0.6316  0.1051 -0.0695
11660TIP3   OH256394   1.556   0.272   2.689 -0.5881  0.3084 -0.1754
11660TIP3    H156395   1.470   0.298   2.657 -0.1394 -1.0769 -2.7694
11660TIP3    H256396   1.542   0.190   2.735 -0.5942 -0.1987 -1.0744
11661TIP3   OH256397   4.145   0.865  11.478  0.0928 -0.5418 -0.5683
11661TIP3    H156398   4.193   0.782  11.489 -2.2991 -2.1149 -1.2195
11661TIP3    H256399   4.066   0.854  11.530 -0.4803  1.1925 -1.0051
11662TIP3   OH256400   0.983   2.004   4.822 -0.5391 -0.5094  0.5275
11662TIP3    H156401   0.927   2.000   4.744 -0.3040 -1.8062  0.3989
11662TIP3    H256402   1.051   1.938   4.806  2.3349  2.4053 -0.2598
11663TIP3   OH256403   1.495   6.431   5.953 -0.0824  0.1844  0.2029
11663TIP3    H156404   1.487   6.403   6.044 -1.7956  1.2725  0.4391
11663TIP3    H256405   1.407   6.421   5.917  0.4714  0.1816 -1.2134
11664TIP3   OH256406   6.328   6.485   4.218 -0.1487 -0.7018 -0.0269
11664TIP3    H156407   6.290   6.397   4.224 -0.4734 -0.7475 -2.1857
11664TIP3    H256408   6.254   6.544   4.229 -0.4140 -0.7551 -1.4214
11665TIP3   OH256409   5.275   0.501  12.698  0.2799 -0.6606  0.7077
11665TIP3    H156410   5.231   0.585  12.705  0.4851 -0.6919  2.9049
11665TIP3    H256411   5.208   0.441  12.666  0.1972  0.3301 -1.1471
11666TIP3   OH256412   5.761   4.188   1.187  0.0726  0.0630  0.6151
11666TIP3    H156413   5.696   4.128   1.153  0.7775 -0.3656 -0.0012
11666TIP3    H256414   5.720   4.275   1.180  0.1296 -0.0283 -1.1804
11667TIP3   OH256415   1.184   4.619   1.039 -0.1328  0.5473 -0.5850
11667TIP3    H156416   1.134   4.675   1.099  0.4631  1.1982 -0.6788
11667TIP3    H256417   1.229   4.557   1.095  0.1809  0.9612 -0.3741
11668TIP3   OH256418   1.590   4.072   4.671  0.0086  0.0710 -0.0457
11668TIP3    H156419   1.511   4.026   4.642 -0.0599  1.3234 -2.0054
11668TIP3    H256420   1.558   4.157   4.701  0.5869  0.5325 -0.7146
11669TIP3   OH256421   2.767   6.602  11.520 -0.1364 -0.1007  0.8127
11669TIP3    H156422   2.689   6.631  11.568 -0.2550  0.2411  0.4154
11669TIP3    H256423   2.831   6.672  11.534 -0.1597 -0.0160  0.5053
11670TIP3   OH256424   6.134   0.067   3.078 -0.0420 -0.7012 -0.3969
11670TIP3    H156425   6.184  -0.015   3.084  1.2239  0.0929  0.4730
11670TIP3    H256426   6.048   0.045   3.113  0.5715 -1.4466  0.7011
11671TIP3   OH256427   4.048   1.430  11.387 -0.0122 -0.3781  0.1266
11671TIP3    H156428   4.022   1.489  11.317 -0.8196 -2.0535 -1.0307
11671TIP3    H256429   3.972   1.375  11.402  1.2013 -2.1259  0.1190
11672TIP3   OH256430   0.019   3.303   3.305 -0.0421 -0.1362 -0.7023
11672TIP3    H156431   0.039   3.212   3.330 -0.3694  0.3726  1.6565
11672TIP3    H256432  -0.062   3.323   3.352  1.4530  2.1981  1.0842
11673TIP3   OH256433   4.838   4.602   4.448 -0.2077  0.2886  0.6910
11673TIP3    H156434   4.759   4.592   4.501 -0.6907  0.4398  0.0125
11673TIP3    H256435   4.816   4.560   4.365  0.1103  1.0997  0.1880
11674TIP3   OH256436   4.755   5.192   1.835 -0.1178 -0.1367  0.5140
11674TIP3    H156437   4.695   5.187   1.909 -0.4241  0.0194  0.2808
11674TIP3    H256438   4.832   5.237   1.869 -0.7539  1.0691  0.4269
11675TIP3   OH256439   3.894   3.917   0.974 -0.0563  0.8683 -0.8848
11675TIP3    H156440   3.939   3.964   1.044  1.0114  2.0132 -2.2859
11675TIP3    H256441   3.906   3.824   0.995  1.1853  1.1784 -0.1333
11676TIP3   OH256442   0.479   4.455   0.998  0.2390  0.0930  0.2017
11676TIP3    H156443   0.462   4.369   0.959  1.7751  0.8249 -2.3448
11676TIP3    H256444   0.392   4.494   1.008 -0.3992 -1.2999  0.3007
11677TIP3   OH256445   6.243   2.490   4.690  0.6566 -0.1740 -0.2488
11677TIP3    H156446   6.241   2.586   4.698 -0.1176 -0.0925 -1.3441
11677TIP3    H256447   6.220   2.472   4.599 -0.8301 -1.4690  0.3412
11678TIP3   OH256448   6.608   2.699  14.329  0.2471 -0.3573  0.1755
11678TIP3    H156449   6.564   2.765  14.276  0.3568 -1.3935 -1.2664
11678TIP3    H256450   6.676   2.747  14.376  1.4335  0.3469 -2.1209
11679TIP3   OH256451   6.797   6.537  15.149 -0.3626  0.1469  0.4962
11679TIP3    H156452   6.846   6.591  15.211  2.2998 -1.3769 -0.1465
11679TIP3    H256453   6.863   6.485  15.104 -2.3631 -0.2392 -2.2727
11680TIP3   OH256454   4.215   1.245  17.036 -1.1755  0.4803  0.2480
11680TIP3    H156455   4.170   1.161  17.026 -1.2865  0.4961  0.6029
11680TIP3    H256456   4.199   1.291  16.954 -0.8954  0.0526 -0.0513
11681TIP3   OH256457   0.250   4.980  16.835  0.3322 -0.3893  0.1672
11681TIP3    H156458   0.330   4.982  16.783 -1.1313 -0.1682 -2.2157
11681TIP3    H256459   0.212   4.894  16.819  0.1442 -0.5671  1.4258
11682TIP3   OH256460   5.417   2.385   0.280  0.0758  0.3789 -0.3114
11682TIP3    H156461   5.366   2.436   0.344 -0.4289 -0.9833  0.4169
11682TIP3    H256462   5.487   2.444   0.253 -0.7624  1.6250  0.1353
11683TIP3   OH256463   5.720   1.079  12.968 -0.3498 -0.1132  0.0279
11683TIP3    H156464   5.638   1.095  12.922  0.3726  1.4259 -0.8195
11683TIP3    H256465   5.720   1.142  13.040  0.4339  0.5108 -0.4900
11684TIP3   OH256466   2.035   4.267  16.315 -0.4566  0.4784 -0.2167
11684TIP3    H156467   2.003   4.301  16.231 -0.3607  0.3313 -0.3116
11684TIP3    H256468   1.962   4.218  16.351  0.1134 -1.0889 -1.1069
11685TIP3   OH256469   6.780   0.328   2.571  0.6637  0.8791  0.0999
11685TIP3    H156470   6.749   0.372   2.650 -1.1673  1.1297 -0.7229
11685TIP3    H256471   6.874   0.348   2.568  0.6138  1.5500  1.7445
11686TIP3   OH256472   3.948   5.401  12.083 -0.4932  0.3038  0.5086
11686TIP3    H156473   3.981   5.474  12.032  0.6680 -0.5295  0.0167
11686TIP3    H256474   3.920   5.337  12.017 -2.2124  0.5849  0.9207
11687TIP3   OH256475   6.177   5.836   4.324 -0.0966  0.2996  0.0842
11687TIP3    H156476   6.100   5.889   4.345  0.0659  0.6690 -0.2358
11687TIP3    H256477   6.189   5.780   4.401 -1.2662 -0.4622 -0.2552
11688TIP3   OH256478   6.667   1.613  13.574  0.3043  0.2056 -0.4366
11688TIP3    H156479   6.668   1.694  13.523 -1.6091  0.5601  0.0141
11688TIP3    H256480   6.584   1.572  13.552  0.4638 -0.7623  0.6737
11689TIP3   OH256481   4.738   3.936   2.876 -0.5018 -0.0445  0.1667
11689TIP3    H156482   4.697   3.898   2.798 -1.0073  1.0509 -0.1243
11689TIP3    H256483   4.700   4.024   2.883  0.1288  0.1689  1.1975
11690TIP3   OH256484   2.911   1.494   5.535 -0.1094  0.4131 -0.0247
11690TIP3    H156485   2.890   1.511   5.627 -1.0369 -1.2872  0.1227
11690TIP3    H256486   2.836   1.527   5.487  0.3003  1.1468 -0.1793
11691TIP3   OH256487   3.818   1.417  11.878 -0.3662 -0.6869 -0.1635
11691TIP3    H156488   3.723   1.410  11.868 -0.3334 -2.5612  0.5354
11691TIP3    H256489   3.854   1.370  11.802  0.0114 -0.3362 -0.2092
11692TIP3   OH256490   2.079   6.525  13.120  0.2170 -0.1890  0.1741
11692TIP3    H156491   2.063   6.435  13.148  1.2771 -0.9570 -1.5127
11692TIP3    H256492   2.085   6.574  13.201  1.1888 -1.9246  1.2199
11693TIP3   OH256493   0.731   0.566  12.618  0.1938 -0.4291  0.2741
11693TIP3    H156494   0.774   0.492  12.576  0.3516 -0.1795 -0.0096
11693TIP3    H256495   0.797   0.603  12.676 -0.4789 -1.6778  1.9133
11694TIP3   OH256496   1.183   3.481   3.632 -0.4474  0.4086  0.2112
11694TIP3    H156497   1.228   3.564   3.646  0.0798 -0.0106  1.0735
11694TIP3    H256498   1.232   3.438   3.561 -0.2515  0.4895  0.2987
11695TIP3   OH256499   2.338   3.236   4.832  0.2650  0.2088 -0.2998
11695TIP3    H156500   2.318   3.327   4.856 -1.1059  0.1177 -1.0138
11695TIP3    H256501   2.304   3.227   4.743 -0.5662 -1.2891  0.1317
11696TIP3   OH256502   3.653   4.511   3.234  0.0566  0.2169 -0.1316
11696TIP3    H156503   3.715   4.465   3.177 -0.1189 -0.9270  0.5626
11696TIP3    H256504   3.597   4.441   3.269 -2.6626  1.3284 -1.9261
11697TIP3   OH256505   4.442   4.303  15.915 -0.1489 -0.2469 -0.1417
11697TIP3    H156506   4.514   4.240  15.911 -0.5253 -0.7308  0.4948
11697TIP3    H256507   4.474   4.374  15.970 -0.5477 -1.0141  1.1357
11698TIP3   OH256508   5.668   3.529  16.956  0.1006 -0.2615  0.0092
11698TIP3    H156509   5.745   3.566  16.999 -0.0133 -1.0110  0.8907
11698TIP3    H256510   5.650   3.588  16.882  1.6019 -0.1571 -0.2979
11699TIP3   OH256511   6.500   6.269  10.193  0.4176 -0.2270 -0.7194
11699TIP3    H156512   6.523   6.362  10.199  0.7804 -0.3885  0.8304
11699TIP3    H256513   6.554   6.227  10.260 -0.9102 -1.3399 -0.3142
11700TIP3   OH256514   3.401   6.682  12.711 -0.2028 -0.2713 -0.3080
11700TIP3    H156515   3.322   6.687  12.656 -0.1633 -0.7901 -0.4146
11700TIP3    H256516   3.443   6.767  12.699 -1.9296  0.9429  1.5453
11701TIP3   OH256517   1.587   3.230  12.417  0.2997  0.0850 -0.0562
11701TIP3    H156518   1.606   3.136  12.419 -0.3011 -0.0384  1.9672
11701TIP3    H256519   1.493   3.236  12.436  0.1705  1.0939 -0.8852
11702TIP3   OH256520   0.426   6.673  11.660 -0.3985  0.5228  0.1672
11702TIP3    H156521   0.337   6.637  11.653 -0.0140 -0.8485  1.6901
11702TIP3    H256522   0.462   6.665  11.571 -1.4268  0.0506 -0.2216
11703TIP3   OH256523   3.627   0.345  11.832 -0.4997  0.0270  0.0920
11703TIP3    H156524   3.568   0.404  11.879  0.7451 -0.3353  2.2594
11703TIP3    H256525   3.650   0.279  11.896  2.2008  0.1268 -0.6616
11704TIP3   OH256526   0.387   5.989   1.987  0.0320 -0.5821  0.7110
11704TIP3    H156527   0.350   5.901   1.976 -0.3275 -0.2896 -0.5868
11704TIP3    H256528   0.322   6.048   1.948  1.8442 -0.0657 -1.8564
11705TIP3   OH256529   5.352   1.792  14.347  0.3793  0.2955  0.1441
11705TIP3    H156530   5.416   1.771  14.279  0.1131  2.0092 -0.7073
11705TIP3    H256531   5.268   1.783  14.303  0.1194 -0.1651  0.7305
11706TIP3   OH256532   0.248   5.803   2.305  0.1029  0.3658 -0.4239
11706TIP3    H156533   0.194   5.793   2.383  0.8267  1.2469  0.2133
11706TIP3    H256534   0.199   5.863   2.249 -0.4738 -0.3621 -0.7075
11707TIP3   OH256535   3.317   2.429  16.254 -0.0442 -0.0897  0.0304
11707TIP3    H156536   3.351   2.480  16.328 -0.3075 -0.8324  0.6719
11707TIP3    H256537   3.230   2.401  16.282 -1.7406  2.6625 -1.9822
11708TIP3   OH256538   3.942   6.067  14.111  0.1439  0.0685 -0.1150
11708TIP3    H156539   3.891   6.033  14.185  1.1418  2.3425  1.7430
11708TIP3    H256540   3.885   6.133  14.071 -0.2982 -0.9865 -1.3157
11709TIP3   OH256541   2.641   5.349   4.096  0.3407 -0.3933 -0.2290
11709TIP3    H156542   2.709   5.300   4.143  0.2623  0.9079  1.3027
11709TIP3    H256543   2.685   5.426   4.062  0.3705 -1.2557 -2.2970
11710TIP3   OH256544   4.536   1.821   2.680  0.7248  0.0180  0.3057
11710TIP3    H156545   4.496   1.735   2.693  0.5719  0.3140  2.0627
11710TIP3    H256546   4.599   1.808   2.609 -1.7331 -0.6972 -1.9363
11711TIP3   OH256547   0.853   3.052   1.496 -0.0077 -0.3875 -0.4171
11711TIP3    H156548   0.847   3.135   1.543  0.3903 -0.4613 -0.2348
11711TIP3    H256549   0.762   3.024   1.487 -0.3984  1.4129 -2.9298
11712TIP3   OH256550   0.363   4.178   1.954 -0.2355  0.2630  0.3855
11712TIP3    H156551   0.442   4.163   1.903  0.7929 -0.2271  2.0562
11712TIP3    H256552   0.393   4.179   2.045 -2.1872 -0.1886  1.0790
11713TIP3   OH256553   4.391   5.091  14.980  0.2023 -0.3232 -0.1849
11713TIP3    H156554   4.379   5.137  14.897 -0.1010 -1.0732 -0.5688
11713TIP3    H256555   4.423   5.004  14.954 -1.7178 -1.2371  0.3634
11714TIP3   OH256556   4.252   4.601  16.750  0.4378 -0.0400  0.1988
11714TIP3    H156557   4.193   4.548  16.697  0.5885 -0.7505  0.7281
11714TIP3    H256558   4.194   4.656  16.803  0.2913  1.0897 -1.0867
11715TIP3   OH256559   4.591   1.829  13.136  0.1880 -0.7829 -0.1057
11715TIP3    H156560   4.623   1.757  13.191  2.0160  0.1186  0.0902
11715TIP3    H256561   4.599   1.796  13.047 -0.6431 -1.4383  0.0493
11716TIP3   OH256562   4.666   0.850   0.919  0.2477  0.0007  0.0438
11716TIP3    H156563   4.673   0.814   0.830  0.6359  2.2495 -0.9105
11716TIP3    H256564   4.751   0.830   0.959  0.2478 -0.6071 -0.2422
11717TIP3   OH256565   3.529   5.426   5.755  0.3057  0.2356  0.0362
11717TIP3    H156566   3.441   5.450   5.726  0.3586  0.8019  0.3268
11717TIP3    H256567   3.514   5.361   5.823  0.1340 -0.1017 -0.3203
11718TIP3   OH256568   0.855   2.167  11.522 -0.0732 -0.7901  0.0881
11718TIP3    H156569   0.867   2.097  11.458 -0.6316 -0.5172 -0.3256
11718TIP3    H256570   0.769   2.148  11.561  0.6311 -1.4374  1.3709
11719TIP3   OH256571   2.594   2.723   0.289  0.2777  0.0371  0.9095
11719TIP3    H156572   2.591   2.633   0.323  1.0863  0.3659  1.8800
11719TIP3    H256573   2.553   2.776   0.356 -0.7227  0.3448  0.0837
11720TIP3   OH256574   3.572   2.764   4.312 -0.2259 -0.0432 -0.2437
11720TIP3    H156575   3.647   2.752   4.371 -1.0378  0.3736  0.9069
11720TIP3    H256576   3.501   2.716   4.354 -1.0977  1.1505 -0.3215
11721TIP3   OH256577   6.001   6.032   3.817  0.2213 -0.2613 -0.0433
11721TIP3    H156578   6.017   5.974   3.742  1.2251 -0.8081  0.5897
11721TIP3    H256579   6.010   5.976   3.894 -0.9699  0.2605  0.5017
11722TIP3   OH256580   6.807   0.391   4.010 -0.2931  0.3823  0.2227
11722TIP3    H156581   6.728   0.373   3.960 -0.2212  2.1281 -0.5773
11722TIP3    H256582   6.789   0.354   4.097 -1.2015 -0.9250 -0.4769
11723TIP3   OH256583   4.360   4.809   2.981 -1.0475 -0.3369  0.4577
11723TIP3    H156584   4.304   4.790   2.906  0.0919  1.1205 -0.8250
11723TIP3    H256585   4.418   4.732   2.987  1.0941  0.8411 -2.3737
11724TIP3   OH256586   4.228   5.660   0.468  0.0919 -0.2868  0.6269
11724TIP3    H156587   4.192   5.574   0.488 -0.6085  0.0335  0.7727
11724TIP3    H256588   4.164   5.699   0.409  0.4054  0.1415  0.5649
11725TIP3   OH256589   3.821   4.277   5.210 -0.4056 -0.2463  0.1963
11725TIP3    H156590   3.792   4.327   5.133  1.7164  1.1317  0.2054
11725TIP3    H256591   3.789   4.328   5.284  0.4653  0.3160  0.2010
11726TIP3   OH256592   0.684   6.629  11.479  0.4420  0.2540 -0.3074
11726TIP3    H156593   0.681   6.538  11.450  1.1875  0.6789 -1.8016
11726TIP3    H256594   0.623   6.675  11.422  1.7397  1.0711 -1.0763
11727TIP3   OH256595   3.935   1.218  15.698  0.5905 -0.1497  0.8011
11727TIP3    H156596   3.840   1.223  15.688  0.6735  0.7308  0.3703
11727TIP3    H256597   3.949   1.142  15.754 -0.3588 -0.3782  0.7485
11728TIP3   OH256598   4.139   4.097  11.771 -0.0443  0.3766  0.2499
11728TIP3    H156599   4.050   4.103  11.807  0.0497 -0.4242  0.6255
11728TIP3    H256600   4.192   4.067  11.844  0.3171 -0.3688 -0.3114
11729TIP3   OH256601   1.946   2.721   4.801  0.0003  0.1216  0.0521
11729TIP3    H156602   1.924   2.631   4.825 -2.6269  0.9810  1.3411
11729TIP3    H256603   1.891   2.774   4.858 -0.0019  2.5181 -2.0226
11730TIP3   OH256604   2.480   5.946   3.365 -0.4814  0.8851  0.2844
11730TIP3    H156605   2.449   5.855   3.362 -1.4711  1.2336 -0.9302
11730TIP3    H256606   2.494   5.963   3.458  0.7687 -0.8326  0.4659
11731TIP3   OH256607   5.896   0.666   2.833  0.5835 -0.2302 -0.1065
11731TIP3    H156608   5.938   0.733   2.887  2.4667  0.1815 -1.9222
11731TIP3    H256609   5.817   0.707   2.799  0.7370  0.4084  0.3047
11732TIP3   OH256610   4.449   5.341   5.236 -0.6124 -0.7576 -0.1697
11732TIP3    H156611   4.510   5.409   5.208 -3.0457  1.2053 -1.0216
11732TIP3    H256612   4.431   5.291   5.157  2.2900 -3.5908  0.7067
11733TIP3   OH256613   3.698   2.748   2.080 -0.0187 -0.1118 -0.4336
11733TIP3    H156614   3.713   2.654   2.092  2.4036  0.1120 -1.1045
11733TIP3    H256615   3.680   2.780   2.168 -2.5294 -1.3848 -0.3961
11734TIP3   OH256616   4.409   0.410  13.583  0.1141 -0.2416  0.2663
11734TIP3    H156617   4.360   0.339  13.624  0.3216 -0.1403  0.7030
11734TIP3    H256618   4.471   0.438  13.651 -0.4202  0.7995  0.3486
11735TIP3   OH256619   5.336   4.528  13.291  0.0364 -0.5889 -0.2240
11735TIP3    H156620   5.368   4.470  13.360 -2.6210 -1.9198  0.0144
11735TIP3    H256621   5.289   4.597  13.338  0.0519 -0.3031 -0.6204
11736TIP3   OH256622   2.389   1.916   5.460  0.2743  0.0164  0.4549
11736TIP3    H156623   2.446   1.966   5.401 -1.7323  2.7223  0.6083
11736TIP3    H256624   2.395   1.826   5.429  1.3229  0.9012 -2.2055
11737TIP3   OH256625   5.122   4.524   5.139 -0.0767  0.0710  0.3186
11737TIP3    H156626   5.042   4.477   5.161 -0.2857  0.1516 -0.2424
11737TIP3    H256627   5.138   4.502   5.047  0.2162  0.5251  0.2561
11738TIP3   OH256628   0.023   6.474  13.914 -0.0405 -0.6675 -0.0024
11738TIP3    H156629   0.002   6.381  13.913  0.6431 -0.8387  0.5108
11738TIP3    H256630  -0.037   6.513  13.851 -0.9487 -1.3178  0.4414
11739TIP3   OH256631   5.095   3.289   0.045  0.0320 -0.4183 -0.6269
11739TIP3    H156632   5.160   3.324   0.105  1.0907 -0.9799 -1.4045
11739TIP3    H256633   5.098   3.194   0.059 -2.1303 -0.3324  0.7986
11740TIP3   OH256634   0.853   3.364  14.744  0.5835 -0.2308  0.5793
11740TIP3    H156635   0.809   3.294  14.696  1.0978 -0.6299  0.6818
11740TIP3    H256636   0.798   3.379  14.821  1.0588 -1.3087  1.1426
11741TIP3   OH256637   1.368   5.151  14.167  0.0327 -0.7141  0.0301
11741TIP3    H156638   1.294   5.104  14.205 -0.1173  0.1531  0.8500
11741TIP3    H256639   1.431   5.159  14.239  0.2710 -0.1311 -0.2373
11742TIP3   OH256640   5.740   0.150   1.301 -0.2147  0.1034  0.3911
11742TIP3    H156641   5.668   0.199   1.261 -0.7275  0.2554  1.4551
11742TIP3    H256642   5.818   0.201   1.280 -0.1621 -0.8545 -2.0849
11743TIP3   OH256643   1.653   6.221   3.854  0.0924 -0.3486  0.4685
11743TIP3    H156644   1.663   6.286   3.923 -1.1188 -0.4587  0.7722
11743TIP3    H256645   1.669   6.137   3.898 -0.9313 -0.4384  0.6931
11744TIP3   OH256646   0.919   6.746  14.290 -0.2533  0.4283 -0.2602
11744TIP3    H156647   0.970   6.719  14.367 -0.7016 -1.1630 -0.4780
11744TIP3    H256648   0.984   6.766  14.223  0.1298 -0.4998 -0.1850
11745TIP3   OH256649   2.969   2.883  12.024 -0.2304  0.1813 -0.3719
11745TIP3    H156650   2.918   2.814  11.983 -0.3400 -0.3267  0.5970
11745TIP3    H256651   3.002   2.935  11.951 -1.2094 -0.1313 -1.0553
11746TIP3   OH256652   5.895   6.677   6.719  0.0549 -0.1135  0.0841
11746TIP3    H156653   5.806   6.700   6.748 -0.2667 -0.1621 -0.8162
11746TIP3    H256654   5.882   6.635   6.634  0.7400 -2.4112  1.0451
11747TIP3   OH256655   1.829   2.861  12.982 -0.0244 -0.4790  0.5816
11747TIP3    H156656   1.866   2.929  13.039 -0.7941  0.6376 -0.2258
11747TIP3    H256657   1.889   2.857  12.908  0.5873 -1.4353  1.1060
11748TIP3   OH256658   1.025   1.896  15.536  0.1436  0.4173  0.4306
11748TIP3    H156659   1.083   1.826  15.566  1.1425  1.1877  0.3735
11748TIP3    H256660   1.061   1.975  15.577 -0.9774  0.9047  0.5204
11749TIP3   OH256661   2.429   6.768   4.888 -0.1943 -0.5470 -0.1159
11749TIP3    H156662   2.496   6.834   4.868 -1.0170 -0.1218 -1.5609
11749TIP3    H256663   2.478   6.686   4.898  0.7903  0.1639  1.2642
11750TIP3   OH256664   1.870   5.134  12.078  0.3082 -0.4290 -0.7501
11750TIP3    H156665   1.946   5.086  12.110  1.4397  0.7439 -1.5664
11750TIP3    H256666   1.906   5.218  12.049 -1.6737  1.3291  1.4630
11751TIP3   OH256667   5.317   5.590   1.438 -0.1895 -0.5540 -0.6252
11751TIP3    H156668   5.370   5.669   1.449  0.4009 -1.0798  0.4785
11751TIP3    H256669   5.360   5.525   1.493 -1.6160 -1.1840 -0.2119
11752TIP3   OH256670   0.021   4.433   5.094 -0.0542 -0.3418  0.1042
11752TIP3    H156671  -0.034   4.501   5.134 -2.8990 -0.3472 -3.2522
11752TIP3    H256672   0.068   4.479   5.024  1.3229 -1.1030  0.4938
11753TIP3   OH256673   0.940   0.208   3.483  0.9612 -0.0672 -0.5593
11753TIP3    H156674   0.857   0.187   3.525  0.8697  0.0910 -0.6590
11753TIP3    H256675   0.990   0.255   3.550  0.7059  0.4324 -0.7163
11754TIP3   OH256676   3.410   3.876   5.920  0.6410 -0.5909  0.2495
11754TIP3    H156677   3.466   3.892   5.996  0.1287  0.5595  0.4007
11754TIP3    H256678   3.392   3.963   5.884 -0.5345 -0.9818 -0.1625
11755TIP3   OH256679   1.237   2.057  15.183  0.0484  0.0247 -0.1377
11755TIP3    H156680   1.145   2.029  15.178  0.5246 -1.5439 -0.3747
11755TIP3    H256681   1.241   2.110  15.263 -1.1755  0.5963 -0.4185
11756TIP3   OH256682   2.047   5.915  14.712  0.1648 -0.0948 -0.0551
11756TIP3    H156683   1.982   5.884  14.649  0.0374  0.9932 -0.4784
11756TIP3    H256684   2.076   5.835  14.757  0.4986 -0.9492 -1.6941
11757TIP3   OH256685   3.664   3.709  11.558 -0.0791 -0.0138  0.3658
11757TIP3    H156686   3.642   3.786  11.505 -3.0803 -1.0605 -0.1301
11757TIP3    H256687   3.582   3.661  11.565  1.3222 -2.3874  2.0039
11758TIP3   OH256688   6.638   6.263   0.922  0.1489 -0.7661 -0.1735
11758TIP3    H156689   6.701   6.244   0.992  0.1376 -0.2718 -0.0202
11758TIP3    H256690   6.559   6.216   0.947 -0.5248  1.0019  1.2309
11759TIP3   OH256691   5.291   0.979  10.936 -0.2390  0.7040 -0.7407
11759TIP3    H156692   5.368   1.021  10.899 -0.0216 -0.8003 -2.1496
11759TIP3    H256693   5.224   0.989  10.868 -0.8514  0.7495 -0.1412
11760TIP3   OH256694   3.614   6.620  12.975  0.2770 -0.3823 -0.4907
11760TIP3    H156695   3.677   6.563  13.019 -0.7593 -1.0543  0.1852
11760TIP3    H256696   3.651   6.635  12.888  1.6624 -0.2363  0.1002
11761TIP3   OH256697   0.437   4.096  14.606 -0.5235 -0.8900 -0.3038
11761TIP3    H156698   0.480   4.098  14.691 -0.3714 -1.1901 -0.3724
11761TIP3    H256699   0.470   4.173  14.560 -0.3689 -0.8990 -0.2053
11762TIP3   OH256700   6.159   4.643   5.300 -0.9169 -0.0998  0.0605
11762TIP3    H156701   6.139   4.718   5.356 -1.4208 -1.3500  1.6491
11762TIP3    H256702   6.174   4.680   5.213 -3.5449  1.5878  0.2404
11763TIP3   OH256703   6.457   2.840   2.246  0.1206  0.1463 -0.3598
11763TIP3    H156704   6.514   2.891   2.304 -0.8540  0.2173  0.5624
11763TIP3    H256705   6.376   2.830   2.295 -0.2640 -0.9414 -1.1867
11764TIP3   OH256706   2.554   4.569   4.147  0.9651  0.1049  0.5662
11764TIP3    H156707   2.571   4.642   4.207 -0.1540  2.3939 -1.7171
11764TIP3    H256708   2.624   4.574   4.083  1.0531 -1.0762  0.5500
11765TIP3   OH256709   2.793   6.565  16.076  0.0260  0.5285  0.4652
11765TIP3    H156710   2.746   6.557  16.159  0.7703 -1.4897  0.7569
11765TIP3    H256711   2.797   6.476  16.042  1.2612  1.0508 -0.8789
11766TIP3   OH256712   4.105   6.267  13.988  0.0827 -0.4613  0.3875
11766TIP3    H156713   4.054   6.213  14.048  2.3123 -2.4445  0.6218
11766TIP3    H256714   4.170   6.310  14.044 -1.2327  2.1338  0.1166
11767TIP3   OH256715   3.671   1.493   2.922 -0.4247  0.6145  0.4832
11767TIP3    H156716   3.667   1.473   2.829 -0.6217 -0.8340  0.7742
11767TIP3    H256717   3.626   1.577   2.931  0.3391  1.1839 -0.8222
11768TIP3   OH256718   1.465   1.086  12.121  0.7311  0.2795  0.3129
11768TIP3    H156719   1.408   1.015  12.151  0.0579 -0.0402 -1.5530
11768TIP3    H256720   1.554   1.055  12.138  0.4180 -0.6513  0.3085
11769TIP3   OH256721   4.553   6.699  15.825 -0.1650 -0.3636 -0.5306
11769TIP3    H156722   4.568   6.624  15.768 -2.3794 -1.1002 -0.2409
11769TIP3    H256723   4.487   6.751  15.780  0.8205  1.0787 -0.3888
11770TIP3   OH256724   5.920   5.020  10.391  0.1680 -0.6882  0.0493
11770TIP3    H156725   5.878   5.029  10.305 -0.4698 -1.2817  0.2912
11770TIP3    H256726   5.937   4.926  10.399  1.1609 -0.5127  0.1474
11771TIP3   OH256727   5.908   0.228   0.583 -0.0230  0.3921 -0.1331
11771TIP3    H156728   5.936   0.319   0.576 -1.4984  0.9250  0.4636
11771TIP3    H256729   5.828   0.223   0.530 -1.1373  0.0141  1.4919
11772TIP3   OH256730   4.009   4.421   0.834 -0.4842  0.1170  0.6638
11772TIP3    H156731   3.932   4.430   0.889 -1.2032  2.0697 -0.5359
11772TIP3    H256732   3.983   4.459   0.750  1.1275 -1.1108 -0.4662
11773TIP3   OH256733   2.884   0.599  12.224 -0.2537 -0.2018 -0.2657
11773TIP3    H156734   2.819   0.548  12.174 -3.2210  0.9036  2.1332
11773TIP3    H256735   2.916   0.539  12.291  0.4499 -0.4460 -0.8110
11774TIP3   OH256736   5.313   5.012  15.872  0.0755  1.1538 -0.0990
11774TIP3    H156737   5.383   4.947  15.867 -0.4841 -0.1686  4.7727
11774TIP3    H256738   5.358   5.094  15.895  0.2318  0.7292  1.1680
11775TIP3   OH256739   3.036   2.666   4.634 -0.2284 -0.2189  0.2279
11775TIP3    H156740   3.003   2.701   4.717  0.6615  0.0724  0.4684
11775TIP3    H256741   2.982   2.708   4.567 -1.4174 -0.9782  0.6752
11776TIP3   OH256742   6.222   1.240   1.902 -0.1150  0.0156 -0.3319
11776TIP3    H156743   6.148   1.228   1.962 -0.0295  0.7277 -0.0761
11776TIP3    H256744   6.186   1.293   1.831  0.3704  1.1558  0.2498
11777TIP3   OH256745   5.742   6.797  12.224 -0.3042 -0.3393 -0.0891
11777TIP3    H156746   5.774   6.707  12.232  1.0265  0.1533  0.4905
11777TIP3    H256747   5.664   6.799  12.279  1.6913 -0.2586  2.9893
11778TIP3   OH256748   4.808   2.171   0.716  0.3630 -0.2610 -0.0434
11778TIP3    H156749   4.764   2.181   0.801 -0.0601  1.2461 -0.4146
11778TIP3    H256750   4.897   2.146   0.739  0.2542  0.1176  0.8624
11779TIP3   OH256751   4.631   4.360  13.632  0.1993  0.3707  0.3500
11779TIP3    H156752   4.693   4.422  13.594 -1.1842  0.5193 -1.8334
11779TIP3    H256753   4.613   4.394  13.719  0.1728  2.5331 -0.4473
11780TIP3   OH256754   0.994   2.854   5.073  0.6256  0.4928  0.3516
11780TIP3    H156755   1.034   2.906   5.142 -0.8788  0.9793  0.9090
11780TIP3    H256756   1.066   2.830   5.015  1.6513  1.5217  1.1691
11781TIP3   OH256757   5.814   5.302   1.045  0.1194 -0.3133  1.4298
11781TIP3    H156758   5.867   5.283   1.122  0.9725 -0.7665  0.7544
11781TIP3    H256759   5.807   5.397   1.043  2.6042 -0.0780  0.4783
11782TIP3   OH256760   3.034   3.918  12.450 -0.5058 -0.0157  0.1045
11782TIP3    H156761   2.999   4.005  12.471 -0.3249  0.2809 -0.7946
11782TIP3    H256762   3.078   3.930  12.366  1.4275 -0.4675  0.9898
11783TIP3   OH256763   2.000   2.370  16.176  0.1559  0.3597 -0.0354
11783TIP3    H156764   1.939   2.322  16.231 -0.3560  1.5833  0.4753
11783TIP3    H256765   2.087   2.349  16.212 -0.1033  0.3304  0.5678
11784TIP3   OH256766   4.779   5.954  15.771 -0.0372 -0.1162  0.3685
11784TIP3    H156767   4.766   5.887  15.704 -0.4833  0.0221  0.3104
11784TIP3    H256768   4.820   5.908  15.844  1.4214 -0.0609 -0.3767
11785TIP3   OH256769   6.103   4.146  12.299  0.2626 -0.1096  0.2468
11785TIP3    H156770   6.165   4.191  12.241 -0.7943 -1.6084 -2.2094
11785TIP3    H256771   6.156   4.080  12.344  0.4955 -1.6784 -2.1560
11786TIP3   OH256772   6.297   2.975  13.341 -0.1655  0.0577  0.0719
11786TIP3    H156773   6.289   2.882  13.321  0.6500  0.0069 -0.0542
11786TIP3    H256774   6.368   2.980  13.406 -1.0781  0.4659  1.0791
11787TIP3   OH256775   0.681   5.576   0.416  0.1752  0.0762 -0.1295
11787TIP3    H156776   0.587   5.588   0.430  0.0499 -0.2918 -0.6293
11787TIP3    H256777   0.692   5.585   0.321  0.4896 -0.8504 -0.1914
11788TIP3   OH256778   6.752   2.238   4.380  0.6521 -0.1048 -0.1239
11788TIP3    H156779   6.670   2.248   4.428  0.4683 -1.0175 -0.2313
11788TIP3    H256780   6.807   2.310   4.411 -1.2207  2.4714 -2.2969
11789TIP3   OH256781   0.730   3.566   5.288  0.0822 -0.3194  0.7719
11789TIP3    H156782   0.645   3.561   5.243 -0.2555  2.5590  0.9075
11789TIP3    H256783   0.772   3.644   5.251  0.5547  1.1511  4.0551
11790TIP3   OH256784   0.585   5.181   0.665  0.1598 -0.0248 -0.3708
11790TIP3    H156785   0.674   5.171   0.700  0.1064 -0.0804 -0.2492
11790TIP3    H256786   0.597   5.190   0.571  0.1384 -2.8587 -0.7332
11791TIP3   OH256787   4.391   0.870   5.871  0.2671 -0.3003 -0.0039
11791TIP3    H156788   4.310   0.840   5.829 -0.1705 -2.8096  2.3468
11791TIP3    H256789   4.362   0.908   5.954  1.1624  3.8815 -1.3671
11792TIP3   OH256790   0.919   1.682   2.861 -0.6349  0.5402 -0.0572
11792TIP3    H156791   0.860   1.709   2.790 -2.1035 -0.6648  0.6471
11792TIP3    H256792   0.891   1.593   2.883  1.6762 -0.2149  0.1121
11793TIP3   OH256793   6.123   0.352  11.834 -0.1905 -0.0754 -0.3862
11793TIP3    H156794   6.218   0.352  11.844 -0.0719 -0.4365 -1.4445
11793TIP3    H256795   6.107   0.389  11.747 -1.0538  0.5425  0.0210
11794TIP3   OH256796   6.144   0.258  15.117  0.3378  0.0676  0.5914
11794TIP3    H156797   6.219   0.209  15.084  0.7077  1.2062 -0.3060
11794TIP3    H256798   6.075   0.193  15.126  0.9390 -0.6916 -0.1600
11795TIP3   OH256799   4.179   4.449  12.777 -0.0111  0.2897  0.3038
11795TIP3    H156800   4.172   4.537  12.813 -2.4045  0.7606 -1.0319
11795TIP3    H256801   4.272   4.437  12.759  0.5426  1.9988  1.7651
11796TIP3   OH256802   0.460   2.339   2.637 -0.3930 -0.1468 -0.8641
11796TIP3    H156803   0.470   2.265   2.577  0.3941 -0.1105 -0.7887
11796TIP3    H256804   0.545   2.384   2.634 -1.0730  1.1544 -1.4342
11797TIP3   OH256805   2.772   5.187  11.441  0.1930 -0.2108 -0.4293
11797TIP3    H156806   2.867   5.199  11.438  0.1049  1.0956  0.9773
11797TIP3    H256807   2.761   5.095  11.465  1.1093 -0.2385 -0.0610
11798TIP3   OH256808   6.164   3.806   5.257  0.1503  0.5456  0.3027
11798TIP3    H156809   6.245   3.855   5.270  0.9470 -1.0144  1.5100
11798TIP3    H256810   6.175   3.726   5.308 -1.8724 -0.0444 -0.0784
11799TIP3   OH256811   1.828   0.577  11.768 -0.4521  0.9557 -0.1782
11799TIP3    H156812   1.845   0.520  11.693  0.6600  2.5057 -1.1665
11799TIP3    H256813   1.890   0.547  11.835 -1.8991 -0.8610  0.4049
11800TIP3   OH256814   0.825   5.579  15.965 -0.3853  0.1290 -0.8279
11800TIP3    H156815   0.822   5.521  16.041 -1.2690  0.0114 -0.9489
11800TIP3    H256816   0.915   5.611  15.964 -0.5684  0.8129  0.7793
11801TIP3   OH256817   1.202   6.239   2.522 -0.8174  0.2396 -0.1844
11801TIP3    H156818   1.201   6.254   2.616  0.4844  0.2486 -0.1431
11801TIP3    H256819   1.268   6.170   2.510 -0.8620  0.3455 -1.0967
11802TIP3   OH256820   0.825   0.139  16.608 -0.0824 -0.4733 -0.2773
11802TIP3    H156821   0.820   0.131  16.703  1.6762  0.9280 -0.0074
11802TIP3    H256822   0.919   0.136  16.588 -0.4522 -1.8260 -2.1097
11803TIP3   OH256823   3.161   4.895   2.943 -0.0987 -0.4852  0.3464
11803TIP3    H156824   3.154   4.878   2.849  0.1329 -2.1078  0.5876
11803TIP3    H256825   3.216   4.972   2.949 -1.3849  0.5947 -0.8930
11804TIP3   OH256826   4.169   3.074  10.784 -1.0033 -0.3067 -0.3689
11804TIP3    H156827   4.104   3.139  10.758 -0.3333  0.4363 -0.2361
11804TIP3    H256828   4.123   2.990  10.779 -2.1603  0.2586  0.3699
11805TIP3   OH256829   3.663   1.008  15.761 -0.5206  0.2169 -0.3462
11805TIP3    H156830   3.639   1.067  15.832 -0.5027 -0.6653  0.4176
11805TIP3    H256831   3.699   0.931  15.805  0.5358  0.1060 -1.3491
11806TIP3   OH256832   3.300   4.228   4.461  0.1197 -0.3086  0.2742
11806TIP3    H156833   3.286   4.142   4.500 -0.0067  0.2218  1.4320
11806TIP3    H256834   3.390   4.224   4.428  0.8680 -0.2291  2.1618
11807TIP3   OH256835   5.787   4.181   1.518  0.1413 -0.1341 -0.0600
11807TIP3    H156836   5.795   4.091   1.550 -1.3911 -0.3103 -0.0759
11807TIP3    H256837   5.833   4.181   1.434  1.6600 -0.4296  0.7314
11808TIP3   OH256838   6.586   6.142  16.448  0.2092 -0.2366  0.6007
11808TIP3    H156839   6.657   6.128  16.510  0.5535 -1.4871 -0.0567
11808TIP3    H256840   6.547   6.056  16.435 -0.1497  0.0751 -0.5607
11809TIP3   OH256841   3.254   4.172  14.060  0.0731 -0.2992 -0.5349
11809TIP3    H156842   3.346   4.174  14.034  0.0228 -1.2533 -0.8247
11809TIP3    H256843   3.225   4.083  14.039 -0.6773 -0.2878  0.3870
11810TIP3   OH256844   2.332   3.406   1.334 -0.4166 -0.7542 -0.3210
11810TIP3    H156845   2.311   3.497   1.315  1.9469 -0.0201  0.3435
11810TIP3    H256846   2.263   3.378   1.394  0.3762  1.5429  1.8108
11811TIP3   OH256847   2.604   6.496   4.978  0.2987 -0.4001  0.5458
11811TIP3    H156848   2.674   6.475   5.040  0.6843  1.9752  0.9765
11811TIP3    H256849   2.637   6.570   4.928 -1.7672  0.6052  0.5611
11812TIP3   OH256850   2.922   5.609  12.261  0.3142 -0.7298 -0.0466
11812TIP3    H156851   2.884   5.536  12.310 -1.6380 -0.2397 -0.7246
11812TIP3    H256852   2.904   5.686  12.316  1.2444 -0.5894  0.0770
11813TIP3   OH256853   5.521   2.645   1.333  0.2334 -0.2183 -0.4478
11813TIP3    H156854   5.515   2.740   1.327  1.2150 -0.1481 -0.4910
11813TIP3    H256855   5.537   2.617   1.243 -1.8302 -0.5917 -0.7419
11814TIP3   OH256856   0.546   0.842  16.423 -0.0815 -0.4100  0.3228
11814TIP3    H156857   0.518   0.778  16.358 -1.1172 -1.2756  1.5660
11814TIP3    H256858   0.637   0.862  16.400  0.1263 -2.0065 -0.3402
11815TIP3   OH256859   1.763   2.654   5.944 -0.0871  0.1908  0.2699
11815TIP3    H156860   1.669   2.653   5.962  0.2713  0.9230  2.4439
11815TIP3    H256861   1.795   2.571   5.979  0.3251  0.7522  1.2699
11816TIP3   OH256862   5.549   4.312  11.676 -0.2546  0.0617 -0.0235
11816TIP3    H156863   5.625   4.370  11.677 -0.5274  0.4244 -0.1263
11816TIP3    H256864   5.552   4.266  11.760  1.1642 -1.3552 -0.7708
11817TIP3   OH256865   5.154   0.177  14.343 -0.4107  0.0004 -1.0999
11817TIP3    H156866   5.169   0.269  14.320  1.6333  0.4726  1.5743
11817TIP3    H256867   5.074   0.178  14.395 -0.1873  0.3483 -0.7558
11818TIP3   OH256868   0.854   6.787   5.394 -0.6215 -0.0345 -0.2331
11818TIP3    H156869   0.777   6.834   5.427 -1.3086 -1.3485  0.1245
11818TIP3    H256870   0.823   6.744   5.314 -0.7318 -1.7837  0.7008
11819TIP3   OH256871   5.075   1.806   0.581  0.1209  0.4071 -0.1378
11819TIP3    H156872   5.094   1.855   0.501 -1.2787  0.5717 -0.3946
11819TIP3    H256873   5.078   1.871   0.651  0.7991  0.3644 -0.1184
11820TIP3   OH256874   2.331   5.616  11.475  0.7448 -0.0523 -0.2176
11820TIP3    H156875   2.349   5.700  11.433  1.6904  0.6944  1.5618
11820TIP3    H256876   2.416   5.570  11.475  0.6498 -0.2396  0.4101
11821TIP3   OH256877   2.331   1.214  11.729  0.0612  0.0692  0.6180
11821TIP3    H156878   2.402   1.225  11.665 -0.4899 -1.4826 -0.3050
11821TIP3    H256879   2.355   1.134  11.776 -1.1366 -0.5708  0.1742
11822TIP3   OH256880   0.704   0.657  15.772  0.0828  0.3865 -0.3372
11822TIP3    H156881   0.650   0.603  15.829 -2.8429  0.5057 -2.7674
11822TIP3    H256882   0.651   0.736  15.756  1.2183  0.7959 -2.3825
11823TIP3   OH256883   2.522   2.158   2.047  0.1857  0.4095  0.4313
11823TIP3    H156884   2.617   2.162   2.062  0.7397 -0.2262 -2.4311
11823TIP3    H256885   2.499   2.067   2.066  0.4375  0.1939 -0.2739
11824TIP3   OH256886   4.587   3.880   5.528  0.1414 -0.2196  0.4412
11824TIP3    H156887   4.657   3.883   5.593  1.5388  0.8984 -1.0353
11824TIP3    H256888   4.507   3.865   5.579  1.3705 -0.9402  2.2303
11825TIP3   OH256889   6.673   1.322  13.191 -0.1881 -0.5729 -0.2209
11825TIP3    H156890   6.763   1.294  13.204  0.4282  0.7460 -1.5038
11825TIP3    H256891   6.677   1.388  13.122 -1.9526  0.4919  0.6119
11826TIP3   OH256892   5.548   3.600   4.886 -0.2183  0.2768 -0.2048
11826TIP3    H156893   5.482   3.662   4.917 -2.5215 -2.1127  0.0139
11826TIP3    H256894   5.589   3.568   4.966  0.7856  1.2593 -0.3037
11827TIP3   OH256895   1.159   6.564  13.641  0.1306 -0.0881 -0.4109
11827TIP3    H156896   1.133   6.540  13.553  0.3497  1.1853 -0.8511
11827TIP3    H256897   1.167   6.660  13.638 -0.1347  0.0033  1.0578
11828TIP3   OH256898   1.916   0.145   1.503 -0.3490  0.6676  0.2115
11828TIP3    H156899   1.930   0.148   1.408  0.7468  2.2350  0.3763
11828TIP3    H256900   1.866   0.224   1.522 -0.3400  0.4936  0.9722
11829TIP3   OH256901   2.410   1.889  13.384  0.0410  0.3953  0.4486
11829TIP3    H156902   2.324   1.887  13.426 -0.4483 -0.0494 -0.5320
11829TIP3    H256903   2.405   1.823  13.315  1.5243 -0.3457  1.0073
11830TIP3   OH256904   2.779   3.119  11.127  0.1576 -0.0551  0.0545
11830TIP3    H156905   2.701   3.131  11.073 -0.5409  0.9172  1.2229
11830TIP3    H256906   2.844   3.178  11.089 -0.7519  1.6448  0.9900
11831TIP3   OH256907   5.352   2.242  15.022 -0.5020  0.2780 -0.3034
11831TIP3    H156908   5.299   2.321  15.030  0.2571  0.7245  0.4777
11831TIP3    H256909   5.396   2.234  15.106 -1.1491 -1.4229 -0.0735
11832TIP3   OH256910   3.786   6.109   5.950 -0.8644 -0.0884  0.3698
11832TIP3    H156911   3.835   6.131   5.871 -0.5848 -2.4911 -0.2049
11832TIP3    H256912   3.751   6.021   5.932 -2.1512 -0.0031  2.2815
11833TIP3   OH256913   0.817   3.017  12.430 -0.0531  0.2076 -0.3024
11833TIP3    H156914   0.819   2.922  12.442  1.9320  0.2046 -0.3758
11833TIP3    H256915   0.796   3.029  12.338  0.7762 -0.2100 -0.5561
11834TIP3   OH256916   4.297   3.509   0.998  0.8477 -0.0600 -0.0118
11834TIP3    H156917   4.213   3.503   0.951  0.9354  0.7192 -0.2782
11834TIP3    H256918   4.286   3.583   1.057  1.3169 -0.0099  0.0133
11835TIP3   OH256919   4.619   4.920  10.797 -0.1228 -0.2138  0.2905
11835TIP3    H156920   4.529   4.896  10.820 -0.5992 -1.1149 -2.2803
11835TIP3    H256921   4.669   4.840  10.810 -0.3807 -0.7090 -1.5109
11836TIP3   OH256922   6.131   1.525  15.768 -0.0271  0.0730  0.1492
11836TIP3    H156923   6.109   1.439  15.731  0.2792  0.2549 -0.4644
11836TIP3    H256924   6.106   1.518  15.860 -0.2677 -0.5810  0.0415
11837TIP3   OH256925   1.606   2.406   2.174  0.3682 -0.0972  0.3738
11837TIP3    H156926   1.651   2.485   2.201  0.7017  0.4561 -1.6354
11837TIP3    H256927   1.523   2.436   2.136  1.2751 -0.4537 -2.0953
11838TIP3   OH256928   4.149   1.437  12.348  0.6608  0.0983  0.2882
11838TIP3    H156929   4.060   1.466  12.327  0.9864  1.1092  0.2521
11838TIP3    H256930   4.166   1.366  12.286 -0.1421 -0.1488  0.3362
11839TIP3   OH256931   6.591   6.516  13.768  0.2958  0.2414 -0.7240
11839TIP3    H156932   6.548   6.499  13.685  1.6660 -0.5072 -1.3146
11839TIP3    H256933   6.577   6.436  13.820 -0.0396  0.4662 -0.4650
11840TIP3   OH256934   5.100   4.146   4.569  0.2674  0.1113 -0.1549
11840TIP3    H156935   5.111   4.238   4.592  2.0298  0.2693 -1.3977
11840TIP3    H256936   5.189   4.115   4.554 -0.4459 -1.2299 -1.8590
11841TIP3   OH256937   5.182   1.383   3.095  0.4852  0.3007 -0.1905
11841TIP3    H156938   5.185   1.444   3.169  1.3899 -1.1060  0.9928
11841TIP3    H256939   5.213   1.434   3.021  1.8715  1.1093  0.9025
11842TIP3   OH256940   6.029   2.473   2.822  0.5128 -0.6123  0.0925
11842TIP3    H156941   6.026   2.384   2.858  1.2663 -0.0904  1.4697
11842TIP3    H256942   6.016   2.530   2.897  1.5874  0.4919 -0.5396
11843TIP3   OH256943   1.599   4.780   4.229 -0.0413 -0.1169  0.2765
11843TIP3    H156944   1.514   4.794   4.189 -0.5942 -3.4858  0.0063
11843TIP3    H256945   1.581   4.769   4.322  0.8857  4.5259  1.2504
11844TIP3   OH256946   6.142   1.687   6.146  0.1622  0.2872  0.6063
11844TIP3    H156947   6.157   1.774   6.183 -1.9866  1.3260 -0.7301
11844TIP3    H256948   6.216   1.672   6.088  0.7908  1.0167  1.2012
11845TIP3   OH256949   0.621   1.764  16.659  0.6607 -0.0503  0.3247
11845TIP3    H156950   0.705   1.721  16.640  0.6668  0.8349 -1.9280
11845TIP3    H256951   0.639   1.819  16.734  1.3737 -1.8416  1.5388
11846TIP3   OH256952   4.522   3.644  13.510 -0.3023 -0.6016  0.4411
11846TIP3    H156953   4.563   3.674  13.590  0.9532 -2.5727  0.6002
11846TIP3    H256954   4.445   3.700  13.500 -1.0426 -0.8860  3.5265
11847TIP3   OH256955   6.111   5.125   1.810  0.1545  0.7960 -0.0120
11847TIP3    H156956   6.117   5.030   1.800  1.8377  0.9507 -0.9442
11847TIP3    H256957   6.074   5.138   1.897 -1.5319 -0.6860 -0.4526
11848TIP3   OH256958   2.785   1.627   0.799  0.2309  0.2104  0.0367
11848TIP3    H156959   2.796   1.544   0.752 -1.6478  0.2452 -0.5630
11848TIP3    H256960   2.718   1.674   0.749  0.0855  1.3853  1.2823
11849TIP3   OH256961   5.076   2.957   4.267 -0.3588  0.2986  0.4948
11849TIP3    H156962   4.985   2.975   4.243  0.0224  0.2142 -1.1114
11849TIP3    H256963   5.113   2.913   4.191  1.1961  0.8668  0.8821
11850TIP3   OH256964   4.559   6.514  11.825 -1.0793 -0.2745 -0.2463
11850TIP3    H156965   4.479   6.553  11.863  0.1376  2.6408 -0.4130
11850TIP3    H256966   4.555   6.537  11.732 -0.8230 -1.5736 -0.5925
11851TIP3   OH256967   0.241   1.669   1.457 -0.0947 -0.1360  0.3330
11851TIP3    H156968   0.194   1.587   1.469 -0.1909 -0.1647 -0.2177
11851TIP3    H256969   0.194   1.732   1.510 -0.3992 -0.2973  0.2551
11852TIP3   OH256970   4.733   6.212   4.328 -0.5900 -0.9357 -0.0124
11852TIP3    H156971   4.792   6.159   4.276 -0.0311 -1.4560  1.1129
11852TIP3    H256972   4.735   6.298   4.286  2.3464 -0.4178  0.9410
11853TIP3   OH256973   3.544   4.462  11.519 -0.1178 -0.2718 -0.0486
11853TIP3    H156974   3.569   4.546  11.559  1.0185  0.2424 -1.7562
11853TIP3    H256975   3.501   4.486  11.437 -1.1536 -1.3443  0.1515
11854TIP3   OH256976   6.216   3.232  14.649  0.0076 -0.3113  0.2141
11854TIP3    H156977   6.154   3.190  14.589 -1.7310 -0.7806  2.2006
11854TIP3    H256978   6.301   3.197  14.623 -0.8054 -1.3432 -1.2493
11855TIP3   OH256979   0.740   5.558  15.307  0.4723  0.2591  0.4615
11855TIP3    H156980   0.660   5.569  15.358 -0.0837 -0.6953 -0.1838
11855TIP3    H256981   0.803   5.519  15.368  1.0869  2.7162  1.5186
11856TIP3   OH256982   4.259   6.400   4.422  0.0824  0.2594  0.3052
11856TIP3    H156983   4.170   6.368   4.431  0.2284 -0.0245  0.7580
11856TIP3    H256984   4.285   6.425   4.510  1.3558 -2.1079  0.6967
11857TIP3   OH256985   6.646   0.617   3.726  0.0224  0.3196  0.1531
11857TIP3    H156986   6.646   0.602   3.632  0.6515  0.1959  0.1679
11857TIP3    H256987   6.714   0.683   3.740  1.7095 -1.4357  0.7655
11858TIP3   OH256988   3.740   2.142   0.533  0.4837 -0.1660 -0.0051
11858TIP3    H156989   3.785   2.144   0.448 -0.1620  0.0224 -0.3523
11858TIP3    H256990   3.776   2.065   0.577  1.8929  0.5453  0.1568
11859TIP3   OH256991   2.227   3.644   1.626  0.2694  0.4378  0.0002
11859TIP3    H156992   2.321   3.627   1.625  0.1717 -0.5410  2.0899
11859TIP3    H256993   2.187   3.558   1.635 -0.6430  1.0293  2.4144
11860TIP3   OH256994   0.738   0.768  11.116 -0.2798 -0.5131  1.0590
11860TIP3    H156995   0.714   0.857  11.141  0.0218 -0.3853  0.9070
11860TIP3    H256996   0.819   0.779  11.065  0.5022 -0.9872  2.1664
11861TIP3   OH256997   3.453   0.031   0.547  0.0012  0.4157 -0.2250
11861TIP3    H156998   3.446   0.076   0.463  0.8575 -2.6195 -2.1054
11861TIP3    H256999   3.411  -0.054   0.532  1.8281 -0.9601  1.7822
11862TIP3   OH257000   2.335   1.392   3.893 -0.1394 -0.0157 -0.3966
11862TIP3    H157001   2.401   1.340   3.848  0.8448  2.1148 -1.5823
11862TIP3    H257002   2.252   1.351   3.869  0.3780  0.5086 -3.6428
11863TIP3   OH257003   1.994   2.071   5.208  0.3181 -0.2678 -0.1577
11863TIP3    H157004   1.918   2.129   5.221 -0.0120 -1.2575  3.6697
11863TIP3    H257005   1.957   1.983   5.209  1.4065 -0.7468  1.4617
11864TIP3   OH257006   0.925   1.813  14.871 -0.6076 -0.0543 -0.2935
11864TIP3    H157007   0.832   1.803  14.849 -1.2765 -0.9660  2.5379
11864TIP3    H257008   0.925   1.871  14.947  0.9987 -1.4046  0.7908
11865TIP3   OH257009   1.475   2.428  15.050 -0.3927 -0.1745  0.0997
11865TIP3    H157010   1.485   2.348  14.999 -0.4177 -0.9683  1.2887
11865TIP3    H257011   1.429   2.488  14.991 -0.0816 -0.9118 -0.9323
11866TIP3   OH257012   2.909   0.831  14.564  0.1398 -0.1332 -0.1191
11866TIP3    H157013   2.895   0.745  14.603 -1.5363  1.4081  2.9916
11866TIP3    H257014   2.828   0.851  14.518  0.3460  0.0368 -0.4210
11867TIP3   OH257015   1.682   1.693  13.766  0.0405 -0.4434 -0.1072
11867TIP3    H157016   1.591   1.716  13.786 -0.1862 -0.5205 -1.0247
11867TIP3    H257017   1.724   1.687  13.852 -0.3936  1.2887  0.2613
11868TIP3   OH257018   4.917   2.495  10.383  0.0302 -0.3663  0.2601
11868TIP3    H157019   4.922   2.466  10.292 -3.5305  0.5335 -0.3458
11868TIP3    H257020   5.007   2.489  10.415  1.8111  0.9879 -3.8320
11869TIP3   OH257021   1.446   5.507   1.908 -0.3140 -0.3318 -0.2381
11869TIP3    H157022   1.508   5.434   1.905  0.6028  0.4390 -1.1050
11869TIP3    H257023   1.406   5.502   1.995 -0.5040 -2.0379 -0.4057
11870TIP3   OH257024   5.688   2.108   2.057  0.3102  0.3418 -0.1606
11870TIP3    H157025   5.712   2.015   2.060  0.7170  0.3931 -1.3463
11870TIP3    H257026   5.624   2.119   2.128  0.2754 -0.8339  0.0048
11871TIP3   OH257027   4.146   1.373  15.862  0.3619  0.3202  0.5679
11871TIP3    H157028   4.153   1.321  15.942 -0.1178  1.9455  1.7020
11871TIP3    H257029   4.098   1.317  15.801 -1.1578 -0.1456  2.1378
11872TIP3   OH257030   1.674   2.498   4.126 -0.0243 -0.4755  0.0961
11872TIP3    H157031   1.720   2.470   4.047 -0.4625 -2.4915  0.5147
11872TIP3    H257032   1.596   2.542   4.094  0.5993  0.1574 -0.5897
11873TIP3   OH257033   5.726   2.418  12.501 -0.2488  0.6222  0.5067
11873TIP3    H157034   5.659   2.418  12.433 -0.3332 -0.2526  0.5835
11873TIP3    H257035   5.744   2.326  12.518 -0.7455  0.8026  2.1849
11874TIP3   OH257036   5.130   6.105   3.252 -0.4952  0.1299  0.5009
11874TIP3    H157037   5.080   6.038   3.204 -2.0871  0.3682  1.7319
11874TIP3    H257038   5.169   6.057   3.325 -0.2905  0.2649  0.4804
11875TIP3   OH257039   3.971   2.409  14.862  0.5246 -0.1890  0.2469
11875TIP3    H157040   4.015   2.325  14.874  0.5113 -0.2570 -0.1705
11875TIP3    H257041   3.905   2.412  14.931 -0.0098 -0.8673 -0.2344
11876TIP3   OH257042   0.336   6.221  15.973  0.5115  0.0443 -0.2586
11876TIP3    H157043   0.254   6.190  15.934  0.4846  0.9345 -0.9342
11876TIP3    H257044   0.310   6.296  16.026  0.6706 -0.6507  0.8412
11877TIP3   OH257045   3.182   3.976  12.215  0.1920 -0.4513 -0.4643
11877TIP3    H157046   3.141   4.009  12.135 -1.5869  2.7988  1.5645
11877TIP3    H257047   3.275   3.998  12.205  0.1763 -0.9389 -1.9760
11878TIP3   OH257048   6.212   5.004  12.048 -0.4433  0.3514  0.1665
11878TIP3    H157049   6.243   4.919  12.079 -0.9577  0.0352 -0.1810
11878TIP3    H257050   6.207   4.995  11.953 -2.4214  0.1062  0.2607
11879TIP3   OH257051   0.800   2.883  14.900  0.3746  0.3097 -0.0717
11879TIP3    H157052   0.776   2.968  14.936  0.9449  0.4656 -0.0430
11879TIP3    H257053   0.764   2.882  14.812  0.6215  0.7003 -0.1770
11880TIP3   OH257054   4.198   2.483  15.985  0.2289 -0.5171  0.5502
11880TIP3    H157055   4.274   2.524  15.944  0.7114 -1.5434  0.3918
11880TIP3    H257056   4.189   2.399  15.941 -0.0022 -1.1117  1.6802
11881TIP3   OH257057   1.491   5.729  13.258 -0.5109 -0.5050 -0.2230
11881TIP3    H157058   1.408   5.699  13.295  0.4456 -1.7868  1.0093
11881TIP3    H257059   1.527   5.788  13.324  0.9472 -2.3765  0.7951
11882TIP3   OH257060   0.173   3.794  15.135 -0.3031  0.2566 -0.2822
11882TIP3    H157061   0.152   3.882  15.168  0.4484 -0.0461  1.0955
11882TIP3    H257062   0.090   3.761  15.101 -0.5828  1.5242 -0.9141
11883TIP3   OH257063   5.394   3.447  17.066  0.2769  0.0554  0.6448
11883TIP3    H157064   5.382   3.427  16.973 -3.3024  1.0903  0.7179
11883TIP3    H257065   5.449   3.525  17.067  1.4097 -0.6894 -0.4783
11884TIP3   OH257066   2.737   3.878   2.578 -0.1404 -0.0998  0.3600
11884TIP3    H157067   2.784   3.813   2.526  0.2406 -0.1207  0.7183
11884TIP3    H257068   2.699   3.828   2.650  1.2142  0.2248  1.3537
11885TIP3   OH257069   6.626   4.685   3.343  0.8988 -0.1070  0.3841
11885TIP3    H157070   6.657   4.672   3.254  0.2971  0.4377  0.0895
11885TIP3    H257071   6.646   4.777   3.363 -0.2878  0.1908  0.2718
11886TIP3   OH257072   6.365   4.574   4.023  0.1558  0.0840  0.7378
11886TIP3    H157073   6.339   4.509   3.958 -0.4906  1.8789 -0.8891
11886TIP3    H257074   6.458   4.556   4.039  0.2319 -0.6430 -0.4051
11887TIP3   OH257075   2.489   1.101  10.510 -0.1775  0.1267  0.1934
11887TIP3    H157076   2.505   1.020  10.462  1.5037  1.9911 -2.7580
11887TIP3    H257077   2.575   1.126  10.545 -0.7622  0.4288  1.4808
11888TIP3   OH257078   6.734   0.083   0.190  0.2641  0.1277 -0.4110
11888TIP3    H157079   6.702   0.153   0.133  1.2344 -0.2454 -1.4641
11888TIP3    H257080   6.664   0.068   0.253 -0.2404  1.5665 -0.6047
11889TIP3   OH257081   2.643   0.882  14.519  0.3150  0.0890  0.2025
11889TIP3    H157082   2.611   0.971  14.536 -0.2683 -0.2238  0.7772
11889TIP3    H257083   2.654   0.879  14.423  1.3683  1.1051  0.2765
11890TIP3   OH257084   6.295   6.650  10.672 -0.1520  0.3537 -0.1664
11890TIP3    H157085   6.348   6.709  10.619  1.3933 -0.0477  0.8720
11890TIP3    H257086   6.303   6.565  10.628  0.3557  0.2204  0.1813
11891TIP3   OH257087   3.556   6.767  13.556 -0.1412 -0.1500 -0.7451
11891TIP3    H157088   3.497   6.799  13.487 -0.8886  0.0326 -0.0351
11891TIP3    H257089   3.501   6.761  13.634  0.0012 -2.9656 -0.7597
11892TIP3   OH257090   2.033   2.294  15.119  0.4402 -0.4094  0.4965
11892TIP3    H157091   1.990   2.296  15.205 -2.0976 -2.5697 -0.6070
11892TIP3    H257092   2.078   2.210  15.117  1.2128  0.0115  0.0048
11893TIP3   OH257093   3.624   0.383  15.214 -0.8113  0.4101 -0.2252
11893TIP3    H157094   3.686   0.342  15.275  0.0822  1.6408 -0.2649
11893TIP3    H257095   3.547   0.403  15.268 -1.4613 -1.6479 -0.2935
11894TIP3   OH257096   0.935   0.834   5.440 -0.2788 -0.3735 -0.2290
11894TIP3    H157097   0.999   0.902   5.459 -0.4775 -0.0551 -0.6659
11894TIP3    H257098   0.851   0.874   5.461 -0.4333 -0.3115 -0.9380
11895TIP3   OH257099   2.416   1.980   4.687 -0.3629 -0.2690  0.2698
11895TIP3    H157100   2.345   1.923   4.717  0.1782 -0.4174  1.3024
11895TIP3    H257101   2.386   2.069   4.707 -0.3657 -0.3158  0.4750
11896TIP3   OH257102   0.894   0.901   1.375 -0.3147 -0.2876 -0.5882
11896TIP3    H157103   0.833   0.830   1.397 -0.9591  0.6754  0.9396
11896TIP3    H257104   0.930   0.877   1.290  0.2118 -2.9278  0.2839
11897TIP3   OH257105   1.924   0.835  11.438 -0.0708 -0.2116 -0.2796
11897TIP3    H157106   1.833   0.807  11.427 -0.0194 -0.6190  0.2760
11897TIP3    H257107   1.974   0.774  11.385 -0.0815 -0.3276 -0.1599
11898TIP3   OH257108   6.474   4.270   1.943  0.3319 -0.3576 -0.2357
11898TIP3    H157109   6.558   4.277   1.989  1.3711 -0.0050 -2.1059
11898TIP3    H257110   6.471   4.346   1.886 -0.5802 -1.1293 -1.2618
11899TIP3   OH257111   2.741   3.465   1.692  0.5487 -0.1280  0.0431
11899TIP3    H157112   2.836   3.465   1.682  0.4286 -0.7814 -1.3857
11899TIP3    H257113   2.723   3.535   1.754  1.9576  0.0631  0.2579
11900TIP3   OH257114   4.377   4.277   2.886 -0.2390 -0.0290 -0.3643
11900TIP3    H157115   4.332   4.195   2.905  1.0832 -1.1028 -1.6623
11900TIP3    H257116   4.307   4.342   2.878 -1.3278 -1.0805  0.3971
11901TIP3   OH257117   4.686   2.670   4.513  0.3339  0.0723  0.1237
11901TIP3    H157118   4.590   2.676   4.514  0.1752 -1.9038  1.4079
11901TIP3    H257119   4.713   2.725   4.586  0.0951 -0.3339  0.5216
11902TIP3   OH257120   3.660   5.590   2.937 -0.4950  0.1093 -0.1371
11902TIP3    H157121   3.699   5.504   2.919 -1.7455 -0.4229 -0.4033
11902TIP3    H257122   3.586   5.595   2.876 -0.2951  1.4870 -0.2915
11903TIP3   OH257123   3.593   2.538   0.403 -0.2576 -0.1679 -0.0091
11903TIP3    H157124   3.553   2.500   0.325  2.3302 -0.2304 -1.4089
11903TIP3    H257125   3.526   2.596   0.438 -2.5845 -2.3828 -0.5160
11904TIP3   OH257126   5.468   2.192  13.312 -0.0313  0.1016  0.4519
11904TIP3    H157127   5.563   2.207  13.310  0.1715 -1.0898  0.2589
11904TIP3    H257128   5.430   2.276  13.288  0.9925  0.4994  0.1678
11905TIP3   OH257129   4.370   0.581  13.797  0.5557 -0.2149  0.1721
11905TIP3    H157130   4.351   0.578  13.704 -0.1263 -3.6038  0.3083
11905TIP3    H257131   4.299   0.533  13.839  0.8015  1.2593  2.4964
11906TIP3   OH257132   3.215   3.246   5.000  0.1003 -0.1465  0.0023
11906TIP3    H157133   3.126   3.272   4.976  0.0087 -0.6629 -0.2338
11906TIP3    H257134   3.251   3.322   5.046  0.1957  0.7881 -1.5520
11907TIP3   OH257135   0.332   6.500  15.252  0.2660 -0.0343  0.0162
11907TIP3    H157136   0.267   6.539  15.310 -0.4352  1.8414 -1.9338
11907TIP3    H257137   0.359   6.420  15.298 -2.3216 -0.1363  1.5661
11908TIP3   OH257138   6.323   1.288   2.257  0.0995 -0.5298  0.4707
11908TIP3    H157139   6.292   1.292   2.166  0.1257 -0.8498  0.4500
11908TIP3    H257140   6.350   1.198   2.270  2.0208 -0.0370  0.1712
11909TIP3   OH257141   4.366   0.618  13.373 -0.0199  0.4901  0.3801
11909TIP3    H157142   4.363   0.556  13.446  0.2246 -0.9759 -0.8059
11909TIP3    H257143   4.460   0.630  13.356 -0.0809  0.2930 -0.1167
11910TIP3   OH257144   1.348   5.117  11.897 -0.1256  0.5082 -0.0567
11910TIP3    H157145   1.377   5.058  11.967 -1.4895  1.1407  1.0998
11910TIP3    H257146   1.420   5.117  11.834  0.1734 -1.8906  0.2011
11911TIP3   OH257147   5.178   6.550   3.537  0.2448 -0.1817  0.0695
11911TIP3    H157148   5.090   6.533   3.571  1.0772 -0.7819  2.0452
11911TIP3    H257149   5.219   6.604   3.604  2.5989 -2.9735  1.0891
11912TIP3   OH257150   6.392   5.843   2.446  0.2682 -0.2442  0.1954
11912TIP3    H157151   6.378   5.753   2.417  0.0113  0.7955 -3.4807
11912TIP3    H257152   6.326   5.858   2.514  0.8934 -3.0021  1.5274
11913TIP3   OH257153   2.631   3.556  11.856  0.0539 -0.4633  0.2163
11913TIP3    H157154   2.536   3.544  11.847  0.0653 -0.4009  0.0195
11913TIP3    H257155   2.653   3.622  11.791  0.1677 -0.1768  0.5422
11914TIP3   OH257156   3.365   3.888  14.070 -0.6599  0.2251 -0.2792
11914TIP3    H157157   3.290   3.828  14.075 -1.3042  0.9379 -0.9754
11914TIP3    H257158   3.392   3.900  14.161 -1.5351  0.1164  0.0128
11915TIP3   OH257159   6.801   5.840   5.880 -0.2600  0.0090 -0.0246
11915TIP3    H157160   6.858   5.843   5.804  1.7804  0.6952  1.4406
11915TIP3    H257161   6.768   5.929   5.890 -0.0437  0.0590  0.2428
11916TIP3   OH257162   2.782   0.343   4.599  0.2458 -0.2542  0.5918
11916TIP3    H157163   2.764   0.280   4.529 -1.6080 -0.0001  0.7712
11916TIP3    H257164   2.812   0.422   4.554  0.9438 -0.7191  0.2390
11917TIP3   OH257165   3.310   0.426  11.053  0.4125 -0.6263  0.3509
11917TIP3    H157166   3.401   0.435  11.082  0.0383  1.3492  1.0246
11917TIP3    H257167   3.283   0.515  11.030 -0.4556 -1.5639 -2.7397
11918TIP3   OH257168   3.112   5.115  11.962  1.3308 -0.2732  0.0240
11918TIP3    H157169   3.160   5.192  11.932  0.8848  0.3008  0.7515
11918TIP3    H257170   3.054   5.092  11.890  1.7981 -0.2122 -0.3737
11919TIP3   OH257171   0.210   3.488   5.019  0.3800  0.0803  0.5310
11919TIP3    H157172   0.225   3.496   5.113  1.6064 -2.3140  0.6155
11919TIP3    H257173   0.167   3.570   4.994  2.6830  2.0683  2.6218
11920TIP3   OH257174   0.350   5.154  12.926 -0.0734  0.3374 -0.0854
11920TIP3    H157175   0.297   5.147  13.005 -1.1557 -0.4449 -0.8542
11920TIP3    H257176   0.335   5.243  12.894 -1.5860 -0.1147 -0.7179
11921TIP3   OH257177   0.386   6.376   1.916 -0.0810  0.1491 -0.6346
11921TIP3    H157178   0.463   6.432   1.918 -0.3947  0.5645  1.4944
11921TIP3    H257179   0.421   6.288   1.897  0.5232  0.7855 -2.8399
11922TIP3   OH257180   4.979   0.159  16.128  0.0033  0.2923  0.0973
11922TIP3    H157181   5.002   0.183  16.038  1.0139 -0.5659  0.1169
11922TIP3    H257182   5.061   0.134  16.169 -0.5340  0.0940  1.0938
11923TIP3   OH257183   5.248   3.750   3.003 -0.6381 -0.1378  0.3923
11923TIP3    H157184   5.218   3.665   2.970  0.3242  0.0727 -1.1226
11923TIP3    H257185   5.168   3.797   3.026 -1.2740 -0.8192 -0.3755
11924TIP3   OH257186   2.326   4.733   3.960 -0.6013  0.2049 -0.7750
11924TIP3    H157187   2.400   4.735   3.899  0.1500 -0.7055  0.0565
11924TIP3    H257188   2.250   4.757   3.907  0.0477 -0.4246 -2.0359
11925TIP3   OH257189   6.640   0.143   6.092 -0.2755 -0.1156  0.9825
11925TIP3    H157190   6.717   0.172   6.042  0.6049 -1.5994  1.4322
11925TIP3    H257191   6.609   0.223   6.135  0.0868  0.8162 -0.4088
11926TIP3   OH257192   2.656   5.362   5.409 -0.0069  0.0219  0.4336
11926TIP3    H157193   2.584   5.412   5.447  0.2448 -0.0201  0.9768
11926TIP3    H257194   2.619   5.274   5.395 -0.3819  0.2902 -0.3163
11927TIP3   OH257195   6.453   6.436   0.657  0.3464  0.2293 -0.1930
11927TIP3    H157196   6.443   6.397   0.744 -0.0112  0.8670  0.0544
11927TIP3    H257197   6.378   6.404   0.608  0.0241  0.6343  0.0260
11928TIP3   OH257198   3.428   0.903  12.240 -0.1662  0.1152  0.1571
11928TIP3    H157199   3.335   0.917  12.222  0.2693  2.3207 -0.8142
11928TIP3    H257200   3.439   0.808  12.241 -2.0165 -0.2131 -2.0367
11929TIP3   OH257201   0.355   3.240   1.997 -0.0110  0.2686 -0.0066
11929TIP3    H157202   0.318   3.323   2.026 -1.5934 -0.4076 -0.0295
11929TIP3    H257203   0.291   3.204   1.936  0.9428 -0.6847 -0.4967
11930TIP3   OH257204   0.382   3.239  12.963  0.1235  0.0864  0.1119
11930TIP3    H157205   0.306   3.190  12.994  0.8415 -0.4048  1.1484
11930TIP3    H257206   0.396   3.207  12.874  0.0009 -0.8979  0.4353
11931TIP3   OH257207   3.916   2.701  12.835  0.2508  0.0786  0.0926
11931TIP3    H157208   3.963   2.785  12.839  3.2488 -1.4945  0.7304
11931TIP3    H257209   3.914   2.671  12.926 -2.5568  0.2795  0.1635
11932TIP3   OH257210   2.743   5.059  13.727  0.0980  0.4132  0.1550
11932TIP3    H157211   2.787   5.061  13.812  0.6585  0.7148 -0.1348
11932TIP3    H257212   2.714   4.968  13.716  1.0732  0.0905  0.1444
11933TIP3   OH257213   5.237   3.758  12.677  0.3854 -0.6164 -0.4457
11933TIP3    H157214   5.321   3.726  12.711  1.1245 -1.3054 -2.7005
11933TIP3    H257215   5.227   3.844  12.716  1.9249 -0.7167  0.2579
11934TIP3   OH257216   2.572   3.041   1.724 -0.1981 -0.0150 -0.7423
11934TIP3    H157217   2.644   2.992   1.764 -1.2052  0.0765  1.3099
11934TIP3    H257218   2.511   2.973   1.694 -0.7377 -0.0882  0.4553
11935TIP3   OH257219   6.201   5.016  13.430  0.0832  0.1542 -0.1736
11935TIP3    H157220   6.184   5.098  13.385  2.3989  0.9759  0.3066
11935TIP3    H257221   6.238   4.958  13.363  0.6201  0.3198 -0.0281
11936TIP3   OH257222   5.432   3.326  13.208 -0.6879  0.2236  0.2099
11936TIP3    H157223   5.396   3.276  13.134 -1.0075  0.6587  0.0695
11936TIP3    H257224   5.377   3.404  13.213  0.1210  0.8113  0.1071
11937TIP3   OH257225   1.093   5.116  11.853 -0.0205  0.1278 -0.1004
11937TIP3    H157226   1.059   5.085  11.937  0.6076 -3.7205 -1.0900
11937TIP3    H257227   1.187   5.125  11.867 -0.1322  1.3097  0.0332
11938TIP3   OH257228   1.545   5.783   2.242  0.3601  0.2412 -0.0966
11938TIP3    H157229   1.497   5.843   2.184 -0.1002  0.1863  0.2257
11938TIP3    H257230   1.503   5.794   2.328  0.4787 -0.3109  0.0347
11939TIP3   OH257231   1.640   0.090   4.736  0.2764 -0.2801  0.1269
11939TIP3    H157232   1.642   0.129   4.823 -0.2918 -0.1253  0.0742
11939TIP3    H257233   1.629  -0.003   4.751 -1.8094 -0.0573  0.1995
11940TIP3   OH257234   1.620   5.110  13.055  0.8112  0.2891 -0.3502
11940TIP3    H157235   1.578   5.168  13.118 -1.6551 -0.2217 -1.3744
11940TIP3    H257236   1.660   5.168  12.991 -1.6876  0.9790 -1.4088
11941TIP3   OH257237   2.177   1.565   4.053 -0.2092  0.1634  0.1518
11941TIP3    H157238   2.221   1.515   3.986 -0.1290 -2.1989  1.8480
11941TIP3    H257239   2.225   1.648   4.056  1.2764 -0.6005 -1.0567
11942TIP3   OH257240   3.424   5.858   3.348  0.7593  0.3781 -0.6057
11942TIP3    H157241   3.404   5.794   3.415  0.1723 -0.1232 -1.2435
11942TIP3    H257242   3.450   5.806   3.272  1.4052  0.9325 -0.7789
11943TIP3   OH257243   2.667   3.882  12.673  0.0680 -0.2126  0.4725
11943TIP3    H157244   2.671   3.914  12.583 -0.0244  0.0710  0.5694
11943TIP3    H257245   2.651   3.788  12.664 -1.9245  0.1047  0.2123
11944TIP3   OH257246   3.377   5.661   5.299  0.4035  0.1943 -0.2811
11944TIP3    H157247   3.382   5.687   5.207  0.0177  1.4097  0.0112
11944TIP3    H257248   3.400   5.568   5.300  2.7550  0.6970 -1.3050
11945TIP3   OH257249   5.116   3.171  16.024  0.1485 -0.1471  0.2055
11945TIP3    H157250   5.199   3.218  16.013  0.9993 -1.7587 -0.6636
11945TIP3    H257251   5.140   3.089  16.067 -1.0191 -0.5375  0.1529
11946TIP3   OH257252   5.568   0.478   0.258 -0.4097  0.3931  0.1510
11946TIP3    H157253   5.570   0.401   0.202  2.4944  0.5122 -0.0746
11946TIP3    H257254   5.487   0.469   0.308 -1.7520 -1.0974 -2.1069
11947TIP3   OH257255   3.310   0.274  11.863  0.8631  0.1772  0.3506
11947TIP3    H157256   3.300   0.369  11.853  2.7724  0.6426  2.1051
11947TIP3    H257257   3.221   0.241  11.873  0.2218  1.9692  0.9300
11948TIP3   OH257258   3.878   2.427  11.715  0.1861  0.2718  0.0472
11948TIP3    H157259   3.907   2.394  11.629 -0.9936  0.8343 -0.5986
11948TIP3    H257260   3.784   2.443  11.703 -0.1297 -0.2322  1.6450
11949TIP3   OH257261   4.959   6.632  15.293 -0.5095  0.3802 -0.1378
11949TIP3    H157262   4.906   6.591  15.362 -1.2837 -0.4994 -1.2184
11949TIP3    H257263   4.896   6.684  15.242 -0.1184  0.2791 -0.7349
11950TIP3   OH257264   1.706   1.995  11.708  0.2966  0.0376 -0.2354
11950TIP3    H157265   1.667   1.927  11.653 -1.2851  0.1920  0.6088
11950TIP3    H257266   1.727   1.951  11.790  0.0172  0.3662  0.0230
11951TIP3   OH257267   1.719   4.476   1.581  0.0392  0.4486  0.7704
11951TIP3    H157268   1.636   4.428   1.582  1.8004 -2.9789  0.3198
11951TIP3    H257269   1.727   4.508   1.491  0.4798 -1.9136 -0.1076
11952TIP3   OH257270   1.135   0.155   1.253 -0.6901  0.0807  0.5127
11952TIP3    H157271   1.048   0.176   1.286 -0.3518  0.5835  1.1009
11952TIP3    H257272   1.169   0.237   1.219  0.0326  0.1645  1.4075
11953TIP3   OH257273   4.279   2.966  15.822  0.4800  0.0008 -0.3853
11953TIP3    H157274   4.329   2.982  15.902 -1.0759  0.4622  0.5437
11953TIP3    H257275   4.222   2.893  15.845 -0.1524  0.3017 -0.9877
11954TIP3   OH257276   4.076   4.449  14.681 -0.1306  0.3590 -0.4023
11954TIP3    H157277   4.105   4.398  14.756  0.8378  2.7704  0.9965
11954TIP3    H257278   4.125   4.413  14.606  1.5157  0.0948  0.7559
11955TIP3   OH257279   1.486   0.700   3.363  0.0783  0.2290  0.5340
11955TIP3    H157280   1.519   0.634   3.302 -0.1630  2.3472 -2.0681
11955TIP3    H257281   1.485   0.656   3.448  2.2030 -2.3277 -0.6188
11956TIP3   OH257282   1.117   2.930   4.686  0.8466  0.0757  0.1845
11956TIP3    H157283   1.194   2.956   4.636  1.3540 -0.1774  0.8136
11956TIP3    H257284   1.078   2.859   4.635  0.2031  1.1488 -0.8640
11957TIP3   OH257285   1.869   6.510  10.927 -0.6239  0.2127 -0.7550
11957TIP3    H157286   1.923   6.498  10.849  1.2611  1.6090  0.2433
11957TIP3    H257287   1.902   6.444  10.989  0.8470  1.7950  0.2542
11958TIP3   OH257288   1.166   1.533   3.678 -0.8865 -0.4305 -0.0692
11958TIP3    H157289   1.236   1.487   3.633  0.7490  1.5060  0.3491
11958TIP3    H257290   1.085   1.494   3.643  0.3553 -2.0200 -1.3261
11959TIP3   OH257291   1.589   4.549  14.510  0.5351 -0.4197  0.0371
11959TIP3    H157292   1.503   4.556  14.469  0.4250 -1.8113 -0.0330
11959TIP3    H257293   1.645   4.606  14.457 -0.1227 -0.3107 -0.5689
11960TIP3   OH257294   1.813   6.417  12.933 -0.3930  0.4188 -0.3347
11960TIP3    H157295   1.832   6.511  12.929 -0.0709  0.3476 -0.5383
11960TIP3    H257296   1.899   6.375  12.938 -0.5768  0.1988  1.5463
11961TIP3   OH257297   0.603   1.939  13.756  0.1448 -0.1613  0.0100
11961TIP3    H157298   0.657   1.883  13.812  0.6886  0.6048  0.2738
11961TIP3    H257299   0.618   1.906  13.668  0.6399 -0.2901  0.1363
11962TIP3   OH257300   3.972   0.420  11.762 -0.2408  0.0958  0.5143
11962TIP3    H157301   3.975   0.510  11.794  0.0245 -0.0525  0.9095
11962TIP3    H257302   3.966   0.429  11.667  4.5529  0.5954  0.0205
11963TIP3   OH257303   4.290   1.001  12.114  0.2627 -0.2489  0.0486
11963TIP3    H157304   4.358   0.947  12.076 -0.7055 -0.3935 -1.5708
11963TIP3    H257305   4.260   1.057  12.042 -0.6633  0.4930  0.9645
11964TIP3   OH257306   4.304   4.214  12.064  0.1862 -0.4240 -0.0263
11964TIP3    H157307   4.362   4.285  12.092 -1.1440  0.4781  0.5113
11964TIP3    H257308   4.351   4.173  11.991  0.4253  1.8350 -1.2542
11965TIP3   OH257309   3.450   6.695   3.265 -0.1386  0.3175  0.3610
11965TIP3    H157310   3.462   6.629   3.333  0.4335 -0.5170 -0.5058
11965TIP3    H257311   3.476   6.777   3.306  0.1092 -0.1536  1.1745
11966TIP3   OH257312   6.711   1.135   2.237 -0.0607  0.2012 -0.0129
11966TIP3    H157313   6.792   1.141   2.287  0.9536 -1.1530 -1.4034
11966TIP3    H257314   6.649   1.093   2.297  1.0073 -1.0073  0.2960
11967TIP3   OH257315   5.592   1.120  15.251 -0.0810  0.4305  0.6698
11967TIP3    H157316   5.516   1.177  15.240  0.5977  1.1556 -0.4972
11967TIP3    H257317   5.647   1.164  15.315 -0.5818 -0.0481  1.4449
11968TIP3   OH257318   6.594   3.174  13.704  0.1918  0.3528  0.4894
11968TIP3    H157319   6.562   3.243  13.762 -2.0172 -0.4501  0.3531
11968TIP3    H257320   6.602   3.097  13.761  2.1504  0.5450  0.5391
11969TIP3   OH257321   0.912   0.269   2.457  0.4323 -0.6243  0.0610
11969TIP3    H157322   0.898   0.265   2.552  0.7035  1.7241  0.2542
11969TIP3    H257323   0.956   0.352   2.443 -0.9915 -0.1863 -2.2956
11970TIP3   OH257324   3.911   0.837  10.984 -0.4701 -0.3561 -0.1480
11970TIP3    H157325   3.830   0.796  11.013 -1.4176  0.1856 -1.8953
11970TIP3    H257326   3.894   0.862  10.893  2.1467 -1.5458 -1.0561
11971TIP3   OH257327   4.208   0.614  11.838 -0.1274  0.0639  0.3632
11971TIP3    H157328   4.118   0.633  11.863 -0.1833  0.3072 -0.0047
11971TIP3    H257329   4.251   0.700  11.834 -0.0723  0.0189 -0.1588
11972TIP3   OH257330   4.341   3.433   3.466 -0.2552  0.2355 -0.4219
11972TIP3    H157331   4.400   3.423   3.392 -0.9984 -0.6056 -0.9173
11972TIP3    H257332   4.299   3.518   3.452 -1.5407 -0.5749 -1.8524
11973TIP3   OH257333   5.277   2.790   3.586  0.1385 -0.8238  0.7426
11973TIP3    H157334   5.288   2.695   3.595  1.4065 -0.8097 -0.3667
11973TIP3    H257335   5.196   2.801   3.538  0.1642 -1.3650  0.5744
11974TIP3   OH257336   0.967   2.490   2.024 -0.0896 -0.2384 -0.5253
11974TIP3    H157337   0.968   2.431   1.949 -0.2088 -1.5804  0.4875
11974TIP3    H257338   0.882   2.475   2.065 -1.1524  2.3934 -1.5334
11975TIP3   OH257339   5.805   4.094   6.563 -0.3773  0.3789  0.0378
11975TIP3    H157340   5.811   4.025   6.498 -1.2063  0.7467 -0.4474
11975TIP3    H257341   5.886   4.087   6.614 -0.2751 -0.6755 -0.2621
11976TIP3   OH257342   2.530   2.769  15.023  0.0293  0.8212  0.1842
11976TIP3    H157343   2.469   2.838  15.048  0.5558  1.8794 -1.2867
11976TIP3    H257344   2.565   2.798  14.938  0.1597 -1.3262 -0.5486
11977TIP3   OH257345   3.429   5.744   1.905  0.0473  0.0250 -0.3818
11977TIP3    H157346   3.463   5.789   1.827 -0.0484  1.7769  0.5221
11977TIP3    H257347   3.342   5.713   1.879 -0.0249  0.6865 -0.9697
11978TIP3   OH257348   3.428   6.109   0.554  0.7511 -0.0344  0.1768
11978TIP3    H157349   3.380   6.186   0.585  1.1771  0.9946 -1.5938
11978TIP3    H257350   3.500   6.098   0.616 -0.8627 -0.7038  2.0107
11979TIP3   OH257351   1.550   2.984   3.091  0.1603  0.3056  0.2353
11979TIP3    H157352   1.564   2.916   3.158  1.3261  0.5115  0.2208
11979TIP3    H257353   1.612   2.962   3.021 -1.2091 -0.0411 -0.9096
11980TIP3   OH257354   5.051   3.224  10.994  0.1511  0.2868 -0.5918
11980TIP3    H157355   5.079   3.161  10.928 -0.8928  0.5831 -1.3469
11980TIP3    H257356   4.984   3.178  11.044 -1.0455  0.9524 -1.5251
11981TIP3   OH257357   0.063   2.856  11.816  0.0685  0.4898 -0.3518
11981TIP3    H157358   0.086   2.947  11.833 -1.0034  0.5649  0.8406
11981TIP3    H257359   0.094   2.839  11.727  3.1033  1.0692  0.4759
11982TIP3   OH257360   2.228   6.531  16.683 -0.2725  0.0632 -0.0100
11982TIP3    H157361   2.135   6.524  16.660 -0.4809 -1.8487  1.1788
11982TIP3    H257362   2.274   6.519  16.600 -1.0737 -1.0358 -0.3178
11983TIP3   OH257363   3.527   5.535   3.836  0.0720  0.4946 -0.5225
11983TIP3    H157364   3.520   5.589   3.914  0.7521  0.7676 -0.6423
11983TIP3    H257365   3.540   5.598   3.764  0.3202  0.2060 -0.7352
11984TIP3   OH257366   4.128   2.403   3.815  0.1982 -0.0514  0.8301
11984TIP3    H157367   4.094   2.492   3.805 -0.6956 -0.3940  0.8027
11984TIP3    H257368   4.179   2.406   3.896 -0.2881  0.3473  1.1292
11985TIP3   OH257369   3.991   6.528   2.638  0.5232 -0.7582  0.5401
11985TIP3    H157370   3.931   6.492   2.704  0.4719  0.3062  1.0980
11985TIP3    H257371   4.037   6.598   2.684  0.0894  0.3847 -0.7027
11986TIP3   OH257372   4.019   1.550   3.670 -0.1212 -0.8827 -0.0843
11986TIP3    H157373   4.016   1.578   3.579  0.5745 -0.4702  0.0189
11986TIP3    H257374   3.946   1.596   3.711  0.6121  0.2780 -0.0614
11987TIP3   OH257375   3.807   1.805  11.761  0.0636 -0.0583  0.1560
11987TIP3    H157376   3.845   1.893  11.755 -1.1497  0.5499  1.0561
11987TIP3    H257377   3.861   1.752  11.702  0.9632  1.2264 -0.2267
11988TIP3   OH257378   1.715   5.297  15.376  0.2532 -0.2652 -0.2468
11988TIP3    H157379   1.636   5.316  15.427  0.3265 -0.0544 -0.2114
11988TIP3    H257380   1.782   5.353  15.414  0.1021  0.5335 -1.1173
11989TIP3   OH257381   6.313   3.143  13.667  0.1548 -0.2279  0.5851
11989TIP3    H157382   6.234   3.197  13.663 -0.1005 -0.5806  0.8086
11989TIP3    H257383   6.380   3.202  13.701  0.0624  0.1542  0.1236
11990TIP3   OH257384   3.672   6.696  12.382  0.1821 -0.0616  0.2223
11990TIP3    H157385   3.636   6.616  12.343 -0.7171  0.2028  0.4796
11990TIP3    H257386   3.751   6.667  12.428 -0.1319 -0.8044  0.3097
11991TIP3   OH257387   6.478   1.472  14.405 -0.0493  0.4793  0.5918
11991TIP3    H157388   6.515   1.522  14.332 -2.4558  1.6894  0.1031
11991TIP3    H257389   6.437   1.396  14.364  0.6611 -0.1206  0.9745
11992TIP3   OH257390   2.745   5.840   4.171  0.0554 -0.0171  0.0271
11992TIP3    H157391   2.784   5.927   4.165  0.7620 -0.3928 -1.4036
11992TIP3    H257392   2.773   5.807   4.256  4.3839 -0.8634 -1.4499
11993TIP3   OH257393   2.509   2.438  10.558  0.2392  0.0857 -0.4799
11993TIP3    H157394   2.460   2.435  10.640  0.1130  1.0554 -0.5117
11993TIP3    H257395   2.594   2.475  10.582  0.2022  0.3703 -0.7841
11994TIP3   OH257396   1.042   5.510  14.525  0.0726 -0.3565 -0.0585
11994TIP3    H157397   1.129   5.532  14.493  0.6322 -1.5736  0.5604
11994TIP3    H257398   0.994   5.482  14.447  0.0715  0.7362 -0.4732
11995TIP3   OH257399   5.402   4.859  15.581  0.0752  0.2602 -0.2171
11995TIP3    H157400   5.389   4.815  15.497 -0.5537  1.4442 -0.7619
11995TIP3    H257401   5.349   4.810  15.643 -1.1362  0.6106 -0.9456
11996TIP3   OH257402   5.150   1.750   5.684  0.3166 -0.1009 -0.3940
11996TIP3    H157403   5.081   1.685   5.691 -0.8884  1.2708  1.7371
11996TIP3    H257404   5.136   1.791   5.598 -0.0894 -1.3468 -0.9388
11997TIP3   OH257405   4.250   6.728  12.314 -0.0510 -0.0726 -0.2527
11997TIP3    H157406   4.253   6.816  12.275 -3.3942  1.2267  1.9072
11997TIP3    H257407   4.317   6.731  12.383 -0.3495  0.9506  0.0199
11998TIP3   OH257408   5.025   1.815   5.441  0.5651  0.1107  0.2277
11998TIP3    H157409   4.940   1.859   5.433  0.0853 -0.6132  1.0987
11998TIP3    H257410   5.079   1.854   5.373 -0.6718  0.1208 -0.7897
11999TIP3   OH257411   3.689   2.728   2.684 -0.1075  0.1990  0.7960
11999TIP3    H157412   3.772   2.748   2.641 -0.0022 -0.7210  0.5502
11999TIP3    H257413   3.624   2.777   2.635  0.3843  1.6284  1.5336
12000TIP3   OH257414   2.829   2.743  16.427 -0.5227  0.2625 -0.0345
12000TIP3    H157415   2.833   2.689  16.349  0.5694  0.9804 -0.5002
12000TIP3    H257416   2.913   2.730  16.470 -1.6284 -1.2395  1.8325
12001TIP3   OH257417   4.631   3.339   3.034 -0.2755 -0.2736 -0.6001
12001TIP3    H157418   4.687   3.405   2.993 -0.8775  1.0569  0.6069
12001TIP3    H257419   4.681   3.258   3.030  0.1169  0.0221 -2.9361
12002TIP3   OH257420   5.652   2.702   3.531  0.1193  0.0938  0.5914
12002TIP3    H157421   5.685   2.614   3.548 -0.1181  0.1895  1.6062
12002TIP3    H257422   5.647   2.743   3.617  0.9703  1.3773  0.0523
12003TIP3   OH257423   4.509   6.784  13.268  0.2279  0.3394 -0.2329
12003TIP3    H157424   4.534   6.706  13.318  1.2893  1.5483  1.2104
12003TIP3    H257425   4.515   6.856  13.331 -0.8928  1.5877 -1.4804
12004TIP3   OH257426   2.616   5.388  11.504  0.4329  0.3283 -0.2607
12004TIP3    H157427   2.626   5.427  11.418  3.3072  1.8145  0.6153
12004TIP3    H257428   2.678   5.315  11.505  0.6679  0.5264  0.6428
12005TIP3   OH257429   3.868   5.765  13.105 -0.0348 -0.5201 -0.1114
12005TIP3    H157430   3.881   5.845  13.156  1.0849 -0.6927 -0.1050
12005TIP3    H257431   3.782   5.778  13.063 -1.3455 -0.6709  2.3196
12006TIP3   OH257432   0.168   6.467   5.362  0.3828 -0.1522  0.1021
12006TIP3    H157433   0.156   6.436   5.272 -0.9818  0.7497 -0.0505
12006TIP3    H257434   0.228   6.403   5.401  1.1071 -0.4969 -1.4654
12007TIP3   OH257435   4.833   2.814   1.658  0.2286  0.0372 -0.3195
12007TIP3    H157436   4.842   2.730   1.705  1.1164 -0.4603 -1.3253
12007TIP3    H257437   4.919   2.827   1.618  0.1879  1.5957  0.0612
12008TIP3   OH257438   4.937   5.641  15.253 -0.1673  0.8431 -0.0208
12008TIP3    H157439   4.856   5.630  15.204 -0.7273 -0.0650  1.0547
12008TIP3    H257440   5.006   5.611  15.193 -0.8206 -0.0811 -0.3345
12009TIP3   OH257441   3.548   2.450   4.950 -0.8187 -0.5492 -0.5764
12009TIP3    H157442   3.498   2.531   4.944  0.5390  0.3673 -0.0635
12009TIP3    H257443   3.606   2.452   4.874  0.5245 -0.0843  0.4189
12010TIP3   OH257444   5.770   0.004  11.217  1.0270  0.1122  0.1872
12010TIP3    H157445   5.815   0.083  11.186  2.4619 -1.3666 -1.8130
12010TIP3    H257446   5.835  -0.041  11.271  1.1880 -0.9025 -0.8017
12011TIP3   OH257447   4.210   5.479  15.574  0.2419 -0.0468 -0.0645
12011TIP3    H157448   4.187   5.486  15.666 -3.2619 -1.4451 -0.6971
12011TIP3    H257449   4.258   5.396  15.567  2.3184  1.0059  0.6839
12012TIP3   OH257450   3.007   4.658  16.277  0.4973  0.4288 -0.5641
12012TIP3    H157451   2.973   4.739  16.316 -3.1165 -2.0673  1.9969
12012TIP3    H257452   2.973   4.659  16.187 -1.4569  0.7717  0.1375
12013TIP3   OH257453   4.046   3.125  13.095  0.3832  0.0601 -0.2314
12013TIP3    H157454   3.980   3.103  13.161 -1.1269  0.6836 -1.4645
12013TIP3    H257455   4.057   3.219  13.102  0.5059  0.0750 -0.6052
12014TIP3   OH257456   5.821   0.781  11.402  0.0912  0.7479 -0.0208
12014TIP3    H157457   5.746   0.722  11.399  0.4873  0.2683 -1.0931
12014TIP3    H257458   5.870   0.753  11.479  0.8672 -1.1367 -1.1081
12015TIP3   OH257459   5.450   4.236  14.321 -0.7168 -0.0107 -0.2101
12015TIP3    H157460   5.416   4.325  14.314 -1.7524 -0.4439 -0.9343
12015TIP3    H257461   5.392   4.193  14.383  0.1327 -0.0314  0.5844
12016TIP3   OH257462   6.683   0.228  13.556  0.8633  0.1673 -0.1455
12016TIP3    H157463   6.672   0.270  13.642  1.3693  0.2706 -0.1314
12016TIP3    H257464   6.764   0.265  13.521  1.4231 -0.9229 -0.0562
12017TIP3   OH257465   4.678   5.160  13.526 -0.6624 -0.5508  0.0796
12017TIP3    H157466   4.736   5.092  13.560 -1.1340 -1.0179 -0.0237
12017TIP3    H257467   4.714   5.183  13.441  0.2544  0.2818  0.6717
12018TIP3   OH257468   6.400   0.600   5.376 -0.0760  0.3755 -0.1867
12018TIP3    H157469   6.371   0.525   5.325  3.8556 -1.4462 -0.1501
12018TIP3    H257470   6.435   0.662   5.312 -1.1130  1.1344 -0.0487
12019TIP3   OH257471   0.047   3.817   3.254  1.0263 -0.3282  0.1592
12019TIP3    H157472   0.117   3.875   3.223  0.4276  0.8121  0.8976
12019TIP3    H257473   0.091   3.759   3.317  1.3939  0.1074  0.3084
12020TIP3   OH257474   2.597   4.088   6.111  0.2130 -0.0744 -0.5120
12020TIP3    H157475   2.574   4.136   6.031 -0.3643 -1.1061 -0.9907
12020TIP3    H257476   2.553   4.003   6.101 -0.6749  0.1098  1.3313
12021TIP3   OH257477   4.792   1.547   5.758  0.1292 -0.7348 -0.1456
12021TIP3    H157478   4.769   1.533   5.666 -0.2142 -1.8913  0.1078
12021TIP3    H257479   4.790   1.460   5.797  0.5651 -0.2906  0.8992
12022TIP3   OH257480   6.178   5.903   1.516  0.3939 -0.0413  0.0780
12022TIP3    H157481   6.201   5.863   1.432  0.7721  0.4333 -0.0483
12022TIP3    H257482   6.083   5.912   1.513  0.4142  0.0522 -0.3367
12023TIP3   OH257483   4.651   1.820   4.217 -0.0223 -0.0719  0.6827
12023TIP3    H157484   4.693   1.734   4.210  1.9454  0.8107  1.0250
12023TIP3    H257485   4.611   1.834   4.132  0.5169 -0.9052  0.2784
12024TIP3   OH257486   1.435   4.641   4.758  0.4975  0.2886  0.6448
12024TIP3    H157487   1.404   4.643   4.668  1.4027 -1.0591  0.2864
12024TIP3    H257488   1.411   4.554   4.790  0.1115  0.7777  1.7444
12025TIP3   OH257489   5.358   5.272   0.696  0.2332  0.7646 -0.4978
12025TIP3    H157490   5.405   5.246   0.617  0.4112 -1.3788  0.2442
12025TIP3    H257491   5.423   5.265   0.766 -0.1422  1.8046 -0.0234
12026TIP3   OH257492   0.352   0.845   0.665 -0.1881 -0.3791  0.0558
12026TIP3    H157493   0.321   0.862   0.754 -0.6000 -1.2670  0.0910
12026TIP3    H257494   0.420   0.911   0.651  0.0818 -0.4019  1.1323
12027TIP3   OH257495   3.590   0.538   0.301  0.3556  0.0543 -0.4087
12027TIP3    H157496   3.678   0.576   0.302  0.7420 -0.7905 -0.9761
12027TIP3    H257497   3.531   0.613   0.315  1.1645  0.6032  0.1595
12028TIP3   OH257498   5.531   1.925  11.866  0.0598  0.2081  0.1004
12028TIP3    H157499   5.606   1.981  11.845 -1.3713  1.7190 -1.2618
12028TIP3    H257500   5.487   1.911  11.783 -1.8874  0.4396  1.0397
12029TIP3   OH257501   0.449   3.214  15.573  0.1798  0.4880 -0.3714
12029TIP3    H157502   0.497   3.245  15.649 -0.3725 -0.2070  0.2758
12029TIP3    H257503   0.356   3.223  15.598  0.0038 -0.8246 -0.5018
12030TIP3   OH257504   3.397   3.003   0.247 -0.4439 -0.1026 -0.5880
12030TIP3    H157505   3.314   2.972   0.285 -0.1780 -2.0402 -1.4731
12030TIP3    H257506   3.388   3.099   0.246 -1.3118 -0.0485  2.3300
12031TIP3   OH257507   5.846   1.462   3.612 -0.0697 -0.3025  0.0239
12031TIP3    H157508   5.787   1.500   3.546  0.5975 -0.4273 -0.6618
12031TIP3    H257509   5.921   1.521   3.613  0.6896 -1.2323 -0.5797
12032TIP3   OH257510   2.805   1.931  16.054  0.4744  0.0732  1.0864
12032TIP3    H157511   2.763   1.992  15.993 -0.8869 -1.5152  0.3681
12032TIP3    H257512   2.796   1.845  16.012  1.3995 -0.7823  2.5633
12033TIP3   OH257513   0.358   5.312   5.232  0.3577  0.2597  0.2821
12033TIP3    H157514   0.420   5.259   5.282  0.2806  0.9793  1.1689
12033TIP3    H257515   0.272   5.282   5.262  0.2466 -0.8779 -1.0914
12034TIP3   OH257516   1.685   3.661   3.406 -0.2955 -0.1291  0.5543
12034TIP3    H157517   1.596   3.690   3.430 -0.9640 -1.7144  0.1549
12034TIP3    H257518   1.691   3.573   3.444  0.7615 -0.4028 -0.2349
12035TIP3   OH257519   5.281   3.457   3.280  0.0347 -0.1737  0.5603
12035TIP3    H157520   5.288   3.552   3.282 -0.4210 -0.1451  0.7533
12035TIP3    H257521   5.338   3.427   3.351  1.0945 -0.1041 -0.2261
12036TIP3   OH257522   6.353   5.185   5.392 -0.1881  0.5551 -0.6842
12036TIP3    H157523   6.309   5.192   5.477  0.7887  1.1887 -0.2136
12036TIP3    H257524   6.283   5.161   5.331 -1.2610  1.8588 -0.0330
12037TIP3   OH257525   3.223   0.814  11.684 -0.0170  0.0724 -0.2468
12037TIP3    H157526   3.280   0.792  11.611  0.2286 -1.7359  0.4376
12037TIP3    H257527   3.141   0.842  11.643 -0.2001 -1.7785 -1.2428
12038TIP3   OH257528   4.688   0.260  17.084  0.2943  0.1765  0.0771
12038TIP3    H157529   4.722   0.196  17.021 -1.0063  0.3463 -0.8455
12038TIP3    H257530   4.610   0.296  17.041 -0.2732  0.7534  1.5332
12039TIP3   OH257531   3.900   4.562   0.269  0.2034  0.0547  0.4609
12039TIP3    H157532   3.908   4.607   0.185 -3.0707 -1.6113 -0.9368
12039TIP3    H257533   3.935   4.474   0.253 -1.4691 -0.6449  0.3944
12040TIP3   OH257534   3.299   3.693   3.754 -0.3345 -0.2963 -0.2275
12040TIP3    H157535   3.230   3.692   3.688 -0.2075 -0.0243 -0.3677
12040TIP3    H257536   3.348   3.774   3.736 -1.0561  0.4291  0.9736
12041TIP3   OH257537   1.132   2.401   2.533 -0.3956 -0.2634  0.0677
12041TIP3    H157538   1.053   2.449   2.508 -0.5021  0.3751  1.5674
12041TIP3    H257539   1.202   2.466   2.530 -0.2540 -0.3924  0.5591
12042TIP3   OH257540   3.879   5.146  14.744  0.0051  0.0993  0.4829
12042TIP3    H157541   3.974   5.151  14.732 -0.1909  0.8585 -1.0736
12042TIP3    H257542   3.851   5.082  14.678 -0.6186  0.3286  0.5252
12043TIP3   OH257543   6.558   0.945  14.887 -0.5401  0.4116 -0.4346
12043TIP3    H157544   6.638   0.998  14.891 -0.0360 -0.3619  0.3302
12043TIP3    H257545   6.501   0.983  14.953  0.0711 -0.3438  0.5705
12044TIP3   OH257546   0.685   2.843  16.130  0.4587 -0.4720  0.2977
12044TIP3    H157547   0.647   2.925  16.160 -1.5179 -2.1393  2.8258
12044TIP3    H257548   0.777   2.847  16.157  0.3236  0.7815  0.6122
12045TIP3   OH257549   2.476   5.413  12.105  0.1656 -0.6193  0.2961
12045TIP3    H157550   2.565   5.397  12.075 -0.1332  0.5766 -1.3512
12045TIP3    H257551   2.422   5.355  12.051 -0.2862  0.8000 -0.8274
12046TIP3   OH257552   4.242   0.817  13.573  0.3156  0.4072 -0.8173
12046TIP3    H157553   4.156   0.779  13.593  1.1690 -1.2134 -0.0463
12046TIP3    H257554   4.256   0.798  13.480  1.0590 -2.0165 -0.2832
12047TIP3   OH257555   5.597   4.289   2.073  0.2738 -0.2286  0.2163
12047TIP3    H157556   5.640   4.232   2.010  0.3996 -0.9307  0.9231
12047TIP3    H257557   5.663   4.355   2.094  1.5454 -2.0095  2.2423
12048TIP3   OH257558   0.053   2.919   1.196  0.7101 -0.2064 -0.2339
12048TIP3    H157559  -0.038   2.926   1.223  0.0199 -0.8616 -2.1975
12048TIP3    H257560   0.057   2.838   1.145  2.5360 -0.4933  0.3060
12049TIP3   OH257561   0.268   6.017  15.618 -0.4083 -0.5644  0.0680
12049TIP3    H157562   0.203   5.951  15.593  0.0838 -1.2875  0.6488
12049TIP3    H257563   0.348   5.966  15.635  0.0269  0.2044  0.3499
12050TIP3   OH257564   6.252   3.368  16.310  0.1803 -0.3493 -0.3134
12050TIP3    H157565   6.342   3.384  16.340  0.8233 -1.2463 -1.6711
12050TIP3    H257566   6.255   3.388  16.216 -0.9459 -0.7823 -0.4479
12051TIP3   OH257567   6.668   6.365   4.938 -0.6898 -0.0967  0.4698
12051TIP3    H157568   6.688   6.354   5.031  0.0168  0.3261  0.3724
12051TIP3    H257569   6.748   6.401   4.900 -1.2352  0.4830 -0.1591
12052TIP3   OH257570   5.110   5.882  14.096 -0.7793  0.1127 -0.1792
12052TIP3    H157571   5.193   5.874  14.142 -0.0187 -0.5316 -1.5721
12052TIP3    H257572   5.067   5.798  14.110  0.3585 -0.8943 -2.2062
12053TIP3   OH257573   2.894   4.493  10.701  0.0625  1.1574 -0.3811
12053TIP3    H157574   2.894   4.420  10.763 -0.7697 -0.3963 -2.1225
12053TIP3    H257575   2.984   4.496  10.668 -0.2675 -0.2278 -1.5157
12054TIP3   OH257576   0.086   6.252  16.161  0.5714 -0.3890  0.4502
12054TIP3    H157577   0.112   6.335  16.121  0.3941 -0.5620 -0.0298
12054TIP3    H257578   0.034   6.208  16.094 -0.8662 -0.1110  1.3565
12055TIP3   OH257579   1.851   4.920  11.542 -0.1080  0.2344 -0.7677
12055TIP3    H157580   1.760   4.948  11.528 -0.1681  0.3315 -0.2186
12055TIP3    H257581   1.880   4.971  11.618  1.3744  2.3752 -2.6688
12056TIP3   OH257582   6.314   5.393   6.301 -0.4520  0.1768  0.2681
12056TIP3    H157583   6.308   5.340   6.381 -1.2368 -0.9910 -0.5223
12056TIP3    H257584   6.225   5.394   6.266  0.1131 -0.4692 -1.2819
12057TIP3   OH257585   5.245   2.338  14.607  0.8471  0.3330 -0.0901
12057TIP3    H157586   5.327   2.375  14.639  0.1888  0.3742  1.6728
12057TIP3    H257587   5.201   2.306  14.686 -0.6963  0.0350 -1.0335
12058TIP3   OH257588   1.443   1.312   3.889  0.3647 -0.1081  0.1898
12058TIP3    H157589   1.441   1.407   3.876 -1.1142 -0.1491 -0.0796
12058TIP3    H257590   1.517   1.282   3.837  0.2722  0.8136 -0.4970
12059TIP3   OH257591   4.697   0.157   2.377 -0.3667  0.0754  0.5920
12059TIP3    H157592   4.749   0.206   2.314 -0.5798 -1.9656 -1.2907
12059TIP3    H257593   4.635   0.221   2.412  0.6214  1.5683 -0.2775
12060TIP3   OH257594   3.291   6.208  11.158 -0.2609 -0.3411 -0.6757
12060TIP3    H157595   3.255   6.140  11.101  2.7333 -1.3628 -1.5494
12060TIP3    H257596   3.337   6.160  11.226 -1.6420  0.8965  1.2455
12061TIP3   OH257597   2.385   0.049  14.966 -0.3581 -0.3552  0.0983
12061TIP3    H157598   2.459   0.097  14.930 -0.8295  0.7248  0.5415
12061TIP3    H257599   2.376   0.080  15.056 -1.5914 -0.1653 -0.0674
12062TIP3   OH257600   4.447   3.615   0.188  0.1781 -0.0230  0.0086
12062TIP3    H157601   4.406   3.694   0.222 -0.2928 -0.5643  0.7538
12062TIP3    H257602   4.466   3.563   0.266  1.3579 -0.2321 -0.4020
12063TIP3   OH257603   0.498   0.178  15.103  0.0158 -0.4662 -0.2113
12063TIP3    H157604   0.582   0.167  15.148 -0.2621  1.5615  0.8997
12063TIP3    H257605   0.436   0.128  15.156  0.1734 -0.3726  0.0638
12064TIP3   OH257606   0.563   5.613   3.374 -0.1777 -0.1442  0.2787
12064TIP3    H157607   0.606   5.661   3.444 -0.7200  0.1595  0.4115
12064TIP3    H257608   0.474   5.597   3.407 -0.1426 -0.8512  0.0551
12065TIP3   OH257609   1.229   0.927  11.712 -0.6492  0.1660 -0.1299
12065TIP3    H157610   1.207   0.938  11.804  1.8531 -0.8792  0.6752
12065TIP3    H257611   1.325   0.932  11.709 -0.3909 -3.1187 -2.1604
12066TIP3   OH257612   4.562   5.899   4.476 -0.5155 -0.1373 -0.3820
12066TIP3    H157613   4.499   5.834   4.509 -0.1032 -0.7328 -0.7444
12066TIP3    H257614   4.513   5.981   4.476 -1.7613 -0.8231 -2.0039
12067TIP3   OH257615   5.406   6.295  13.738  0.2404 -0.4169 -0.1966
12067TIP3    H157616   5.314   6.282  13.760  1.1097 -3.2371  2.4112
12067TIP3    H257617   5.435   6.210  13.705  2.4428 -0.3319  1.3748
12068TIP3   OH257618   4.560   4.028  16.706  0.0429 -0.4429  0.0789
12068TIP3    H157619   4.607   4.071  16.778  0.8380  1.4356 -1.4929
12068TIP3    H257620   4.467   4.042  16.727  0.2712  0.6965  0.4011
12069TIP3   OH257621   5.537   5.114   0.564  0.2581  0.0616  0.2648
12069TIP3    H157622   5.534   5.065   0.646 -1.1725  1.4603  1.1104
12069TIP3    H257623   5.517   5.049   0.497 -2.0450 -0.5053  1.3908
12070TIP3   OH257624   2.698   6.574   3.563 -0.2650 -0.3430  0.2460
12070TIP3    H157625   2.788   6.557   3.593 -0.2308 -1.1323 -0.2863
12070TIP3    H257626   2.710   6.627   3.484 -0.3426  1.3428  1.3166
12071TIP3   OH257627   1.186   6.089   6.355  0.1033  0.2225 -0.2063
12071TIP3    H157628   1.154   5.999   6.348  0.6528  0.1747 -2.9502
12071TIP3    H257629   1.266   6.091   6.303  1.1125  1.8864  1.2974
12072TIP3   OH257630   0.289   2.900   2.929  0.1474  0.0489 -0.3749
12072TIP3    H157631   0.194   2.894   2.936  0.2747 -1.2265  0.5025
12072TIP3    H257632   0.304   2.957   2.853 -1.3095  1.6744  0.4846
12073TIP3   OH257633   2.879   0.828  12.085  0.6473 -0.0906 -0.6062
12073TIP3    H157634   2.950   0.812  12.023  1.1096  0.3086 -0.1971
12073TIP3    H257635   2.894   0.766  12.156  0.1182 -0.5483 -0.8880
12074TIP3   OH257636   5.338   4.863  12.468  0.0161 -0.2903 -0.2951
12074TIP3    H157637   5.357   4.897  12.555 -0.6007 -1.2893  0.2441
12074TIP3    H257638   5.242   4.867  12.462 -0.0330 -1.3843 -0.4303
12075TIP3   OH257639   3.394   1.886   1.841 -0.5733  0.0348 -0.4913
12075TIP3    H157640   3.419   1.970   1.803  0.7131  1.5864  3.3296
12075TIP3    H257641   3.454   1.823   1.801  0.1825  1.3740 -1.5351
12076TIP3   OH257642   3.476   5.498  17.028  0.1672 -0.1226 -0.0990
12076TIP3    H157643   3.545   5.485  17.093  0.7669  0.4374 -0.6221
12076TIP3    H257644   3.395   5.474  17.075  0.1663  3.1950  1.8693
12077TIP3   OH257645   5.696   0.093  17.036  0.1607  0.2524 -0.4543
12077TIP3    H157646   5.754   0.017  17.026 -1.1810 -0.8971  0.1031
12077TIP3    H257647   5.608   0.057  17.027 -0.5926  1.4379  1.5266
12078TIP3   OH257648   3.023   2.537   1.034 -0.2863 -0.2734 -0.5802
12078TIP3    H157649   2.928   2.546   1.043 -0.1921 -0.6444  1.1240
12078TIP3    H257650   3.052   2.623   1.002 -1.2025 -0.2085 -1.2804
12079TIP3   OH257651   0.144   2.843  15.371  0.3077 -0.8029 -0.0968
12079TIP3    H157652   0.193   2.897  15.433  0.9983 -1.5808  0.0507
12079TIP3    H257653   0.193   2.761  15.366 -0.0300 -0.9621 -1.2540
12080TIP3   OH257654   5.918   0.648   5.081 -0.1614 -0.2788 -0.2805
12080TIP3    H157655   5.998   0.674   5.127 -0.1336  1.1972 -1.1104
12080TIP3    H257656   5.855   0.717   5.102 -0.7981 -0.7066 -0.7636
12081TIP3   OH257657   0.421   4.352  16.426 -0.0612  0.1975 -0.3653
12081TIP3    H157658   0.500   4.335  16.478  0.4595  0.7977 -0.9355
12081TIP3    H257659   0.349   4.339  16.487  0.4604 -0.5718  0.1189
12082TIP3   OH257660   0.214   3.732  12.699  0.0552 -0.3242 -0.2703
12082TIP3    H157661   0.196   3.792  12.626  0.1379 -0.3513 -0.3127
12082TIP3    H257662   0.244   3.652  12.657 -0.6106 -0.5989 -0.2462
12083TIP3   OH257663   3.289   1.419  11.598 -0.1840  0.5240 -0.1498
12083TIP3    H157664   3.269   1.421  11.692  0.4468  0.1325  0.0055
12083TIP3    H257665   3.336   1.501  11.582  1.5811 -0.3463  0.3445
12084TIP3   OH257666   5.126   1.421   6.480  0.2794 -0.1241  0.3178
12084TIP3    H157667   5.201   1.477   6.497 -0.2052  0.4575  0.5794
12084TIP3    H257668   5.162   1.346   6.432  0.6208  1.5196 -2.2265
12085TIP3   OH257669   6.183   2.576   5.338  0.1484 -0.1459  0.2668
12085TIP3    H157670   6.187   2.489   5.298  0.1902 -0.7691  1.5825
12085TIP3    H257671   6.103   2.615   5.302 -0.5422 -1.2138  0.6164
12086TIP3   OH257672   2.630   0.214  14.902  0.4852  0.3035  0.3176
12086TIP3    H157673   2.578   0.288  14.935  0.0930  0.0887  0.1846
12086TIP3    H257674   2.676   0.250  14.826  0.3416  0.4248  0.2879
12087TIP3   OH257675   4.274   4.566   0.171 -0.0542  0.4857 -0.5070
12087TIP3    H157676   4.366   4.588   0.185  0.1353 -0.7106  0.3484
12087TIP3    H257677   4.228   4.609   0.243  0.2908 -1.5788  1.0457
12088TIP3   OH257678   0.007   1.615  12.688  0.3390  0.4811 -0.2188
12088TIP3    H157679  -0.023   1.683  12.748  1.8813 -0.8260  2.2005
12088TIP3    H257680   0.102   1.624  12.687  0.5050 -0.9996 -0.5908
12089TIP3   OH257681   2.691   1.990   0.891  0.1895 -0.2004  0.3566
12089TIP3    H157682   2.699   1.926   0.820 -0.6536  0.1653 -0.0746
12089TIP3    H257683   2.713   2.074   0.850  0.7156 -0.1262  0.7808
12090TIP3   OH257684   2.991   2.075  16.495 -0.1174  0.2802  0.1128
12090TIP3    H157685   3.083   2.089  16.472 -0.4172  3.3007  0.2880
12090TIP3    H257686   2.951   2.041  16.415  0.8327  0.6675 -0.5470
12091TIP3   OH257687   6.521   3.434   0.181  0.4417 -0.5669 -0.5123
12091TIP3    H157688   6.508   3.453   0.088 -1.2962  2.4256  0.2101
12091TIP3    H257689   6.492   3.344   0.191 -1.6527 -0.2068 -2.4988
12092TIP3   OH257690   1.336   0.815  15.734 -0.1854 -0.0053 -0.3737
12092TIP3    H157691   1.272   0.861  15.789 -1.5680 -0.2353 -1.7254
12092TIP3    H257692   1.390   0.884  15.696  1.6267  0.1231  2.1097
12093TIP3   OH257693   2.107   1.395   1.240 -0.7203 -0.1376  0.1127
12093TIP3    H157694   2.014   1.410   1.221 -0.8821  0.1240  1.0386
12093TIP3    H257695   2.123   1.447   1.319  0.2203 -0.1699 -0.0512
12094TIP3   OH257696   2.619   0.093  11.411 -0.2825  0.4273 -0.2081
12094TIP3    H157697   2.672   0.040  11.352 -0.0660  1.4933 -0.9953
12094TIP3    H257698   2.536   0.047  11.417 -0.3161  0.3165 -1.3698
12095TIP3   OH257699   3.960   4.298  17.052 -0.3815  0.5328  0.7252
12095TIP3    H157700   3.991   4.300  17.142  2.9288 -1.6887 -0.1929
12095TIP3    H257701   4.013   4.364  17.007 -1.2941  0.9019  0.1608
12096TIP3   OH257702   1.147   0.876   3.537  0.5618 -0.5234 -0.1288
12096TIP3    H157703   1.213   0.890   3.604  0.2042 -0.1264  0.1481
12096TIP3    H257704   1.106   0.962   3.525 -0.6069 -0.9770  0.4568
12097TIP3   OH257705   2.020   5.358  15.698  0.0214  0.1876  0.1614
12097TIP3    H157706   2.113   5.337  15.694  0.7201  2.3129  2.5682
12097TIP3    H257707   1.994   5.332  15.787 -1.6414 -0.1160 -0.3802
12098TIP3   OH257708   5.827   3.907  11.198  0.1188 -0.0552 -0.2559
12098TIP3    H157709   5.896   3.865  11.146 -1.0531 -0.8730 -1.2006
12098TIP3    H257710   5.801   3.841  11.261  0.8493  0.5975  0.7625
12099TIP3   OH257711   6.428   4.953   4.811 -0.1789 -0.3517 -0.2149
12099TIP3    H157712   6.360   4.896   4.776 -0.9981  0.7007 -0.3950
12099TIP3    H257713   6.444   5.017   4.742  0.7095 -0.3451 -0.0111
12100TIP3   OH257714   5.829   5.986   2.520 -0.0940 -0.1210 -0.4137
12100TIP3    H157715   5.752   5.990   2.577  0.3651 -0.5973  0.2488
12100TIP3    H257716   5.864   6.075   2.522 -0.3142 -0.0346 -0.2823
12101TIP3   OH257717   3.528   5.783  11.132  0.0700 -0.2333  0.0262
12101TIP3    H157718   3.598   5.735  11.178  0.6387  0.4162 -0.1448
12101TIP3    H257719   3.508   5.857  11.189 -0.8974 -0.7244  0.3480
12102TIP3   OH257720   1.673   1.201   1.676 -1.1159 -0.1034 -0.2890
12102TIP3    H157721   1.662   1.289   1.711 -2.1044 -0.4545  0.3148
12102TIP3    H257722   1.588   1.179   1.637 -1.2191 -1.1809  0.5040
12103TIP3   OH257723   5.857   6.286   2.925 -0.0772  0.0004 -0.0945
12103TIP3    H157724   5.930   6.270   2.984  1.3173 -2.2589 -2.2341
12103TIP3    H257725   5.791   6.222   2.950 -0.2907  0.3350  0.2121
12104TIP3   OH257726   3.465   3.269  12.593 -0.0815 -0.1040  0.6101
12104TIP3    H157727   3.371   3.253  12.588 -0.1399  0.5063 -0.4875
12104TIP3    H257728   3.487   3.253  12.685 -1.2115 -0.4390  0.8405
12105TIP3   OH257729   3.102   4.661   0.702  0.1371  0.1857  0.1164
12105TIP3    H157730   3.026   4.717   0.721  0.9179  0.9576  1.0526
12105TIP3    H257731   3.064   4.573   0.690 -1.1872  0.9918 -2.0972
12106TIP3   OH257732   5.424   1.821   4.029 -0.0241  0.3822 -0.3647
12106TIP3    H157733   5.352   1.758   4.026  0.3998 -0.0850 -1.4124
12106TIP3    H257734   5.457   1.823   3.939  0.3621  1.6596 -0.2104
12107TIP3   OH257735   1.838   5.646   5.188 -0.8986 -0.2228  0.2105
12107TIP3    H157736   1.852   5.632   5.094  0.6524 -0.7475  0.4998
12107TIP3    H257737   1.826   5.559   5.224  1.9733 -0.4042  0.9802
12108TIP3   OH257738   3.806   5.076   4.907  0.5169  0.0419  0.0153
12108TIP3    H157739   3.775   5.041   4.990  0.6862  0.6677  0.3524
12108TIP3    H257740   3.879   5.020   4.882  0.1281 -0.4725  0.0127
12109TIP3   OH257741   4.731   3.040   5.923 -0.3810 -0.3851 -0.1189
12109TIP3    H157742   4.729   3.070   6.014  1.0448 -0.5191 -0.0185
12109TIP3    H257743   4.665   3.093   5.879  1.3119  2.2484  0.2696
12110TIP3   OH257744   0.990   3.818   3.814  0.4406 -0.3660 -0.2755
12110TIP3    H157745   0.934   3.848   3.886  0.6290 -0.7524  0.0320
12110TIP3    H257746   0.945   3.848   3.735 -0.1628 -0.6137 -0.0274
12111TIP3   OH257747   3.213   4.071   6.337 -0.4518 -0.0872 -0.0685
12111TIP3    H157748   3.136   4.128   6.338  0.1776  0.7973 -0.8391
12111TIP3    H257749   3.178   3.984   6.321 -1.2214  0.4346 -1.3066
12112TIP3   OH257750   3.919   0.947  14.005 -0.2456 -0.0440  0.0332
12112TIP3    H157751   3.974   0.897  13.945  0.2845  0.2185  0.2975
12112TIP3    H257752   3.853   0.884  14.034  0.6385 -0.7084  0.6459
12113TIP3   OH257753   5.488   5.640  12.092 -0.7626  0.1351  0.1920
12113TIP3    H157754   5.518   5.556  12.128 -0.2129  0.4138  0.4018
12113TIP3    H257755   5.537   5.650  12.011 -1.9653 -0.4676 -0.6397
12114TIP3   OH257756   6.646   1.711   2.305  0.7484  0.2667 -0.2137
12114TIP3    H157757   6.620   1.628   2.264  0.0600 -0.0559  0.8054
12114TIP3    H257758   6.732   1.730   2.268  1.1251 -1.1467 -0.1502
12115TIP3   OH257759   2.149   0.906  15.102 -0.9313 -0.4824 -0.3811
12115TIP3    H157760   2.101   0.984  15.131 -0.8492 -0.8024  0.6959
12115TIP3    H257761   2.096   0.870  15.031 -0.5282  1.0083 -1.4727
12116TIP3   OH257762   5.713   4.096  15.169  0.3101  0.1245  0.1715
12116TIP3    H157763   5.676   4.070  15.085  0.4268 -0.2521  0.2349
12116TIP3    H257764   5.747   4.184  15.154 -0.6325  0.4947  0.1223
12117TIP3   OH257765   0.965   1.925  16.919  0.2158  0.3107 -0.2810
12117TIP3    H157766   0.897   1.880  16.968  2.3001 -1.5454  1.1029
12117TIP3    H257767   0.923   2.004  16.886 -2.0290  0.3156  2.2778
12118TIP3   OH257768   5.130   1.723   2.370 -0.7551  0.1896 -0.3120
12118TIP3    H157769   5.195   1.776   2.416 -0.4354  0.2241 -0.7931
12118TIP3    H257770   5.046   1.763   2.392 -0.4793  1.2456 -1.1092
12119TIP3   OH257771   5.269   0.433   5.803 -0.0522  0.1393  0.0316
12119TIP3    H157772   5.319   0.359   5.768  0.1955  0.3438 -0.0476
12119TIP3    H257773   5.302   0.445   5.892  1.5030  1.5541 -0.6662
12120TIP3   OH257774   1.904   1.595   2.056 -0.5265 -0.2733 -0.1745
12120TIP3    H157775   1.890   1.511   2.101 -2.3243 -0.0245 -0.1929
12120TIP3    H257776   1.869   1.661   2.116 -0.7852  0.2881 -0.9308
12121TIP3   OH257777   2.683   5.719  13.812 -0.3913 -0.1967 -0.2764
12121TIP3    H157778   2.671   5.805  13.852 -0.6757 -0.5642  0.4328
12121TIP3    H257779   2.721   5.665  13.881  1.1410 -0.2799 -1.1192
12122TIP3   OH257780   6.260   2.597  16.224 -0.0214 -0.0624 -0.5576
12122TIP3    H157781   6.329   2.625  16.165 -1.0166 -2.1717 -2.9161
12122TIP3    H257782   6.217   2.678  16.252  2.4983  1.1879 -0.0760
12123TIP3   OH257783   5.430   2.503  15.181 -0.1030  0.2610  0.6705
12123TIP3    H157784   5.391   2.449  15.249  0.0752  0.4795  0.9467
12123TIP3    H257785   5.501   2.450  15.146  0.1103  0.3362  0.9827
12124TIP3   OH257786   1.320   3.512   1.875 -0.1285 -0.4347 -0.5600
12124TIP3    H157787   1.321   3.417   1.862  0.2732 -0.7730  1.5051
12124TIP3    H257788   1.239   3.528   1.924  1.3703 -0.2736  2.0994
12125TIP3   OH257789   3.674   1.007   5.708 -0.1174  0.1932 -0.6987
12125TIP3    H157790   3.619   1.009   5.629  0.2891 -1.5799 -1.0676
12125TIP3    H257791   3.753   0.961   5.680  1.8190  3.0095 -0.2895
12126TIP3   OH257792   3.420   5.308   1.937 -0.2842 -0.2016  0.3285
12126TIP3    H157793   3.334   5.341   1.912  0.0044 -0.0547 -0.4934
12126TIP3    H257794   3.441   5.353   2.019 -0.2502  1.0635 -0.3513
12127TIP3   OH257795   4.118   3.379   4.715  0.2345  0.1652 -0.1186
12127TIP3    H157796   4.025   3.374   4.736  0.0528  0.0896 -0.9192
12127TIP3    H257797   4.144   3.288   4.701  0.1259  0.2827 -1.1476
12128TIP3   OH257798   2.638   3.875   3.914 -0.2384  0.2037  0.4811
12128TIP3    H157799   2.693   3.948   3.943 -0.4612  0.2196  0.8712
12128TIP3    H257800   2.646   3.810   3.983  0.2762 -0.3193 -0.0551
12129TIP3   OH257801   5.206   4.784   0.876 -0.2534 -0.1116 -0.1177
12129TIP3    H157802   5.268   4.717   0.845 -0.6456 -1.3248  1.5838
12129TIP3    H257803   5.258   4.838   0.937 -0.4551 -0.1083  0.0509
12130TIP3   OH257804   0.929   0.256   0.669  0.4787 -0.0344 -0.4518
12130TIP3    H157805   0.954   0.282   0.581 -0.5230  0.3471 -0.6395
12130TIP3    H257806   0.850   0.308   0.688 -0.4744 -1.5406 -0.1055
12131TIP3   OH257807   5.618   6.439  10.876  0.4101  0.3076  0.4320
12131TIP3    H157808   5.586   6.479  10.796 -0.0364  0.3893  0.6478
12131TIP3    H257809   5.599   6.345  10.865 -0.4444  0.4225  0.7954
12132TIP3   OH257810   2.036   0.860   0.871 -0.2746 -0.0766 -0.0641
12132TIP3    H157811   2.076   0.909   0.799  1.3265 -0.5994  0.4218
12132TIP3    H257812   1.978   0.923   0.914 -1.7197  0.0966 -2.1026
12133TIP3   OH257813   2.493   3.864   1.639  0.2849  0.2274 -0.0143
12133TIP3    H157814   2.511   3.950   1.600  2.7464 -0.1549  0.1257
12133TIP3    H257815   2.499   3.802   1.566  0.9643 -0.0668  0.2813
12134TIP3   OH257816   6.774   1.788   1.997  0.4561 -0.0076 -0.4995
12134TIP3    H157817   6.810   1.706   2.031  0.0535  0.7425  1.9911
12134TIP3    H257818   6.797   1.853   2.064 -2.2129  1.2204 -0.6592
12135TIP3   OH257819   0.562   0.823  14.457 -0.4924  0.1683  0.2140
12135TIP3    H157820   0.621   0.884  14.411 -0.9075  0.3068 -0.1450
12135TIP3    H257821   0.491   0.809  14.395 -0.6744 -0.2516  0.5220
12136TIP3   OH257822   0.364   2.860  13.157  0.2418 -0.2216  0.3465
12136TIP3    H157823   0.274   2.890  13.166  0.1836 -0.2771 -0.0258
12136TIP3    H257824   0.417   2.939  13.167  0.0832  0.0457 -0.7637
12137TIP3   OH257825   6.121   4.021  13.680 -0.1029  0.1049  0.4347
12137TIP3    H157826   6.173   4.045  13.604 -1.2372 -1.5276 -0.9533
12137TIP3    H257827   6.094   3.930  13.662 -1.3486  0.0694  2.2414
12138TIP3   OH257828   4.020   5.205  12.587 -0.2786 -0.2037  0.0878
12138TIP3    H157829   3.976   5.137  12.536 -0.8898  1.1365 -1.2494
12138TIP3    H257830   4.084   5.158  12.640 -1.2613 -1.8921 -0.1661
12139TIP3   OH257831   3.045   5.998   2.952 -0.2126 -0.4127 -0.5361
12139TIP3    H157832   3.081   6.077   2.912 -2.5255  0.1751 -1.6652
12139TIP3    H257833   3.071   6.004   3.044 -0.3451  1.7166 -0.5798
12140TIP3   OH257834   0.755   4.487  15.797  0.4324  0.2205  0.0475
12140TIP3    H157835   0.802   4.522  15.872 -2.0061  0.7082  1.4586
12140TIP3    H257836   0.765   4.553  15.729  2.0876  0.0958  0.1201
12141TIP3   OH257837   0.694   1.075  14.324  0.4269  0.4424 -0.0534
12141TIP3    H157838   0.634   1.041  14.258 -0.1361  1.7181 -0.2206
12141TIP3    H257839   0.643   1.140  14.372  1.3198  0.6901  0.5846
12142TIP3   OH257840   5.738   2.155  13.253 -0.1594  0.0663 -0.5751
12142TIP3    H157841   5.766   2.243  13.226  0.9906 -0.5461 -1.4293
12142TIP3    H257842   5.808   2.123  13.309  0.3451 -1.0125 -1.7662
12143TIP3   OH257843   3.186   5.452  11.116 -0.2495  0.0178 -0.1450
12143TIP3    H157844   3.280   5.463  11.123 -0.4300  1.0322  1.0035
12143TIP3    H257845   3.171   5.433  11.023  1.0971 -0.5119 -0.2756
12144TIP3   OH257846   4.474   2.973  16.813  0.3190  0.0318 -0.5456
12144TIP3    H157847   4.525   3.008  16.886  1.2680  1.0325 -1.6446
12144TIP3    H257848   4.384   2.969  16.846  0.3057  2.7095 -0.0210
12145TIP3   OH257849   4.306   4.807   4.836 -0.2208  0.5781  0.1270
12145TIP3    H157850   4.319   4.898   4.810  0.4097  0.3621 -0.3336
12145TIP3    H257851   4.263   4.766   4.761  0.6764  0.1944 -0.1889
12146TIP3   OH257852   0.167   3.305  14.187  0.3340  0.2565  0.2258
12146TIP3    H157853   0.201   3.266  14.107 -0.5781  0.8400 -0.4738
12146TIP3    H257854   0.160   3.398  14.166  1.1943  0.5992  1.3968
12147TIP3   OH257855   6.604   5.138  15.460  0.0092 -0.2068  0.0392
12147TIP3    H157856   6.600   5.187  15.377 -0.4677  0.3044  0.3561
12147TIP3    H257857   6.696   5.118  15.472  0.1423  0.1538 -0.3665
12148TIP3   OH257858   2.791   0.457   5.182 -0.3340 -0.0032  0.0036
12148TIP3    H157859   2.764   0.399   5.110 -1.6718 -0.0139  0.4898
12148TIP3    H257860   2.864   0.411   5.223 -0.6055 -0.7778 -0.3546
12149TIP3   OH257861   1.847   2.268   2.090  0.9876 -0.1109  0.2001
12149TIP3    H157862   1.766   2.314   2.066  0.3610 -0.6177  1.2525
12149TIP3    H257863   1.917   2.328   2.067  0.2187  1.1180  0.9755
12150TIP3   OH257864   5.848   1.349  12.122  0.2000  0.1909  0.1058
12150TIP3    H157865   5.930   1.299  12.124 -0.0263 -0.1842  1.4519
12150TIP3    H257866   5.782   1.287  12.154 -0.4050  0.8170  0.0862
12151TIP3   OH257867   2.584   4.581   3.794  0.3885  0.2851  0.7431
12151TIP3    H157868   2.534   4.500   3.786 -0.6924  1.0886 -1.3056
12151TIP3    H257869   2.673   4.557   3.766 -0.5028  0.2623 -2.5142
12152TIP3   OH257870   4.898   2.925   3.724  0.1735 -0.7343  0.5627
12152TIP3    H157871   4.807   2.898   3.709 -0.0834  0.7013 -0.8207
12152TIP3    H257872   4.896   2.972   3.807 -0.6260  0.2373  0.0343
12153TIP3   OH257873   1.562   1.421   2.699  0.2364 -0.1666  0.2531
12153TIP3    H157874   1.608   1.338   2.701 -1.0028 -0.8726  0.6597
12153TIP3    H257875   1.505   1.416   2.622 -0.1044  0.1460  0.4764
12154TIP3   OH257876   5.341   1.291  12.440 -0.8159  0.2907  0.2567
12154TIP3    H157877   5.406   1.329  12.499 -0.2056  0.7484 -0.6892
12154TIP3    H257878   5.307   1.366  12.391  0.0766 -0.2918 -1.3245
12155TIP3   OH257879   2.182   0.892  16.486  0.6365  0.3859 -0.2739
12155TIP3    H157880   2.128   0.971  16.478 -0.2067 -0.2331 -0.9346
12155TIP3    H257881   2.209   0.872  16.396  1.2091  0.1642 -0.0578
12156TIP3   OH257882   4.151   6.565  11.454  0.3854  0.0200 -0.3541
12156TIP3    H157883   4.233   6.516  11.451  0.5000  0.2175 -0.4545
12156TIP3    H257884   4.141   6.600  11.366  0.9739  1.2719  0.0588
12157TIP3   OH257885   2.079   5.757   2.850  0.3707  0.0531 -0.2354
12157TIP3    H157886   2.025   5.826   2.812 -0.6199 -0.3436  0.4140
12157TIP3    H257887   2.120   5.715   2.775 -3.1058 -2.0436 -1.1849
12158TIP3   OH257888   1.677   5.884   0.208  0.2941 -0.5024  0.1826
12158TIP3    H157889   1.679   5.797   0.248 -0.8559 -1.2151 -1.2295
12158TIP3    H257890   1.585   5.901   0.191  0.7053 -0.3452 -2.3101
12159TIP3   OH257891   6.589   6.454   4.549  0.4845 -0.9015  0.0204
12159TIP3    H157892   6.672   6.448   4.596  0.1434 -0.4193  0.7116
12159TIP3    H257893   6.572   6.548   4.543 -0.6045 -1.0174  0.9840
12160TIP3   OH257894   2.302   4.924  14.189 -0.1732  0.1999  0.5160
12160TIP3    H157895   2.289   4.885  14.102 -0.3860  0.9281  0.2027
12160TIP3    H257896   2.344   5.008  14.171 -0.0355  0.2674  1.1366
12161TIP3   OH257897   5.599   0.571   1.956 -0.7820  0.4290 -0.2937
12161TIP3    H157898   5.628   0.612   2.037 -0.3189  0.4269 -0.4547
12161TIP3    H257899   5.675   0.524   1.924 -1.6495 -1.6088  0.5113
12162TIP3   OH257900   2.840   3.236  14.199 -0.2197  0.3582 -0.7857
12162TIP3    H157901   2.755   3.259  14.160 -2.0720  0.4837  2.9182
12162TIP3    H257902   2.840   3.140  14.200 -0.2522  0.3561 -0.8998
12163TIP3   OH257903   5.544   4.920  11.995 -0.2367  0.2722 -0.1450
12163TIP3    H157904   5.512   4.965  12.073 -2.9048  2.4043 -2.2549
12163TIP3    H257905   5.618   4.974  11.965  0.5176 -0.3090  0.6337
12164TIP3   OH257906   3.003   2.650   2.858  0.0184 -0.0504 -0.4214
12164TIP3    H157907   3.091   2.630   2.891  0.1246  0.5147 -0.3505
12164TIP3    H257908   2.971   2.720   2.915 -0.3008  0.0520 -0.7216
12165TIP3   OH257909   6.169   3.465  16.615 -0.0539  0.0142 -0.2795
12165TIP3    H157910   6.092   3.423  16.655 -0.6115  0.7519 -0.5610
12165TIP3    H257911   6.167   3.436  16.524 -1.0510  1.4406 -0.7541
12166TIP3   OH257912   4.342   4.135   5.021  0.5826 -0.1678  0.3551
12166TIP3    H157913   4.397   4.208   5.047 -0.5444  1.1679 -0.8644
12166TIP3    H257914   4.253   4.163   5.040  0.0475 -0.7919 -1.0666
12167TIP3   OH257915   4.209   3.279  12.130 -1.2282 -0.1938  0.2277
12167TIP3    H157916   4.259   3.227  12.067 -0.0004  0.3032  0.7618
12167TIP3    H257917   4.120   3.280  12.095 -0.6041 -0.0131 -1.4436
12168TIP3   OH257918   1.831   2.137  10.875  0.0850 -0.6789  0.5144
12168TIP3    H157919   1.795   2.220  10.843  0.6335 -0.7493 -0.3019
12168TIP3    H257920   1.916   2.129  10.831  0.8358 -0.8191  1.9287
12169TIP3   OH257921   5.140   2.572  10.664  0.0642 -0.0181 -0.1488
12169TIP3    H157922   5.235   2.577  10.665  0.0463  0.7614  1.5994
12169TIP3    H257923   5.111   2.659  10.634 -0.1101 -0.3071 -0.8414
12170TIP3   OH257924   5.199   2.201   4.884 -0.5785  0.4132 -0.5153
12170TIP3    H157925   5.126   2.165   4.834 -0.1444 -2.1419  0.5571
12170TIP3    H257926   5.249   2.125   4.914  0.5425  1.9006  1.7663
12171TIP3   OH257927   0.795   5.119   5.169  0.6934 -0.0073  0.0812
12171TIP3    H157928   0.858   5.181   5.207  1.1265  0.3741 -1.2108
12171TIP3    H257929   0.839   5.086   5.090  0.2847 -1.6296  0.4964
12172TIP3   OH257930   5.521   6.483   4.228  0.4476  0.5602 -0.6153
12172TIP3    H157931   5.616   6.475   4.239  0.4979 -0.8933 -1.7904
12172TIP3    H257932   5.505   6.462   4.136 -1.2374 -2.0014  0.1427
12173TIP3   OH257933   3.938   0.499  11.476  0.0064  0.0673  0.0495
12173TIP3    H157934   3.968   0.422  11.427 -0.5512  0.5724 -1.1351
12173TIP3    H257935   4.001   0.567  11.454  0.2794  0.0574  0.7876
12174TIP3   OH257936   3.124   3.469   0.361 -0.0721 -0.2048 -0.0297
12174TIP3    H157937   3.212   3.489   0.330  1.0351 -2.3739  1.4415
12174TIP3    H257938   3.091   3.404   0.299  0.9403 -2.2575  1.4896
12175TIP3   OH257939   6.226   1.053  11.590 -0.1736  0.1520  0.2696
12175TIP3    H157940   6.154   1.012  11.543 -0.0899 -0.7895  0.9473
12175TIP3    H257941   6.191   1.069  11.678  0.8392 -1.5335  1.0147
12176TIP3   OH257942   0.781   2.378  14.067 -0.0448  0.7293 -0.0294
12176TIP3    H157943   0.776   2.421  14.151 -1.0514  2.6307 -0.9979
12176TIP3    H257944   0.690   2.352  14.048  0.1527  0.4020 -0.5643
12177TIP3   OH257945   4.936   5.740  11.890 -0.3782  0.5735  0.2079
12177TIP3    H157946   4.861   5.755  11.832 -0.0004  1.5064 -0.0659
12177TIP3    H257947   5.006   5.712  11.831 -0.0870  1.1989  0.2494
12178TIP3   OH257948   6.121   1.986   2.764  0.3146  0.1347  0.1663
12178TIP3    H157949   6.108   2.055   2.828 -0.1742 -0.3375  0.5891
12178TIP3    H257950   6.115   1.905   2.814  1.5478 -0.2113 -0.2094
12179TIP3   OH257951   3.608   1.260  16.260  0.4161  1.1543 -0.0284
12179TIP3    H157952   3.549   1.321  16.304 -1.8483  0.1002 -1.4103
12179TIP3    H257953   3.601   1.283  16.167  1.7919  0.6490 -0.2742
12180TIP3   OH257954   1.448   1.116  15.776  0.0223 -0.2119  0.2839
12180TIP3    H157955   1.404   1.115  15.690  2.1590  1.0613 -0.9125
12180TIP3    H257956   1.399   1.181  15.826 -1.5925 -1.3598  0.2796
12181TIP3   OH257957   0.240   3.638  11.165 -0.5740 -0.0235 -0.0314
12181TIP3    H157958   0.243   3.734  11.170  1.4913 -0.0213 -0.3997
12181TIP3    H257959   0.230   3.620  11.072 -0.2600 -0.1641 -0.0377
12182TIP3   OH257960   6.679   4.871  16.063  0.2910 -0.0088  0.6663
12182TIP3    H157961   6.722   4.918  16.134  0.5586  0.0350  0.4797
12182TIP3    H257962   6.656   4.786  16.100  2.9297 -1.0857  0.0495
12183TIP3   OH257963   6.514   2.325  13.983  0.7056 -0.5569 -0.6784
12183TIP3    H157964   6.595   2.376  13.980  0.1732  0.2761 -1.6440
12183TIP3    H257965   6.526   2.265  14.056  1.1008  1.4013  0.9562
12184TIP3   OH257966   5.900   4.466  15.034  0.6816 -0.1971 -0.2630
12184TIP3    H157967   5.804   4.469  15.029  0.5820 -0.3176  1.2453
12184TIP3    H257968   5.921   4.373  15.039  0.7990 -0.1265  0.6008
12185TIP3   OH257969   5.010   6.521   0.596 -0.0612  0.0094 -0.4449
12185TIP3    H157970   5.101   6.530   0.624 -0.4902  0.9577  0.7349
12185TIP3    H257971   4.967   6.601   0.626 -1.2696 -0.3723 -1.0695
12186TIP3   OH257972   2.890   4.145  13.737  0.8123  0.5114  0.0559
12186TIP3    H157973   2.857   4.179  13.820 -0.8239  0.2222 -0.4500
12186TIP3    H257974   2.813   4.112  13.692  1.9776 -1.5542 -0.5675
12187TIP3   OH257975   4.324   2.226   5.200  0.4636 -0.1483  0.1620
12187TIP3    H157976   4.323   2.318   5.226 -1.2925 -0.5179  1.6623
12187TIP3    H257977   4.296   2.226   5.109 -0.3102  0.7740  0.3816
12188TIP3   OH257978   2.464   6.022  12.050 -0.0848  0.0004 -0.5316
12188TIP3    H157979   2.541   5.986  12.006  0.0138  1.5211 -1.6438
12188TIP3    H257980   2.494   6.037  12.140 -0.0197 -2.2654 -0.1114
12189TIP3   OH257981   4.505   2.687   4.900 -0.0886  0.1209  0.0286
12189TIP3    H157982   4.527   2.596   4.883 -0.2214 -0.1745  1.3684
12189TIP3    H257983   4.411   2.693   4.884 -0.6151 -0.6394  2.4746
12190TIP3   OH257984   2.045   6.444   0.003  0.2567  0.0688 -0.5268
12190TIP3    H157985   1.987   6.428  -0.071 -0.7596  0.1261  0.2386
12190TIP3    H257986   2.072   6.357   0.032 -0.8689 -0.0599  0.2007
12191TIP3   OH257987   6.634   3.560   5.598  0.1565 -0.0233  0.0740
12191TIP3    H157988   6.568   3.612   5.643 -0.0972  0.7917 -1.1754
12191TIP3    H257989   6.593   3.474   5.587  0.3145 -0.3131  1.5535
12192TIP3   OH257990   4.266   0.733   1.994 -0.1296 -0.4461 -0.2645
12192TIP3    H157991   4.195   0.786   2.031 -0.8846  0.5967 -2.9261
12192TIP3    H257992   4.346   0.771   2.030 -0.8002 -1.0273  2.0382
12193TIP3   OH257993   2.345   1.063   4.070  0.4132 -0.0198  0.0168
12193TIP3    H157994   2.360   1.057   3.976  0.3790 -1.3133  0.0669
12193TIP3    H257995   2.389   0.985   4.106  0.6522  0.5934  1.0996
12194TIP3   OH257996   6.296   5.185  13.115 -0.3569  0.4417 -0.4574
12194TIP3    H157997   6.208   5.175  13.077  0.5622 -1.3053 -2.3096
12194TIP3    H257998   6.310   5.103  13.163  0.7170  0.1496 -1.2460
12195TIP3   OH257999   6.794   3.941  12.096  0.3482  0.3031 -0.3222
12195TIP3    H158000   6.840   3.983  12.168 -0.4133 -0.8938  0.8959
12195TIP3    H258001   6.836   3.855  12.087 -0.5087 -0.1243 -0.3317
12196TIP3   OH258002   1.045   1.094  17.072 -0.2693  0.3377  0.7354
12196TIP3    H158003   1.111   1.051  17.017  0.2899 -0.3479  1.8928
12196TIP3    H258004   0.971   1.033  17.073 -0.5850  0.7066  0.1331
12197TIP3   OH258005   2.623   2.354  12.000  0.3478 -0.4234 -0.1201
12197TIP3    H158006   2.571   2.382  11.925 -0.6131 -0.9498  0.3341
12197TIP3    H258007   2.674   2.281  11.968 -0.3986 -0.9395 -0.1542
12198TIP3   OH258008   0.587   5.113   0.130 -0.3147  0.1581  0.6883
12198TIP3    H158009   0.520   5.147   0.189 -0.9689  0.6066 -0.2830
12198TIP3    H258010   0.570   5.156   0.046 -1.7506 -3.1246 -0.8954
12199TIP3   OH258011   2.320   4.725  12.327  0.2068 -0.4354 -0.3488
12199TIP3    H158012   2.262   4.675  12.268 -2.2964  3.4449 -1.5464
12199TIP3    H258013   2.308   4.683  12.412  0.3276 -3.3933 -1.6555
12200TIP3   OH258014   5.054   0.774  13.087 -0.3606  0.0473 -0.0756
12200TIP3    H158015   4.993   0.722  13.034 -0.0140  0.8143 -1.2540
12200TIP3    H258016   5.122   0.802  13.026  1.1688 -0.7286  1.2001
12201TIP3   OH258017   2.150   0.008   4.867 -0.2446 -0.8031  0.2602
12201TIP3    H158018   2.117  -0.079   4.844  0.9642 -0.6021 -2.6037
12201TIP3    H258019   2.234  -0.008   4.909 -0.3743 -1.0448  0.4286
12202TIP3   OH258020   5.888   1.779   3.940 -0.1418  0.4209 -0.3219
12202TIP3    H158021   5.808   1.732   3.917 -0.2780  0.5528 -0.1192
12202TIP3    H258022   5.929   1.723   4.007 -0.8369  1.1045  0.7020
12203TIP3   OH258023   1.761   3.340   4.788 -0.1488 -0.3293  0.1899
12203TIP3    H158024   1.735   3.248   4.777  1.7873 -0.7690 -1.2835
12203TIP3    H258025   1.690   3.378   4.840 -0.9949 -2.6503  0.9026
12204TIP3   OH258026   0.686   4.656   3.203  0.1021 -0.2232  0.4790
12204TIP3    H158027   0.777   4.628   3.192 -0.4534 -2.7918  1.6307
12204TIP3    H258028   0.659   4.682   3.115  1.0746 -2.4462 -0.5663
12205TIP3   OH258029   3.789   2.989  11.434  0.4981 -0.0446 -0.7844
12205TIP3    H158030   3.851   2.919  11.416  0.0635 -0.7716  0.4497
12205TIP3    H258031   3.741   3.001  11.352  1.4357 -0.3124 -1.3803
12206TIP3   OH258032   5.737   3.198   0.412 -0.3337 -0.2294  0.3098
12206TIP3    H158033   5.652   3.172   0.375 -0.1318 -2.4426  1.2205
12206TIP3    H258034   5.742   3.292   0.397 -2.8559 -0.0654  0.0302
12207TIP3   OH258035   5.217   5.318  14.486  0.3492  0.0192 -0.1866
12207TIP3    H158036   5.192   5.233  14.522 -0.4609  0.9502  1.5857
12207TIP3    H258037   5.310   5.326  14.505  0.5391 -0.6437 -0.7828
12208TIP3   OH258038   1.119   4.900  14.540  0.5259 -0.6765 -0.0587
12208TIP3    H158039   1.191   4.958  14.563 -1.5536  1.5425  1.3433
12208TIP3    H258040   1.047   4.928  14.597 -2.1181 -1.2451 -2.8736
12209TIP3   OH258041   1.407   5.490   2.688 -0.0816 -0.6814 -0.4117
12209TIP3    H158042   1.419   5.490   2.783 -0.7908 -0.2603 -0.3062
12209TIP3    H258043   1.495   5.491   2.652  0.2009 -1.5653  0.2354
12210TIP3   OH258044   2.431   1.235   4.498  0.0034  0.4680 -0.1294
12210TIP3    H158045   2.341   1.230   4.467 -0.6274 -0.9515  1.7332
12210TIP3    H258046   2.467   1.148   4.483  0.2887  0.3292  1.2317
12211TIP3   OH258047   1.714   4.727  13.503  0.6383 -0.2356  0.0215
12211TIP3    H158048   1.782   4.776  13.549  0.2948  1.8399 -1.5462
12211TIP3    H258049   1.743   4.724  13.412 -0.7052 -0.5098 -0.4239
12212TIP3   OH258050   4.123   2.139  13.624  0.1547  0.1082 -0.4550
12212TIP3    H158051   4.181   2.153  13.548 -1.6689 -0.0279 -1.9332
12212TIP3    H258052   4.056   2.206  13.615 -0.9751 -0.9143  0.1441
12213TIP3   OH258053   5.013   4.729  16.401  0.4698 -1.1636 -0.8194
12213TIP3    H158054   5.068   4.783  16.344 -0.7617 -1.4547 -2.3219
12213TIP3    H258055   5.070   4.707  16.475  1.5789  0.6216 -1.0896
12214TIP3   OH258056   4.175   5.932   3.946 -0.8954  0.2667 -0.0668
12214TIP3    H158057   4.213   6.018   3.962 -2.4469  0.5384  2.8415
12214TIP3    H258058   4.249   5.876   3.922  0.4190  1.9913 -0.1610
12215TIP3   OH258059   1.842   1.665   1.686  0.1008  0.2008  0.0147
12215TIP3    H158060   1.861   1.687   1.595  0.6314 -2.3463 -0.5866
12215TIP3    H258061   1.766   1.607   1.681 -0.7129  1.0922  1.3579
12216TIP3   OH258062   5.018   2.725  11.454  0.1904  0.3130  0.0127
12216TIP3    H158063   5.097   2.733  11.401  1.4103  1.3811  1.8912
12216TIP3    H258064   5.024   2.638  11.493 -1.2637 -0.9407 -2.2917
12217TIP3   OH258065   3.657   5.261  16.927  0.2790  0.2848  0.0477
12217TIP3    H158066   3.718   5.193  16.898 -0.5999  0.5383 -2.6604
12217TIP3    H258067   3.574   5.216  16.941 -0.4240  0.7261 -2.1749
12218TIP3   OH258068   3.085   1.565  12.044 -0.1665  0.2834  0.0264
12218TIP3    H158069   3.121   1.583  12.131  0.8400  0.2562 -0.3769
12218TIP3    H258070   3.119   1.635  11.989 -0.5085  0.0913 -0.4343
12219TIP3   OH258071   2.934   1.770   4.706 -0.0209 -0.0943 -0.0291
12219TIP3    H158072   2.862   1.717   4.743  1.1426 -0.9838  1.0677
12219TIP3    H258073   2.961   1.722   4.628 -1.1168  0.6769 -0.9155
12220TIP3   OH258074   1.724   4.904  16.377  0.7198  0.6024  0.0640
12220TIP3    H158075   1.806   4.909  16.327  0.4679 -0.6544 -0.5224
12220TIP3    H258076   1.668   4.968  16.335  0.0228 -1.3976 -2.3329
12221TIP3   OH258077   4.753   5.104   2.980  0.0782  0.1763  0.6085
12221TIP3    H158078   4.744   5.106   3.076  0.5910  1.2854  0.6530
12221TIP3    H258079   4.672   5.064   2.949 -0.0012 -0.3997  1.5175
12222TIP3   OH258080   2.521   1.279   3.658 -1.1386  0.1729  0.0615
12222TIP3    H158081   2.607   1.260   3.620 -1.0657 -1.1767  0.8097
12222TIP3    H258082   2.470   1.314   3.585  1.0550  4.6554  0.3622
12223TIP3   OH258083   2.438   1.498   2.686 -0.1147  0.2711  0.1796
12223TIP3    H158084   2.492   1.438   2.635  0.8570  1.5945 -0.3990
12223TIP3    H258085   2.430   1.457   2.772 -1.3674 -1.7714 -0.8287
12224TIP3   OH258086   0.409   3.723   6.152 -0.5010  0.5668  0.2895
12224TIP3    H158087   0.494   3.720   6.108 -1.6418  0.2461 -2.0610
12224TIP3    H258088   0.430   3.735   6.244  2.0995 -0.0596 -0.1433
12225TIP3   OH258089   0.833   1.071   4.772  0.7272 -0.4224  0.7513
12225TIP3    H158090   0.926   1.064   4.753  0.4743 -0.5223 -0.5736
12225TIP3    H258091   0.790   1.042   4.692 -0.4362  0.6613  0.9470
12226TIP3   OH258092   4.980   2.042  12.577  0.0728  0.0341  0.6504
12226TIP3    H158093   4.930   2.114  12.614 -2.9185 -0.2526 -2.3220
12226TIP3    H258094   5.012   2.076  12.493  0.6443 -1.3675  0.2730
12227TIP3   OH258095   6.746   1.051   4.297  0.3037  0.1729  0.4383
12227TIP3    H158096   6.791   1.061   4.213  1.3925  1.3564  1.1209
12227TIP3    H258097   6.656   1.079   4.280  0.0265 -1.3096 -0.7287
12228TIP3   OH258098   4.410   5.087  15.386  0.9643 -0.4957  0.2763
12228TIP3    H158099   4.383   5.128  15.304  0.2977  0.9303  1.1653
12228TIP3    H258100   4.505   5.082  15.381  0.9493 -0.1297 -0.4552
12229TIP3   OH258101   6.344   1.881   3.242 -0.1559 -0.1603  0.8144
12229TIP3    H158102   6.400   1.937   3.190  1.2155 -1.0640  1.2680
12229TIP3    H258103   6.401   1.809   3.270 -1.9066 -1.9414  0.0183
12230TIP3   OH258104   6.593   2.201   3.446 -0.3053  0.0649  0.2129
12230TIP3    H158105   6.606   2.250   3.364  0.2347 -0.6529 -0.1370
12230TIP3    H258106   6.552   2.264   3.505 -1.7472  0.3023 -0.9570
12231TIP3   OH258107   5.089   5.099  12.635 -0.1394  0.0023 -0.2977
12231TIP3    H158108   4.999   5.071  12.618  0.0077 -0.8075  0.1914
12231TIP3    H258109   5.114   5.150  12.558 -1.2334  0.7950 -0.1436
12232TIP3   OH258110   1.629   1.404  10.381 -0.0168 -0.2511 -0.0083
12232TIP3    H158111   1.690   1.370  10.315 -0.9601 -1.9874 -0.0334
12232TIP3    H258112   1.669   1.381  10.465 -0.4361 -1.0458 -0.0211
12233TIP3   OH258113   0.132   0.111   5.419 -0.2341 -0.0571 -0.2382
12233TIP3    H158114   0.228   0.118   5.411 -0.3089  0.6805 -0.5479
12233TIP3    H258115   0.119   0.030   5.469  0.6386  0.9383  1.7637
12234TIP3   OH258116   1.904   4.366   6.149  0.2433  0.2869  0.2036
12234TIP3    H158117   1.862   4.333   6.229 -0.2958  1.0153  0.2328
12234TIP3    H258118   1.834   4.364   6.083  0.4538  0.4969 -0.0292
12235TIP3   OH258119   2.019   5.322  13.144 -0.2375  0.0083  0.1725
12235TIP3    H158120   2.013   5.377  13.066  1.4344 -0.2843 -0.1965
12235TIP3    H258121   1.998   5.234  13.114  0.2724 -0.0816  0.0682
12236TIP3   OH258122   6.615   5.326   1.867  0.0883  0.3403 -0.1577
12236TIP3    H158123   6.525   5.297   1.851 -0.0559  0.6607  0.0506
12236TIP3    H258124   6.664   5.245   1.880 -0.1799  0.1640 -0.2277
12237TIP3   OH258125   2.363   4.548  12.972 -0.4244 -0.2608  0.1404
12237TIP3    H158126   2.445   4.590  12.944 -0.8318  0.0666 -0.5917
12237TIP3    H258127   2.391   4.465  13.011  0.2649 -0.1264 -0.0544
12238TIP3   OH258128   0.881   6.636  13.792 -0.1946  0.0882  0.3297
12238TIP3    H158129   0.856   6.584  13.715  0.5988  0.1305  0.0376
12238TIP3    H258130   0.937   6.578  13.843 -1.1307 -0.1188  1.1550
12239TIP3   OH258131   5.691   2.339  14.315 -0.3666  0.2671 -0.2805
12239TIP3    H158132   5.638   2.263  14.338  0.7817 -0.8168 -1.1044
12239TIP3    H258133   5.628   2.407  14.294 -1.4305 -0.9360 -1.0680
12240TIP3   OH258134   1.223   5.206  13.037  0.5648  0.2872 -0.4225
12240TIP3    H158135   1.131   5.211  13.064  1.0863 -1.9318  2.2123
12240TIP3    H258136   1.224   5.144  12.965  0.0889 -0.7382  0.4216
12241TIP3   OH258137   3.500   1.495   2.706  0.2776 -0.3971  0.0609
12241TIP3    H158138   3.473   1.580   2.672  0.8710 -0.0146  0.5201
12241TIP3    H258139   3.534   1.448   2.630 -1.6006 -0.8897 -0.5345
12242TIP3   OH258140   1.994   2.989  13.148  0.3051 -0.1294  0.6005
12242TIP3    H158141   1.971   3.077  13.177  0.7699 -0.0488  0.7349
12242TIP3    H258142   2.001   2.939  13.230 -2.7917 -1.0344  0.4435
12243TIP3   OH258143   5.025   6.255  14.895 -0.5192  0.3938 -0.4080
12243TIP3    H158144   4.999   6.331  14.948 -1.3314  0.1650 -0.4593
12243TIP3    H258145   5.104   6.222  14.937  0.2878  1.7141 -0.8268
12244TIP3   OH258146   5.453   5.392   3.180  0.2922  0.3643  0.0082
12244TIP3    H158147   5.415   5.363   3.263 -1.8240 -2.4934 -1.7629
12244TIP3    H258148   5.495   5.313   3.145  0.3610  1.2396 -2.0231
12245TIP3   OH258149   3.884   4.796   1.948 -0.2314 -0.3702  0.9945
12245TIP3    H158150   3.926   4.819   1.865  0.4308 -1.3323  1.0431
12245TIP3    H258151   3.956   4.782   2.009 -0.7215  0.6947  1.8528
12246TIP3   OH258152   5.620   1.610   5.134  0.0513  0.1486 -0.2863
12246TIP3    H158153   5.536   1.616   5.178  0.0020 -0.2471 -0.3157
12246TIP3    H258154   5.685   1.618   5.204 -0.0342 -1.1281 -0.0381
12247TIP3   OH258155   3.084   1.140  11.825  0.8756  0.4968  0.1610
12247TIP3    H158156   3.111   1.223  11.865  1.5420 -0.3492  1.5475
12247TIP3    H258157   3.130   1.138  11.742  1.5734  1.1170  0.5132
12248TIP3   OH258158   5.811   3.668  16.038  0.5853  0.4695  0.1391
12248TIP3    H158159   5.774   3.702  15.957 -1.7064 -0.0650  0.9026
12248TIP3    H258160   5.747   3.692  16.105  1.4158 -0.9185  1.4762
12249TIP3   OH258161   1.006   5.909   5.815 -0.3140 -0.2912 -0.5826
12249TIP3    H158162   1.078   5.852   5.786 -1.3200 -1.7497 -0.3050
12249TIP3    H258163   1.017   5.988   5.762  3.0644  0.6987  1.2880
12250TIP3   OH258164   0.390   0.537   2.031  0.7100 -0.6187 -0.1064
12250TIP3    H158165   0.387   0.459   2.086 -1.6403 -0.1879  0.4908
12250TIP3    H258166   0.374   0.610   2.092  0.2314  0.0622 -1.0179
12251TIP3   OH258167   0.467   2.615  16.942  0.3299  0.1001 -0.0194
12251TIP3    H158168   0.468   2.679  16.871 -0.0667 -1.9450 -1.9453
12251TIP3    H258169   0.559   2.592  16.955  0.4356  0.7292  0.4092
12252TIP3   OH258170   0.007   5.359  17.070 -0.9810 -0.0606  0.2673
12252TIP3    H158171  -0.082   5.385  17.045 -1.2662 -0.8623  0.4207
12252TIP3    H258172   0.031   5.292  17.005 -0.1572  0.7468 -0.2902
12253TIP3   OH258173   5.029   6.183  11.487 -0.2625 -0.0133  0.4052
12253TIP3    H158174   5.052   6.153  11.575  1.9413 -1.1963 -0.4894
12253TIP3    H258175   4.954   6.128  11.462  0.3490 -1.0679  0.8263
12254TIP3   OH258176   6.123   0.773  16.525  0.4503 -0.1366 -0.0233
12254TIP3    H158177   6.089   0.722  16.599  0.8877 -0.7152 -0.2133
12254TIP3    H258178   6.211   0.740  16.511  0.9838  1.1084  0.2368
12255TIP3   OH258179   4.910   6.180  15.735 -0.4177  0.2675 -0.1556
12255TIP3    H158180   4.851   6.106  15.755 -0.9896  0.8869  0.5087
12255TIP3    H258181   4.894   6.198  15.643  0.5682 -1.1570 -0.6479
12256TIP3   OH258182   5.736   1.931  12.419 -0.0800  0.2305  0.5586
12256TIP3    H158183   5.730   1.844  12.459  0.6099 -0.7743 -1.3581
12256TIP3    H258184   5.774   1.914  12.333  0.3646  2.4945  0.2527
12257TIP3   OH258185   6.106   1.151  12.959 -0.0236  0.7992  0.1663
12257TIP3    H158186   6.093   1.246  12.969 -1.6548  0.4802  1.5203
12257TIP3    H258187   6.096   1.116  13.048 -0.5331 -0.7708 -0.4788
12258TIP3   OH258188   0.381   3.729  15.327 -0.0916 -0.5262 -0.2092
12258TIP3    H158189   0.460   3.735  15.272 -0.3592  0.5548 -0.4970
12258TIP3    H258190   0.310   3.755  15.268 -0.6408 -1.2658  0.1168
12259TIP3   OH258191   4.631   6.614  15.366 -0.2045  0.1457  0.6779
12259TIP3    H158192   4.589   6.540  15.323  0.3863  0.2302 -0.0728
12259TIP3    H258193   4.592   6.691  15.324 -0.7502  0.2595  1.3913
12260TIP3   OH258194   1.992   5.209  14.110 -0.4928  0.5000  0.0432
12260TIP3    H158195   1.970   5.151  14.037 -1.8602  0.3349  0.5569
12260TIP3    H258196   1.958   5.164  14.187 -1.5730  1.9673  0.4562
12261TIP3   OH258197   0.435   2.878   0.389 -0.2689 -0.0648 -0.2496
12261TIP3    H158198   0.404   2.961   0.425  1.0014  0.6507 -0.7316
12261TIP3    H258199   0.355   2.831   0.364 -1.0982  0.2098  1.6891
12262TIP3   OH258200   1.872   3.140   3.929  0.6828  0.4833 -0.1143
12262TIP3    H158201   1.814   3.174   3.861 -1.4431 -0.1726  1.2707
12262TIP3    H258202   1.914   3.064   3.889  0.5072  0.8866 -1.0966
12263TIP3   OH258203   2.887   0.370   2.094 -0.2190  0.0985 -0.6189
12263TIP3    H158204   2.815   0.365   2.157  0.7496  0.9864  0.6277
12263TIP3    H258205   2.930   0.453   2.115  1.0888 -0.3584 -1.4071
12264TIP3   OH258206   6.766   4.091   4.123  0.0625 -0.0896  0.2418
12264TIP3    H158207   6.849   4.139   4.114 -0.0391 -0.0518 -0.4684
12264TIP3    H258208   6.790   4.013   4.173  0.9432 -1.1082 -1.7069
12265TIP3   OH258209   0.153   3.400  11.805 -0.5383 -0.2549 -0.1057
12265TIP3    H158210   0.230   3.442  11.766 -0.0094 -0.3101  0.8597
12265TIP3    H258211   0.115   3.351  11.733 -0.5196  0.9526 -0.9727
12266TIP3   OH258212   2.850   6.228   3.138  0.2355  0.0127 -0.8364
12266TIP3    H158213   2.804   6.242   3.055 -0.6914  3.4330  0.1211
12266TIP3    H258214   2.803   6.154   3.179  0.0550 -1.0501 -2.8399
12267TIP3   OH258215   4.467   6.507   3.983  0.2377  0.5046  0.0575
12267TIP3    H158216   4.413   6.498   3.904  1.1632  3.8077 -1.1280
12267TIP3    H258217   4.405   6.504   4.055 -0.8217 -1.0568 -0.8555
12268TIP3   OH258218   2.348   0.974  14.928  0.0312  0.0146 -0.4471
12268TIP3    H158219   2.290   1.027  14.874 -0.6597 -0.8448 -0.5640
12268TIP3    H258220   2.294   0.946  15.002 -0.1264 -1.8717 -1.2198
12269TIP3   OH258221   1.833   5.688   0.040 -0.7354 -0.0350  0.0618
12269TIP3    H158222   1.902   5.720   0.098  1.3620  1.1925 -2.8960
12269TIP3    H258223   1.761   5.749   0.053 -0.1029  0.5607  0.9382
12270TIP3   OH258224   2.509   4.442   2.684  0.5447 -0.0421 -0.4438
12270TIP3    H158225   2.602   4.461   2.673  0.3155  2.0896  0.7408
12270TIP3    H258226   2.506   4.382   2.759  0.9113  0.9321  0.3726
12271TIP3   OH258227   6.348   5.557  12.701 -0.5727 -0.4197  0.1929
12271TIP3    H158228   6.373   5.577  12.611  0.0612  0.8058  0.6106
12271TIP3    H258229   6.364   5.639  12.749 -1.7458 -0.7708  1.2431
12272TIP3   OH258230   2.649   6.370   4.303  0.2456 -0.0952  0.1329
12272TIP3    H158231   2.650   6.425   4.224  0.6509  0.6991  0.6820
12272TIP3    H258232   2.596   6.418   4.365  0.4107 -0.4412  0.5463
12273TIP3   OH258233   5.903   6.703  17.110 -0.3239 -0.7078 -0.2291
12273TIP3    H158234   5.870   6.641  17.175 -1.4644 -1.4241 -1.4413
12273TIP3    H258235   5.929   6.648  17.036  2.4283 -0.0595  0.1277
12274TIP3   OH258236   4.828   1.725   0.721  0.0117  0.0769  0.0840
12274TIP3    H158237   4.877   1.643   0.726 -2.7139 -1.8093 -1.1866
12274TIP3    H258238   4.767   1.721   0.794 -1.2241  0.1410 -0.9050
12275TIP3   OH258239   0.003   0.731   4.643  0.0906 -0.0968 -0.1123
12275TIP3    H158240  -0.091   0.712   4.646  0.0358  0.0518 -0.8529
12275TIP3    H258241   0.045   0.648   4.667 -0.2009 -0.5657 -1.1778
12276TIP3   OH258242   0.986   1.232   6.080  0.2175  0.6783  0.1279
12276TIP3    H158243   0.908   1.190   6.118  0.8292  0.3697  1.0789
12276TIP3    H258244   0.957   1.320   6.057 -0.5646  0.3779 -0.0692
12277TIP3   OH258245   1.256   2.238  14.296  0.2308 -0.2853 -0.1103
12277TIP3    H158246   1.297   2.321  14.271  0.2273 -0.2767 -0.0876
12277TIP3    H258247   1.171   2.239  14.252  0.2836 -0.3343 -0.2132
12278TIP3   OH258248   2.857   0.238   3.259  0.0402  0.2345 -0.4528
12278TIP3    H158249   2.919   0.166   3.249 -0.3561 -0.0311 -1.0138
12278TIP3    H258250   2.788   0.220   3.196 -2.0900 -0.9967  2.0404
12279TIP3   OH258251   3.595   5.032   0.940 -0.1527  0.1295 -0.0926
12279TIP3    H158252   3.620   4.946   0.907 -0.2589 -0.7342  1.9474
12279TIP3    H258253   3.677   5.080   0.946  0.1525 -0.4442  0.4140
12280TIP3   OH258254   1.539   1.368  14.260  0.2143 -0.2901 -0.0863
12280TIP3    H158255   1.550   1.441  14.199  1.5586 -0.4423 -0.0594
12280TIP3    H258256   1.523   1.292  14.204  1.8620 -0.5060 -0.3096
12281TIP3   OH258257   4.027   6.729   2.821 -0.0431  0.0513  0.3197
12281TIP3    H158258   4.109   6.776   2.836  0.1713 -0.5075  0.9275
12281TIP3    H258259   3.961   6.779   2.869 -0.1997  0.8865 -0.7169
12282TIP3   OH258260   2.654   2.440   2.916 -0.8535  0.1614  0.1776
12282TIP3    H158261   2.648   2.411   3.008 -0.3973 -0.4573  0.0267
12282TIP3    H258262   2.746   2.462   2.905 -0.9086  0.2328 -0.1302
12283TIP3   OH258263   0.187   6.110  17.026  0.3125 -0.2961  0.3342
12283TIP3    H158264   0.110   6.167  17.028  0.6505  0.3329 -1.6884
12283TIP3    H258265   0.164   6.040  16.965  1.0476 -0.5670  0.3537
12284TIP3   OH258266   1.475   1.886  15.699  0.7575  0.6844 -0.0383
12284TIP3    H158267   1.441   1.925  15.779  0.1834 -0.6669  0.4161
12284TIP3    H258268   1.557   1.844  15.727  0.5635  0.2241 -0.1594
12285TIP3   OH258269   2.687   5.590   4.927  0.1899  0.1408  0.2496
12285TIP3    H158270   2.700   5.583   5.021 -0.0043  0.3686  0.2954
12285TIP3    H258271   2.736   5.669   4.902 -1.4609  1.2916  0.5006
12286TIP3   OH258272   1.344   1.266  15.997  0.5507  0.0241  0.1157
12286TIP3    H158273   1.406   1.295  16.063  0.2621  0.8490  0.0271
12286TIP3    H258274   1.292   1.198  16.041  1.1313 -0.2721  0.3598
12287TIP3   OH258275   4.697   5.381   0.082 -0.1873 -0.2241 -0.2676
12287TIP3    H158276   4.610   5.351   0.107  0.3088 -0.6105  1.0738
12287TIP3    H258277   4.689   5.403  -0.011 -1.5963 -0.6612 -0.2717
12288TIP3   OH258278   3.004   6.416  13.564 -0.2944 -0.0068  0.1053
12288TIP3    H158279   3.040   6.501  13.538  1.3671 -0.4496  0.7853
12288TIP3    H258280   2.913   6.418  13.535  0.2161  1.2849 -1.5417
12289TIP3   OH258281   1.726   5.444  10.924 -0.0521 -0.0537  0.0681
12289TIP3    H158282   1.789   5.374  10.906 -0.2977  0.0075 -1.1213
12289TIP3    H258283   1.761   5.520  10.877 -1.9381 -0.5025 -2.2359
12290TIP3   OH258284   4.711   6.121  13.115 -0.3722 -0.0821 -0.2729
12290TIP3    H158285   4.668   6.193  13.069  0.1340 -0.2149 -0.9664
12290TIP3    H258286   4.801   6.121  13.081  0.8962  1.6090  2.7026
12291TIP3   OH258287   1.895   4.115   4.603 -1.2031  0.1488 -0.3424
12291TIP3    H158288   1.805   4.140   4.580 -1.9682 -1.7641  0.3790
12291TIP3    H258289   1.885   4.038   4.658  0.8697  0.4557  0.5557
12292TIP3   OH258290   3.249   4.251  14.632  0.1348 -0.4357 -0.2681
12292TIP3    H158291   3.290   4.252  14.718  0.4634 -0.2842 -0.4204
12292TIP3    H258292   3.167   4.205  14.644  0.7059 -1.4417 -0.1087
12293TIP3   OH258293   5.973   3.798  12.122  0.1646 -0.1841  0.0185
12293TIP3    H158294   5.885   3.837  12.122 -0.6351 -1.8925  0.6723
12293TIP3    H258295   6.014   3.832  12.043 -0.9015  1.0283 -0.0495
12294TIP3   OH258296   3.237   4.197  10.814 -0.0501 -0.0877  0.1134
12294TIP3    H158297   3.282   4.210  10.897 -1.0364 -2.1634  1.0618
12294TIP3    H258298   3.227   4.102  10.807 -0.5006  0.0716 -2.1183
12295TIP3   OH258299   4.078   0.325  15.446 -0.4839  0.3150  0.5306
12295TIP3    H158300   4.136   0.398  15.426 -1.9456  0.9600 -1.8882
12295TIP3    H258301   4.065   0.281  15.361 -1.4755 -1.3367  1.4859
12296TIP3   OH258302   4.386   3.956  14.958  0.1786 -0.4279 -0.3102
12296TIP3    H158303   4.408   3.990  15.045  1.2978 -0.5485 -0.5223
12296TIP3    H258304   4.294   3.932  14.964 -0.0281  0.5111  0.5342
12297TIP3   OH258305   4.760   0.341   0.235 -0.0176 -0.2873  0.2248
12297TIP3    H158306   4.756   0.436   0.249  1.1330 -0.1741 -0.1781
12297TIP3    H258307   4.724   0.328   0.147  2.6319  0.1259 -0.9997
12298TIP3   OH258308   6.689   2.080  16.242 -0.6913  0.1086  0.2088
12298TIP3    H158309   6.616   2.126  16.201 -0.8915 -0.0668  0.3659
12298TIP3    H258310   6.665   2.075  16.334 -1.5757 -1.9920 -0.0860
12299TIP3   OH258311   4.661   3.747  13.733 -0.0611  0.5464 -0.4850
12299TIP3    H158312   4.656   3.824  13.789 -1.9682  0.5434 -0.6110
12299TIP3    H258313   4.731   3.768  13.671  1.2091  1.0689  1.0606
12300TIP3   OH258314   2.616   3.596   0.166 -0.8382 -0.3154  0.0697
12300TIP3    H158315   2.573   3.595   0.081 -1.6862 -0.8633  0.4963
12300TIP3    H258316   2.630   3.504   0.187  0.9209 -0.1602 -0.2274
12301TIP3   OH258317   3.262   5.571   5.923 -0.0645  0.6896  0.2047
12301TIP3    H158318   3.274   5.490   5.872  0.3169  0.4477  0.6691
12301TIP3    H258319   3.225   5.541   6.006 -1.7569  1.1892 -0.3220
12302TIP3   OH258320   2.213   4.998  15.545  0.1087 -0.3923 -0.1974
12302TIP3    H158321   2.123   5.023  15.568  0.7857  0.0587  2.3603
12302TIP3    H258322   2.203   4.925  15.485 -1.9509  1.5567 -2.4496
12303TIP3   OH258323   1.722   1.155   2.603  0.4613  0.1484  0.1835
12303TIP3    H158324   1.724   1.074   2.551  3.4976 -0.5682  1.2004
12303TIP3    H258325   1.747   1.127   2.691  0.0468  2.0066  0.9256
12304TIP3   OH258326   1.664   3.070  17.091  0.2576 -0.0702  0.1107
12304TIP3    H158327   1.677   3.016  17.013 -2.5560 -1.3282  0.3902
12304TIP3    H258328   1.644   3.158  17.057  1.2515 -0.0610 -0.4774
12305TIP3   OH258329   3.268   0.662  16.050 -0.2873 -0.3418  0.1780
12305TIP3    H158330   3.249   0.655  15.956 -0.1452  1.1640  0.0086
12305TIP3    H258331   3.233   0.748  16.075  0.8777 -0.1345  1.1982
12306TIP3   OH258332   2.703   6.715   0.130  0.2523 -0.1766  0.0657
12306TIP3    H158333   2.644   6.784   0.161 -0.4041 -0.3445 -0.7797
12306TIP3    H258334   2.749   6.754   0.056 -1.8987 -1.3440 -2.0451
12307TIP3   OH258335   3.906   2.955  15.463  1.0603  0.1630 -0.3266
12307TIP3    H158336   3.914   2.926  15.372  1.3159  0.6943 -0.4751
12307TIP3    H258337   3.990   2.996  15.482  1.3150 -0.6751  0.4132
12308TIP3   OH258338   4.564   2.017   3.523  0.5662  0.2560  0.5120
12308TIP3    H158339   4.471   1.997   3.533  0.6407 -0.8731 -0.7703
12308TIP3    H258340   4.574   2.103   3.562 -1.0122  0.3892  0.6933
12309TIP3   OH258341   4.430   4.429   4.109  0.0445 -0.4240  0.1605
12309TIP3    H158342   4.519   4.395   4.114  0.6399  1.1541  1.7532
12309TIP3    H258343   4.433   4.493   4.038  0.3142 -0.1107  0.4450
12310TIP3   OH258344   0.738   2.260   3.085  0.1754  0.2800  0.6500
12310TIP3    H158345   0.782   2.323   3.142 -0.6622  1.6275 -0.1340
12310TIP3    H258346   0.671   2.221   3.141  0.1318  0.7389  0.9313
12311TIP3   OH258347   5.393   0.363   2.450 -0.2409  0.0597 -0.1050
12311TIP3    H158348   5.392   0.412   2.532  0.5098  0.2652 -0.2088
12311TIP3    H258349   5.396   0.431   2.382 -0.4808 -0.1123 -0.2854
12312TIP3   OH258350   4.068   5.864  13.938  0.1087 -0.1127 -0.5776
12312TIP3    H158351   4.156   5.895  13.958 -0.8475  1.5743  1.3835
12312TIP3    H258352   4.033   5.929  13.877 -1.0957  1.5787  1.7594
12313TIP3   OH258353   0.620   2.279  11.949  0.2581  0.0648 -0.1626
12313TIP3    H158354   0.668   2.319  12.022 -1.5748  0.0144  1.1640
12313TIP3    H258355   0.586   2.353  11.899  1.5851  0.0997 -1.0481
12314TIP3   OH258356   1.806   2.572  15.491 -0.0677 -0.3618 -0.0777
12314TIP3    H158357   1.810   2.562  15.586 -0.5061  1.4288  0.1645
12314TIP3    H258358   1.803   2.666  15.477 -2.1759 -0.5977 -1.7660
12315TIP3   OH258359   2.005   6.289   3.402 -0.0636 -0.3755  0.4534
12315TIP3    H158360   2.078   6.296   3.340  1.3735 -0.5250  2.0681
12315TIP3    H258361   1.930   6.265   3.347  0.8639  0.6586 -1.3925
12316TIP3   OH258362   1.619   3.111   4.678 -0.1674 -0.4653  0.4124
12316TIP3    H158363   1.556   3.178   4.651  0.0955 -0.5406 -0.4241
12316TIP3    H258364   1.569   3.052   4.734 -0.3944  0.4455  1.1784
12317TIP3   OH258365   3.498   6.736   2.114  0.7598  0.3211  0.1860
12317TIP3    H158366   3.563   6.691   2.167  1.2943  0.4368 -0.3595
12317TIP3    H258367   3.521   6.828   2.119  0.8150  0.3336 -0.2411
12318TIP3   OH258368   2.826   1.836   6.494  0.4058 -0.0108  0.4310
12318TIP3    H158369   2.827   1.931   6.497 -1.0287  0.1721 -2.2249
12318TIP3    H258370   2.745   1.811   6.540 -1.0483  0.3389 -1.7896
12319TIP3   OH258371   1.813   4.831   4.072 -0.3497  0.4637  0.6410
12319TIP3    H158372   1.808   4.763   4.005  0.8370  0.2925  0.7096
12319TIP3    H258373   1.740   4.813   4.131 -0.9262  0.1398 -0.1529
12320TIP3   OH258374   3.977   5.735  12.393 -0.3339  0.0683  0.3312
12320TIP3    H158375   3.948   5.667  12.454 -0.4616 -0.5820 -0.4441
12320TIP3    H258376   3.899   5.760  12.345 -0.3476  0.9828  0.8026
12321TIP3   OH258377   3.850   6.149  11.659  0.5561 -0.1484  0.5177
12321TIP3    H158378   3.928   6.167  11.607  1.1427 -0.3576  1.3030
12321TIP3    H258379   3.784   6.210  11.626  1.0580  0.0366 -0.1483
12322TIP3   OH258380   3.848   2.496   1.389 -0.1922 -0.1788 -0.4300
12322TIP3    H158381   3.861   2.434   1.461  0.6798 -1.2868 -1.4969
12322TIP3    H258382   3.797   2.447   1.324 -0.2588  0.5198 -0.9114
12323TIP3   OH258383   5.320   0.599   3.629  0.6340 -0.7354 -0.2405
12323TIP3    H158384   5.261   0.524   3.624  1.0291 -1.1228  0.5882
12323TIP3    H258385   5.295   0.655   3.556  1.4785 -2.4857 -1.9393
12324TIP3   OH258386   2.804   0.158   1.911  0.2150  0.2846 -0.1841
12324TIP3    H158387   2.883   0.104   1.914  0.8322  1.0162 -1.6713
12324TIP3    H258388   2.819   0.226   1.977 -0.2258 -0.8819  1.1506
12325TIP3   OH258389   0.639   3.488  11.779 -0.5906 -0.3550  0.5608
12325TIP3    H158390   0.695   3.453  11.709 -0.7128  0.8956 -0.2074
12325TIP3    H258391   0.643   3.423  11.848  2.1739 -0.1267  0.7278
12326TIP3   OH258392   0.227   6.345  12.614 -0.1571 -0.5567  0.0734
12326TIP3    H158393   0.215   6.421  12.670 -2.0202 -0.7986  0.0422
12326TIP3    H258394   0.302   6.299  12.652 -0.1851  0.2991  1.1966
12327TIP3   OH258395   2.790   2.219  16.792 -0.7353  0.3490  0.0766
12327TIP3    H158396   2.876   2.200  16.755 -0.6024 -0.2512  0.6641
12327TIP3    H258397   2.742   2.136  16.784 -0.7609  0.2582  1.0640
12328TIP3   OH258398   5.819   4.759   3.439 -0.1221  0.0780 -0.5103
12328TIP3    H158399   5.887   4.763   3.507  0.3735 -0.6452 -0.9386
12328TIP3    H258400   5.757   4.827   3.463 -1.7058 -2.1491  2.5123
12329TIP3   OH258401   0.559   6.660   2.517 -0.2679  0.4347 -0.2754
12329TIP3    H158402   0.549   6.710   2.437 -0.8224  1.2305  0.2743
12329TIP3    H258403   0.587   6.724   2.583 -0.8070  0.0085  0.3954
12330TIP3   OH258404   3.401   4.237  16.943  0.3869 -0.2482  0.1432
12330TIP3    H158405   3.367   4.156  16.981 -2.1333  0.3433 -0.6827
12330TIP3    H258406   3.394   4.301  17.014  0.1119 -0.2176  0.0898
12331TIP3   OH258407   6.141   3.441   6.010 -0.3220  0.8826  0.0164
12331TIP3    H158408   6.168   3.415   6.098  2.2524 -0.5965 -1.1113
12331TIP3    H258409   6.047   3.458   6.018 -0.2151  0.5919  2.9699
12332TIP3   OH258410   4.300   5.414  15.228 -0.3027  0.2590 -0.2234
12332TIP3    H158411   4.368   5.366  15.181 -1.1259 -1.8174  0.5723
12332TIP3    H258412   4.346   5.453  15.302  0.0448 -1.3834  0.4867
12333TIP3   OH258413   0.348   3.796  10.938 -0.0909  0.7572  0.5425
12333TIP3    H158414   0.276   3.754  10.892  0.2405  0.6462  0.1145
12333TIP3    H258415   0.425   3.778  10.884  0.2518  0.9099  0.9676
12334TIP3   OH258416   2.535   3.355   4.467  0.4111  0.3158 -0.6036
12334TIP3    H158417   2.572   3.323   4.384  0.8719 -1.9581  0.3876
12334TIP3    H258418   2.541   3.279   4.525 -1.7268  1.2673  0.9392
12335TIP3   OH258419   0.134   6.141  15.821  0.3945  0.2324  0.4956
12335TIP3    H158420   0.105   6.065  15.872 -0.2489  1.2335  1.6641
12335TIP3    H258421   0.149   6.106  15.733 -0.5932 -1.1103  0.8265
12336TIP3   OH258422   5.770   0.629   0.351  0.1820  0.5632  0.3091
12336TIP3    H158423   5.726   0.580   0.282  1.5770 -0.2918 -0.0212
12336TIP3    H258424   5.849   0.663   0.310  0.0794  1.6740  0.9916
12337TIP3   OH258425   6.318   1.536   2.622 -0.0062  0.2580  0.0955
12337TIP3    H158426   6.351   1.604   2.563 -0.5017 -0.1129 -0.6228
12337TIP3    H258427   6.397   1.493   2.654  0.2651  0.3232 -0.4689
12338TIP3   OH258428   3.342   4.992   6.107 -0.7074  0.5743 -0.0081
12338TIP3    H158429   3.292   5.071   6.128 -0.3680  0.1448  2.8366
12338TIP3    H258430   3.282   4.920   6.130 -0.2322  0.0348 -0.4463
12339TIP3   OH258431   3.053   1.698  16.605 -0.3210  0.4701  0.3348
12339TIP3    H158432   3.054   1.761  16.677 -0.3352  0.7521  0.0940
12339TIP3    H258433   2.975   1.722  16.554 -0.8500 -0.3343  0.7531
12340TIP3   OH258434   6.717   1.840  15.935  0.1169  0.6260  0.0024
12340TIP3    H158435   6.777   1.803  15.870 -0.2551  1.0725 -0.6103
12340TIP3    H258436   6.767   1.844  16.016  0.2449 -1.0295  0.0443
12341TIP3   OH258437   3.364   2.197  14.966  0.0357  0.2592 -0.9849
12341TIP3    H158438   3.314   2.267  15.009 -1.8556 -1.7811  0.3699
12341TIP3    H258439   3.415   2.157  15.037 -1.0590 -1.4516 -1.1085
12342TIP3   OH258440   2.941   5.748   3.047  0.2822  0.0341  0.0498
12342TIP3    H158441   2.988   5.818   3.002  0.3838 -0.1563 -0.1435
12342TIP3    H258442   2.967   5.756   3.139 -1.9066  2.0475  0.5745
12343TIP3   OH258443   6.802   4.234   5.281 -0.5611  0.1417  0.9872
12343TIP3    H158444   6.835   4.295   5.216  1.2431  1.1629  2.7367
12343TIP3    H258445   6.737   4.284   5.331 -0.7940 -0.1354  0.9675
12344TIP3   OH258446   0.170   5.331  11.798 -0.4522  1.0743 -0.3846
12344TIP3    H158447   0.256   5.344  11.837 -0.8818  0.7287  0.6992
12344TIP3    H258448   0.113   5.309  11.871 -0.9095 -1.4196 -1.3985
12345TIP3   OH258449   6.560   0.903  16.419  0.7176 -0.1118 -0.4302
12345TIP3    H158450   6.488   0.965  16.432  1.2531  0.0792  2.2510
12345TIP3    H258451   6.563   0.890  16.325 -1.4468  1.5039 -0.8196
12346TIP3   OH258452   5.457   4.269   3.721  0.5244  0.7664 -0.3494
12346TIP3    H158453   5.527   4.204   3.721  1.3081  1.5631  0.6847
12346TIP3    H258454   5.451   4.298   3.630  1.6751  0.8095 -0.4311
12347TIP3   OH258455   6.649   0.939   4.775 -0.3332 -0.0591 -0.0398
12347TIP3    H158456   6.650   0.947   4.680 -1.4864  0.2782 -0.0387
12347TIP3    H258457   6.725   0.988   4.804  0.1685 -0.3674 -0.7929
12348TIP3   OH258458   6.505   2.581  10.730 -0.2216 -0.4872 -0.6254
12348TIP3    H158459   6.508   2.653  10.793  2.3285 -1.1336  0.1597
12348TIP3    H258460   6.471   2.507  10.781  2.3404 -1.1477  0.2981
12349TIP3   OH258461   6.662   5.856   2.403  0.2889 -0.2547 -0.8914
12349TIP3    H158462   6.570   5.871   2.424  0.9630  2.8174  0.3305
12349TIP3    H258463   6.691   5.794   2.469 -0.9863 -1.7534 -1.6642
12350TIP3   OH258464   5.006   1.077   4.974  0.0734  0.3945 -1.1720
12350TIP3    H158465   5.050   1.032   5.046 -0.9265  0.9321 -0.2035
12350TIP3    H258466   5.077   1.105   4.916  0.9000  0.0666 -0.3421
12351TIP3   OH258467   0.389   0.599  16.590 -0.3128  0.4760  0.5892
12351TIP3    H158468   0.345   0.596  16.505  0.0823  0.7001  0.3742
12351TIP3    H258469   0.443   0.678  16.586  0.6632 -0.1757  0.5789
12352TIP3   OH258470   6.505   2.582  13.469  0.4187 -0.2607 -0.3735
12352TIP3    H158471   6.523   2.588  13.562 -1.6540 -0.4474  0.0940
12352TIP3    H258472   6.411   2.565  13.464  0.2083  1.1455 -2.5142
12353TIP3   OH258473   5.499   0.895  11.379  0.3640 -0.3593  0.4569
12353TIP3    H158474   5.577   0.946  11.402  0.7272 -1.0042  0.6745
12353TIP3    H258475   5.432   0.961  11.364  1.5996  0.4121 -2.4596
12354TIP3   OH258476   0.200   6.522   1.078  0.4771  0.6941  0.2642
12354TIP3    H158477   0.230   6.612   1.074  0.3909  0.7097 -0.1211
12354TIP3    H258478   0.155   6.508   0.994  2.0203 -0.2392 -0.4546
12355TIP3   OH258479   6.303   1.764   1.542 -0.7415  0.4222  0.2132
12355TIP3    H158480   6.315   1.859   1.545 -1.0214  0.5322 -1.4187
12355TIP3    H258481   6.270   1.746   1.454  0.0910 -1.2774  0.2031
12356TIP3   OH258482   1.917   6.149  14.404  0.4229  0.3255  0.5056
12356TIP3    H158483   1.851   6.144  14.473 -0.5145 -1.6515 -0.4609
12356TIP3    H258484   1.930   6.059  14.377 -0.1670  1.1165 -2.7857
12357TIP3   OH258485   3.967   2.586  15.224  0.0210 -0.3067  0.7008
12357TIP3    H158486   4.047   2.638  15.218  0.1546 -0.6118 -0.2940
12357TIP3    H258487   3.980   2.533  15.303  1.3935 -1.2751 -0.1225
12358TIP3   OH258488   5.477   5.390  14.614 -0.5590 -0.3184 -0.2639
12358TIP3    H158489   5.451   5.428  14.698  1.3129  1.8545 -0.5668
12358TIP3    H258490   5.485   5.296  14.632 -1.2102 -0.0452  1.7025
12359TIP3   OH258491   0.125   3.953   4.306 -0.1911 -0.5832 -0.7858
12359TIP3    H158492   0.115   3.862   4.277 -3.0147  0.0696 -2.2545
12359TIP3    H258493   0.121   3.948   4.401  0.7987 -2.0835 -0.7895
12360TIP3   OH258494   2.247   5.920   6.089 -0.2267  0.0720  0.5665
12360TIP3    H158495   2.229   5.829   6.113  0.7794 -0.0481  0.9143
12360TIP3    H258496   2.312   5.949   6.153  0.6529  0.5276 -0.5001
12361TIP3   OH258497   4.147   5.596   3.309  0.7564  0.1660 -0.5812
12361TIP3    H158498   4.218   5.556   3.259  1.9351 -0.7704  1.6931
12361TIP3    H258499   4.156   5.559   3.397 -0.0200  3.1251  0.8719
12362TIP3   OH258500   1.750   2.614  13.906 -0.3509 -0.9009 -0.0191
12362TIP3    H158501   1.687   2.678  13.940  1.2838 -0.1903  1.8590
12362TIP3    H258502   1.748   2.627  13.811 -0.8553  1.2188  0.2290
12363TIP3   OH258503   2.912   6.637   2.384  0.2674 -0.0288 -0.0118
12363TIP3    H158504   2.957   6.596   2.310  2.2622  0.7409  0.7027
12363TIP3    H258505   2.967   6.617   2.460 -1.2619 -0.0466  1.1443
12364TIP3   OH258506   2.672   4.848  14.889 -0.0006  0.0809 -0.2587
12364TIP3    H158507   2.675   4.895  14.806  0.0039  0.7599  0.1190
12364TIP3    H258508   2.625   4.907  14.948  2.8604  1.1194  1.1549
12365TIP3   OH258509   2.602   4.738   0.580 -0.2151 -0.4944  0.4607
12365TIP3    H158510   2.608   4.775   0.492  1.3666 -2.0181 -0.1318
12365TIP3    H258511   2.689   4.754   0.619 -0.2544 -1.5567  1.0131
12366TIP3   OH258512   2.571   1.323  16.438 -0.8676  0.7910  0.4405
12366TIP3    H158513   2.578   1.253  16.503  0.6973 -1.0405 -1.5398
12366TIP3    H258514   2.522   1.283  16.366 -1.0137  2.1609 -0.2411
12367TIP3   OH258515   0.426   3.682  12.902  0.8828  0.0690 -0.0544
12367TIP3    H158516   0.354   3.705  12.843  1.0289 -0.1941 -0.3413
12367TIP3    H258517   0.505   3.688  12.847  1.2308  1.5955  0.5818
12368TIP3   OH258518   3.689   1.713   4.491  0.2082  0.0077 -0.2137
12368TIP3    H158519   3.598   1.709   4.461  0.6534 -3.3141 -1.6264
12368TIP3    H258520   3.707   1.623   4.521  2.4578  1.0743  1.9725
12369TIP3   OH258521   2.947   3.874  15.348 -0.6241 -0.0577  0.0422
12369TIP3    H158522   2.970   3.931  15.422  0.2092  0.0161 -0.2652
12369TIP3    H258523   2.928   3.935  15.277  0.6588 -0.1500 -0.4018
12370TIP3   OH258524   2.058   3.478  10.729  0.3503 -0.2897 -0.6386
12370TIP3    H158525   2.009   3.554  10.760 -0.0537  0.2374 -2.4705
12370TIP3    H258526   1.995   3.406  10.729  0.2250 -0.1790 -0.7129
12371TIP3   OH258527   1.221   1.735  12.831  0.6206 -0.0326 -0.1414
12371TIP3    H158528   1.256   1.660  12.782  2.1133 -0.4437  1.4737
12371TIP3    H258529   1.277   1.809  12.806 -0.4272  0.4353 -1.2100
12372TIP3   OH258530   6.717   5.501   5.144  0.2316 -0.0077  0.0883
12372TIP3    H158531   6.785   5.548   5.097  0.1731 -1.1755 -1.2209
12372TIP3    H258532   6.680   5.565   5.205  1.3915  1.0857 -0.3380
12373TIP3   OH258533   3.436   0.725   1.260 -0.6226 -0.1017  0.1478
12373TIP3    H158534   3.517   0.681   1.233 -0.5549 -0.1612  0.4438
12373TIP3    H258535   3.444   0.733   1.355  0.4443  2.6496 -0.0907
12374TIP3   OH258536   1.594   3.373   2.156 -0.2043 -0.8320 -0.3626
12374TIP3    H158537   1.529   3.304   2.172 -0.0736 -1.0031 -0.5550
12374TIP3    H258538   1.656   3.333   2.095  0.2290 -0.7641  0.0244
12375TIP3   OH258539   3.727   1.843   2.775 -0.1144 -0.1803  0.2055
12375TIP3    H158540   3.733   1.923   2.723 -0.1413 -0.9753 -1.0536
12375TIP3    H258541   3.699   1.873   2.862 -1.5411  1.0226 -0.6335
12376TIP3   OH258542   0.486   0.981   2.351 -0.4190  0.6163 -0.5240
12376TIP3    H158543   0.502   0.994   2.444 -0.4572 -0.3779 -0.3587
12376TIP3    H258544   0.572   0.993   2.310 -0.3541  0.8119 -0.3303
12377TIP3   OH258545   4.871   1.764   0.187 -0.2141  0.0551  0.1450
12377TIP3    H158546   4.958   1.740   0.218  0.7996  0.9397 -1.8411
12377TIP3    H258547   4.822   1.787   0.266  1.8202  0.9636  1.2043
12378TIP3   OH258548   4.720   0.943  12.583 -0.2157 -1.1516  0.3407
12378TIP3    H158549   4.756   0.891  12.511 -3.2001  0.2384 -2.3693
12378TIP3    H258550   4.725   1.033  12.553 -1.7204 -0.5445  1.7866
12379TIP3   OH258551   6.600   5.449  11.348 -0.1118  0.4176 -0.3590
12379TIP3    H158552   6.626   5.360  11.325  0.1865  0.0575  1.2713
12379TIP3    H258553   6.524   5.438  11.405  0.9087  1.0932  1.2001
12380TIP3   OH258554   0.679   0.424   2.769  0.1209 -0.1457 -0.0838
12380TIP3    H158555   0.591   0.456   2.789 -0.9383 -2.7372 -0.2451
12380TIP3    H258556   0.725   0.427   2.853 -0.6892 -0.3973  0.3869
12381TIP3   OH258557   3.798   3.911   4.627 -0.5846 -0.0561  0.6187
12381TIP3    H158558   3.755   3.845   4.682  0.0473 -1.3365 -0.3652
12381TIP3    H258559   3.789   3.877   4.538  2.5448 -0.5116  0.3680
12382TIP3   OH258560   4.911   4.932   4.178 -0.1101 -0.3553  0.1181
12382TIP3    H158561   4.982   4.996   4.185 -1.3139  0.9039  1.3722
12382TIP3    H258562   4.883   4.917   4.269 -1.8324 -0.3477 -0.3729
12383TIP3   OH258563   0.555   6.207   0.433 -0.1709  0.2500  0.4115
12383TIP3    H158564   0.530   6.280   0.490 -0.5857  0.3569  0.0947
12383TIP3    H258565   0.577   6.248   0.350 -0.1264  0.0389  0.3190
12384TIP3   OH258566   2.573   5.975   5.941 -0.5991  0.3686 -0.6445
12384TIP3    H158567   2.605   6.052   5.895 -0.2760  0.3643 -0.4271
12384TIP3    H258568   2.587   5.994   6.033  0.9681 -0.5924 -0.6529
12385TIP3   OH258569   4.120   4.982   1.173 -0.2173 -0.1982  0.6281
12385TIP3    H158570   4.081   5.066   1.194  0.2387 -0.2882  1.9320
12385TIP3    H258571   4.200   4.979   1.224  2.9018  0.9720 -3.6732
12386TIP3   OH258572   5.324   5.333  13.705 -0.1263  0.5677 -0.1942
12386TIP3    H158573   5.353   5.358  13.617 -3.1551  3.6851 -0.5359
12386TIP3    H258574   5.229   5.321  13.696 -0.2582 -0.8009  2.3491
12387TIP3   OH258575   6.800   1.454  14.377 -0.6262 -0.4605 -0.5878
12387TIP3    H158576   6.748   1.483  14.302 -2.5943  0.5071  1.0578
12387TIP3    H258577   6.843   1.374  14.347 -3.5885 -1.7109 -1.9251
12388TIP3   OH258578   0.690   4.204   5.682  0.0286  0.1163  0.1899
12388TIP3    H158579   0.625   4.144   5.718 -0.5141 -0.1526 -1.1579
12388TIP3    H258580   0.667   4.290   5.718 -0.6022 -0.1042  0.3259
12389TIP3   OH258581   0.057   5.038   1.117 -0.0793 -0.1788  0.1791
12389TIP3    H158582  -0.008   5.002   1.177  0.1907  0.1945  0.7036
12389TIP3    H258583   0.078   5.124   1.153  0.7344 -0.3113  0.0436
12390TIP3   OH258584   1.911   0.566  12.182  0.2095  0.8455 -0.0095
12390TIP3    H158585   1.833   0.515  12.202  0.4623  0.0457 -0.9992
12390TIP3    H258586   1.983   0.514  12.217  0.3301  1.5597  0.8641
12391TIP3   OH258587   4.289   4.633  15.725  0.0132 -0.2761 -0.6818
12391TIP3    H158588   4.228   4.594  15.788  0.5737  0.1810  0.1571
12391TIP3    H258589   4.373   4.635  15.770 -0.0261  2.0999 -0.5745
12392TIP3   OH258590   5.233   1.839  13.843  0.7410 -0.1928 -0.0899
12392TIP3    H158591   5.313   1.868  13.800 -0.1884  1.1100 -1.0212
12392TIP3    H258592   5.232   1.884  13.927  1.1194 -0.4436  0.0505
12393TIP3   OH258593   4.334   2.426  16.723  0.6275  0.2269  0.2680
12393TIP3    H158594   4.363   2.407  16.634 -0.3788  1.1286 -0.2867
12393TIP3    H258595   4.336   2.522  16.728  0.2792  0.1961  1.0778
12394TIP3   OH258596   5.308   6.356  12.217  0.2744 -0.6212  0.2742
12394TIP3    H158597   5.381   6.321  12.166  0.6173 -0.3891  0.6025
12394TIP3    H258598   5.300   6.298  12.292 -1.4381 -2.0828 -0.9674
12395TIP3   OH258599   0.839   0.924   0.066 -0.0669  0.5008 -0.3032
12395TIP3    H158600   0.884   0.938   0.149 -1.0628  1.8881  0.0393
12395TIP3    H258601   0.788   0.845   0.079  0.0101  0.5489  0.3054
12396TIP3   OH258602   4.458   4.909  16.876 -0.2141  0.3014  0.7888
12396TIP3    H158603   4.425   4.839  16.931 -1.7563  0.7763  0.5076
12396TIP3    H258604   4.546   4.881  16.851  0.7476  0.2897  3.8468
12397TIP3   OH258605   3.411   3.505  10.902 -0.9127 -0.6722  0.1483
12397TIP3    H158606   3.319   3.530  10.892 -1.0882 -1.0155  0.8627
12397TIP3    H258607   3.456   3.586  10.923 -1.2155 -0.6610  0.7796
12398TIP3   OH258608   2.754   2.814  13.553  0.2822 -0.3053  0.3996
12398TIP3    H158609   2.717   2.852  13.474 -0.1065 -2.4445 -0.5224
12398TIP3    H258610   2.848   2.831  13.545  0.3025 -0.8414 -0.7445
12399TIP3   OH258611   5.262   1.247  13.701  0.4936  0.3603  0.6801
12399TIP3    H158612   5.303   1.184  13.642  2.2282  1.3534  0.7677
12399TIP3    H258613   5.207   1.194  13.758 -0.5087 -0.7361 -1.1929
12400TIP3   OH258614   4.936   6.154  15.472 -0.3273  0.2080 -1.1267
12400TIP3    H158615   4.912   6.081  15.414  0.7380 -0.9886 -0.1332
12400TIP3    H258616   4.920   6.232  15.420  0.2256 -0.8015 -2.9015
12401TIP3   OH258617   1.735   3.522  14.711 -0.8665  0.3442 -0.2263
12401TIP3    H158618   1.760   3.615  14.716 -3.4175  1.1351 -0.8860
12401TIP3    H258619   1.658   3.515  14.767  0.1556 -1.7583  1.0035
12402TIP3   OH258620   0.827   5.038  11.766 -0.5027 -0.3541  0.7112
12402TIP3    H158621   0.915   5.069  11.788  0.5683 -1.1728 -2.0056
12402TIP3    H258622   0.786   5.111  11.720 -1.4385  0.1595  2.2974
12403TIP3   OH258623   2.418   2.876   1.537  0.1284  0.1933 -0.0192
12403TIP3    H158624   2.486   2.811   1.515  0.0829 -0.9667  2.8577
12403TIP3    H258625   2.339   2.843   1.494  0.4749 -0.8087  0.0738
12404TIP3   OH258626   6.361   0.876  15.961 -0.1854  0.0458  0.3545
12404TIP3    H158627   6.332   0.954  15.914 -2.9899 -1.6727 -1.0140
12404TIP3    H258628   6.282   0.841  16.001  0.6425 -2.8609 -0.3142
12405TIP3   OH258629   6.063   1.836  12.709 -0.4560 -0.5249  0.5588
12405TIP3    H158630   5.996   1.773  12.682 -0.9506 -0.0201  0.6195
12405TIP3    H258631   6.048   1.849  12.802 -0.0071 -0.7250  0.6637
12406TIP3   OH258632   5.470   2.421  12.697 -0.5218 -0.4199  0.3928
12406TIP3    H158633   5.492   2.328  12.691 -0.1097 -0.2473 -1.3089
12406TIP3    H258634   5.423   2.440  12.616 -0.0160  0.9923  0.4043
12407TIP3   OH258635   4.191   4.244  13.309 -0.2418 -0.4532 -0.1858
12407TIP3    H158636   4.135   4.237  13.386  0.9745  1.8297  1.0291
12407TIP3    H258637   4.132   4.236  13.235 -2.0904  1.0160  1.0298
12408TIP3   OH258638   5.394   4.040  13.050  0.1802  0.6471 -0.0024
12408TIP3    H158639   5.358   4.019  13.136  0.8496 -0.3093  0.0668
12408TIP3    H258640   5.389   4.135  13.044  0.7591  0.7851  1.3785
12409TIP3   OH258641   1.394   2.166  12.093 -0.7367 -0.3105 -0.1884
12409TIP3    H158642   1.403   2.251  12.051 -2.0584  0.6530  1.3552
12409TIP3    H258643   1.349   2.112  12.028 -0.1455  0.2479 -1.0832
12410TIP3   OH258644   4.007   4.177   5.051  0.0098 -0.5536  0.4795
12410TIP3    H158645   3.974   4.249   5.104  1.3280 -0.7993  1.7044
12410TIP3    H258646   4.002   4.101   5.109  0.7673 -0.9875 -0.0094
12411TIP3   OH258647   3.927   6.350   4.870 -0.4073  0.2227  0.4971
12411TIP3    H158648   3.964   6.325   4.954 -3.1592 -2.0833  1.1834
12411TIP3    H258649   3.984   6.307   4.805  0.8540  0.7808  1.2027
12412TIP3   OH258650   2.874   2.927  15.728 -0.2001  0.3711 -0.1435
12412TIP3    H158651   2.887   2.838  15.694 -0.9197 -0.2313  1.0925
12412TIP3    H258652   2.810   2.917  15.798  0.4989  1.7145  0.7281
12413TIP3   OH258653   2.439   6.774  14.703 -0.3278  0.2711 -0.0535
12413TIP3    H158654   2.523   6.733  14.724 -0.9826 -1.2830 -0.3173
12413TIP3    H258655   2.390   6.773  14.786 -0.1140  1.1254  0.0883
12414TIP3   OH258656   3.008   0.771   1.567  0.3973  0.2360  0.1594
12414TIP3    H158657   2.924   0.756   1.610 -0.3380  1.0585 -0.9289
12414TIP3    H258658   3.002   0.860   1.533  1.8372  0.4109  0.3156
12415TIP3   OH258659   4.295   6.213   3.924 -0.5255  0.4792 -0.0777
12415TIP3    H158660   4.299   6.298   3.880 -1.5094  0.8088  0.4387
12415TIP3    H258661   4.378   6.206   3.970 -0.2119  0.9171 -0.5611
12416TIP3   OH258662   5.338   3.766   5.575  0.6840 -0.8608  0.6536
12416TIP3    H158663   5.430   3.789   5.580  0.2605  0.8957  1.2782
12416TIP3    H258664   5.294   3.828   5.633 -1.0718 -0.4804 -0.9527
12417TIP3   OH258665   1.720   0.167   0.783 -0.7229  0.2892  0.1503
12417TIP3    H158666   1.688   0.079   0.762 -0.5907  0.1671  0.4515
12417TIP3    H258667   1.660   0.199   0.849  0.0137 -0.1087  1.0334
12418TIP3   OH258668   6.356   6.368  13.482  0.4044  0.0445  0.0120
12418TIP3    H158669   6.316   6.383  13.567 -0.3797 -1.5621 -0.0216
12418TIP3    H258670   6.416   6.441  13.469 -3.4941  3.5159 -0.5976
12419TIP3   OH258671   4.469   3.924  13.244 -0.0950  0.3681 -0.2952
12419TIP3    H158672   4.380   3.906  13.275 -0.1082 -1.5993 -1.3201
12419TIP3    H258673   4.516   3.842  13.257  1.0956  0.8401 -1.3833
12420TIP3   OH258674   2.671   0.607   4.342 -0.2247  0.0725 -0.3838
12420TIP3    H158675   2.719   0.610   4.259 -1.2045 -0.0600 -0.9744
12420TIP3    H258676   2.738   0.615   4.409  0.7073 -0.8946 -1.1674
12421TIP3   OH258677   6.263   6.489   2.817 -0.4738 -0.1674 -0.2198
12421TIP3    H158678   6.329   6.558   2.809 -2.0385  1.4263 -0.0689
12421TIP3    H258679   6.260   6.468   2.910  0.9681 -1.4747 -0.4371
12422TIP3   OH258680   3.677   0.462  14.248  0.4986 -0.3138 -0.2628
12422TIP3    H158681   3.621   0.458  14.325  1.1462 -0.6879  0.2011
12422TIP3    H258682   3.710   0.552  14.246 -0.5017  0.0521 -0.8255
12423TIP3   OH258683   5.339   5.401  11.760  0.4387 -0.5411 -0.4989
12423TIP3    H158684   5.390   5.435  11.685  0.3013 -0.9849 -0.7957
12423TIP3    H258685   5.405   5.375  11.823  0.5496  0.3300 -0.2361
12424TIP3   OH258686   5.139   1.853  13.537  0.1856  0.5465  0.1451
12424TIP3    H158687   5.044   1.841  13.541  0.1344  0.1563 -1.5471
12424TIP3    H258688   5.165   1.871  13.628 -1.4156  0.0792  0.7267
12425TIP3   OH258689   1.612   4.153   6.851  0.7889 -0.2762  0.1645
12425TIP3    H158690   1.596   4.184   6.940  0.9035  1.5703 -0.4143
12425TIP3    H258691   1.527   4.123   6.821  0.1930  1.4360  0.0623
12426TIP3   OH258692   2.529   6.349   4.024 -0.1510 -0.6426  0.4522
12426TIP3    H158693   2.574   6.281   4.074 -0.7396 -0.8547  0.7051
12426TIP3    H258694   2.446   6.362   4.070 -0.5771 -0.6294 -0.3045
12427TIP3   OH258695   5.874   6.278  16.176  0.4397  0.1111 -0.1923
12427TIP3    H158696   5.788   6.237  16.168 -0.3439  1.9011 -2.1522
12427TIP3    H258697   5.922   6.246  16.100  1.4125 -0.5901  0.6968
12428TIP3   OH258698   4.650   6.363   2.905  0.0834 -0.1835  0.6997
12428TIP3    H158699   4.726   6.351   2.962  0.0984  2.9376  1.5095
12428TIP3    H258700   4.682   6.421   2.836 -1.3704  0.5924  0.6529
12429TIP3   OH258701   2.585   5.748  12.661  0.3658 -0.0925 -0.3968
12429TIP3    H158702   2.670   5.783  12.687 -0.1899  1.0656 -0.0642
12429TIP3    H258703   2.603   5.658  12.633  1.5559 -0.1381  0.4649
12430TIP3   OH258704   6.213   6.736  14.208 -0.3879 -0.5647  0.5468
12430TIP3    H158705   6.149   6.731  14.279 -2.6597  0.1881 -1.3170
12430TIP3    H258706   6.214   6.648  14.170 -0.6958 -0.4674  0.3026
12431TIP3   OH258707   1.476   6.215   0.016  0.0021  0.3540  0.4822
12431TIP3    H158708   1.518   6.291   0.055 -0.8639  2.0496 -1.6979
12431TIP3    H258709   1.383   6.231   0.027 -0.1885 -0.9067  0.8499
12432TIP3   OH258710   4.513   1.272   4.378 -0.1491 -0.1898  0.0299
12432TIP3    H158711   4.572   1.196   4.376 -0.1230 -0.1626 -0.2993
12432TIP3    H258712   4.562   1.339   4.425 -0.3754 -0.5410  0.7848
12433TIP3   OH258713   5.740   5.745   0.201 -0.1570 -0.5139 -0.0296
12433TIP3    H158714   5.827   5.775   0.172  0.4269 -1.6994  0.4221
12433TIP3    H258715   5.742   5.757   0.296 -1.3559  1.5573 -0.1960
12434TIP3   OH258716   0.995   1.437   5.118  0.6428  0.2750 -0.8918
12434TIP3    H158717   1.077   1.413   5.075  1.4529  1.5609 -0.1323
12434TIP3    H258718   0.995   1.388   5.200  0.4148 -0.0852 -1.1041
12435TIP3   OH258719   6.395   3.228  10.769 -0.0425  0.8927  0.0800
12435TIP3    H158720   6.320   3.279  10.737  0.0537  1.7127  1.1229
12435TIP3    H258721   6.356   3.153  10.814 -0.2345  1.0933  0.2520
12436TIP3   OH258722   5.639   2.963   3.146  1.0748 -0.3987 -0.1174
12436TIP3    H158723   5.607   3.013   3.071  0.6265  0.1503  0.4309
12436TIP3    H258724   5.571   2.898   3.162  1.7652 -1.3653 -0.9767
12437TIP3   OH258725   4.738   2.901   1.370 -0.9827  0.4600  1.0294
12437TIP3    H158726   4.782   2.958   1.307 -1.0813 -0.0848  0.4617
12437TIP3    H258727   4.807   2.876   1.432 -0.8688  0.9350  1.0969
12438TIP3   OH258728   6.146   3.064   3.366  0.2379  0.0434  0.2866
12438TIP3    H158729   6.121   2.971   3.368 -0.5218  0.2507  1.2625
12438TIP3    H258730   6.225   3.069   3.420  0.0463  0.0229  0.5713
12439TIP3   OH258731   6.231   5.715   4.032 -0.3823 -0.5732 -0.2304
12439TIP3    H158732   6.174   5.787   4.059  1.0966  0.2734  0.7450
12439TIP3    H258733   6.209   5.643   4.092 -1.1060 -0.6026 -0.5152
12440TIP3   OH258734   2.243   6.633  13.371  0.8326 -0.7010 -0.0992
12440TIP3    H158735   2.285   6.590  13.446  1.7368 -0.6231 -0.5530
12440TIP3    H258736   2.315   6.666  13.318  0.2182  2.5649  0.8562
12441TIP3   OH258737   4.178   2.054  15.119 -0.1449 -0.0586 -0.1268
12441TIP3    H158738   4.224   1.970  15.124  1.4638  0.8304  0.7117
12441TIP3    H258739   4.181   2.076  15.026 -0.9023 -1.0690 -0.4149
12442TIP3   OH258740   2.500   5.021   2.653  0.7114 -0.0768  0.0136
12442TIP3    H158741   2.428   5.075   2.687 -0.5213 -0.0691 -2.4003
12442TIP3    H258742   2.470   4.931   2.667  0.2387 -0.0739 -0.9246
12443TIP3   OH258743   3.300   4.257  16.649  0.0360 -0.0089 -0.4831
12443TIP3    H158744   3.207   4.278  16.646 -0.1431 -0.4068  1.2215
12443TIP3    H258745   3.322   4.258  16.742  1.9183  0.8287 -0.8839
12444TIP3   OH258746   2.457   5.847   5.643  0.1579  0.6615 -0.1492
12444TIP3    H158747   2.478   5.927   5.596  3.1840 -0.6608 -1.3421
12444TIP3    H258748   2.505   5.778   5.596 -1.2538 -1.6617  1.5658
12445TIP3   OH258749   5.714   3.757  14.414  0.2301  0.1135  0.3421
12445TIP3    H158750   5.658   3.734  14.489 -0.5774  2.2520  0.4634
12445TIP3    H258751   5.800   3.774  14.453  0.3251 -0.6488  0.4943
12446TIP3   OH258752   0.684   5.448  16.976 -0.4318 -0.8428 -0.5799
12446TIP3    H158753   0.674   5.535  16.937 -0.1759  0.1536  1.4627
12446TIP3    H258754   0.776   5.426  16.963  0.0410  0.2037  0.8302
12447TIP3   OH258755   1.731   0.278  14.692  0.2863 -0.6297  0.9045
12447TIP3    H158756   1.695   0.207  14.745 -1.6574  0.0323  0.5344
12447TIP3    H258757   1.678   0.355  14.714  0.8567  0.1769 -0.3967
12448TIP3   OH258758   3.937   6.785   1.729 -0.8377 -0.3129  0.0521
12448TIP3    H158759   3.849   6.753   1.748 -1.2952 -0.2907 -1.8033
12448TIP3    H258760   3.993   6.708   1.740 -1.0459 -0.2958  1.3597
12449TIP3   OH258761   6.500   6.557   3.815 -0.2942 -0.2276 -0.1901
12449TIP3    H158762   6.528   6.648   3.804 -1.3713  0.0868 -0.5108
12449TIP3    H258763   6.406   6.564   3.832 -0.3277 -1.2683  0.0820
12450TIP3   OH258764   0.082   0.015  15.998 -0.4301 -0.1425 -0.0906
12450TIP3    H158765   0.101   0.107  16.017 -0.7896  0.2387 -1.4738
12450TIP3    H258766  -0.014   0.012  15.993 -0.3713 -0.2081 -1.7210
12451TIP3   OH258767   0.968   1.196   4.389  0.1049 -0.1165  0.9504
12451TIP3    H158768   1.001   1.280   4.420  0.4401  0.0594  0.1318
12451TIP3    H258769   0.962   1.206   4.294 -1.0933 -0.5737  0.9576
12452TIP3   OH258770   6.132   0.551  10.370 -0.2991  0.1537 -0.0899
12452TIP3    H158771   6.135   0.646  10.378  2.2401  0.1347 -0.1063
12452TIP3    H258772   6.171   0.532  10.285  0.1386 -0.9341  0.3322
12453TIP3   OH258773   5.320   0.161  11.146  0.0226 -0.1503  0.5687
12453TIP3    H158774   5.237   0.163  11.098 -0.0442  0.2317  0.6951
12453TIP3    H258775   5.307   0.097  11.216  0.8905 -2.4990 -1.2850
12454TIP3   OH258776   6.395   4.094  10.644 -0.0623  0.1015  0.2915
12454TIP3    H158777   6.338   4.031  10.601  0.2723 -0.8685  1.2344
12454TIP3    H258778   6.481   4.080  10.605 -0.1005  0.3689  0.1052
12455TIP3   OH258779   1.406   0.050   5.438  0.1605 -0.3495  0.1852
12455TIP3    H158780   1.418   0.120   5.501 -0.6848 -0.1630  0.1523
12455TIP3    H258781   1.488   0.000   5.441  1.1477  1.1758 -0.4813
12456TIP3   OH258782   2.393   4.542   4.929  0.2111  0.1902  0.1223
12456TIP3    H158783   2.353   4.628   4.944 -1.8233 -0.7691  0.6008
12456TIP3    H258784   2.411   4.540   4.835  1.1622  1.4648  0.2533
12457TIP3   OH258785   3.651   6.550  11.650  0.5534 -0.4152 -0.0639
12457TIP3    H158786   3.637   6.482  11.583  0.5630 -1.0976  0.6125
12457TIP3    H258787   3.746   6.564  11.650  1.1147 -3.1838  2.3916
12458TIP3   OH258788   4.820   2.802   0.874 -0.3377 -0.2965 -0.6911
12458TIP3    H158789   4.755   2.756   0.821 -1.5059  0.1543  0.3028
12458TIP3    H258790   4.815   2.759   0.960 -1.5522  1.6703  0.3016
12459TIP3   OH258791   3.372   3.394   6.499  0.4842 -0.4781 -0.8095
12459TIP3    H158792   3.306   3.462   6.506 -0.1375 -1.2025  0.9041
12459TIP3    H258793   3.322   3.313   6.483  1.1129 -0.7594 -1.4426
12460TIP3   OH258794   0.527   1.627   4.225 -0.1823  0.0325  0.1668
12460TIP3    H158795   0.503   1.564   4.293 -0.0429  0.9281  1.0668
12460TIP3    H258796   0.507   1.582   4.142  1.1946 -1.7282  0.7163
12461TIP3   OH258797   1.874   2.373   2.830 -0.5360  0.1422 -0.4319
12461TIP3    H158798   1.962   2.401   2.855  0.0620  0.2135 -2.4883
12461TIP3    H258799   1.888   2.312   2.758 -2.1728  0.0015 -0.6578
12462TIP3   OH258800   1.392   4.080  12.820  0.4757  0.1865  0.0025
12462TIP3    H158801   1.370   4.010  12.881  0.7097  1.3036  1.4306
12462TIP3    H258802   1.341   4.155  12.850 -0.0589  0.5524 -1.7235
12463TIP3   OH258803   5.130   1.588  10.367 -0.4488 -0.0667  0.0997
12463TIP3    H158804   5.216   1.588  10.409 -0.0762  0.4504 -0.6529
12463TIP3    H258805   5.078   1.649  10.419  0.2226  1.1253 -0.5942
12464TIP3   OH258806   4.887   1.295  13.055  0.5183  0.2812 -0.2395
12464TIP3    H158807   4.821   1.349  13.010  0.6887  0.1025 -0.7054
12464TIP3    H258808   4.931   1.356  13.114 -0.7240  0.2007  0.8190
12465TIP3   OH258809   0.848   1.298   1.931  0.1206 -0.8446  0.1232
12465TIP3    H158810   0.863   1.374   1.874  0.4576 -0.2294  1.0165
12465TIP3    H258811   0.936   1.264   1.950  0.1187 -0.1350  1.4801
12466TIP3   OH258812   6.528   2.349   4.481 -0.1186  0.1710 -0.3439
12466TIP3    H158813   6.451   2.297   4.458  0.0384 -0.1769 -0.0940
12466TIP3    H258814   6.496   2.439   4.484 -1.0838 -0.1772  2.0216
12467TIP3   OH258815   2.258   1.757  16.558 -0.2166 -0.2553  0.0245
12467TIP3    H158816   2.308   1.683  16.592  1.0032 -0.0100 -1.1495
12467TIP3    H258817   2.210   1.721  16.482  0.3670  0.1402 -0.5378
12468TIP3   OH258818   3.878   1.754   1.787 -0.0257 -0.0298 -0.6190
12468TIP3    H158819   3.893   1.724   1.697  1.1376  1.2204 -0.8759
12468TIP3    H258820   3.926   1.690   1.841  2.4738  1.2460 -1.1654
12469TIP3   OH258821   3.186   5.181   1.033 -0.1887  0.0387  0.7843
12469TIP3    H158822   3.106   5.170   1.084  0.1647 -0.9371  1.1539
12469TIP3    H258823   3.177   5.266   0.991 -2.0472 -0.6301 -0.2886
12470TIP3   OH258824   5.495   5.768  12.743  0.3651  0.2532  0.2641
12470TIP3    H158825   5.577   5.749  12.788 -0.0568 -0.6448  0.6603
12470TIP3    H258826   5.521   5.783  12.652  0.9026 -0.5185  0.2855
12471TIP3   OH258827   4.539   5.573  12.811 -0.4656 -0.1195 -0.1802
12471TIP3    H158828   4.501   5.606  12.892 -1.2243  0.9670 -0.9542
12471TIP3    H258829   4.620   5.623  12.799  0.1435 -0.9521  0.3848
12472TIP3   OH258830   5.795   3.368  11.845  0.8202 -0.1124 -0.3438
12472TIP3    H158831   5.803   3.275  11.865  1.0506 -0.1443 -0.5887
12472TIP3    H258832   5.851   3.411  11.909  0.1925 -0.0906  0.2065
12473TIP3   OH258833   3.107   5.993   1.618 -0.7515 -0.2222 -0.8301
12473TIP3    H158834   3.022   5.966   1.582 -0.6714 -0.5127 -0.8017
12473TIP3    H258835   3.087   6.022   1.707 -0.5687 -1.9397 -0.1979
12474TIP3   OH258836   5.518   6.030  15.502 -0.8813 -0.4590 -0.0911
12474TIP3    H158837   5.567   6.051  15.422 -1.1130 -0.4224 -0.2246
12474TIP3    H258838   5.483   5.943  15.487 -0.9096 -0.4597 -0.0214
12475TIP3   OH258839   5.826   4.358   4.279 -0.6033 -0.2312 -0.6863
12475TIP3    H158840   5.759   4.376   4.344 -0.8556 -2.0447 -0.4150
12475TIP3    H258841   5.809   4.422   4.209 -0.8753  1.1488  0.5876
12476TIP3   OH258842   4.102   6.196  17.086 -0.1692 -0.0234  0.6159
12476TIP3    H158843   4.141   6.116  17.121 -1.4229 -0.2991  1.4614
12476TIP3    H258844   4.118   6.192  16.992 -0.2363 -1.2873  0.6474
12477TIP3   OH258845   5.766   5.892  14.122  0.6210 -0.4076 -0.0996
12477TIP3    H158846   5.722   5.945  14.055  0.0896  0.5457  0.9886
12477TIP3    H258847   5.694   5.845  14.165  0.8590 -0.2833  0.4358
12478TIP3   OH258848   4.141   3.943  11.539  0.5107  0.5157 -0.6776
12478TIP3    H158849   4.113   3.988  11.619  1.0429  1.0577 -0.7930
12478TIP3    H258850   4.060   3.925  11.492 -0.2944 -3.1903  1.6896
12479TIP3   OH258851   3.944   3.188   1.825 -0.3352 -0.3142 -0.1532
12479TIP3    H158852   4.033   3.217   1.847  1.0916 -3.9054 -0.4351
12479TIP3    H258853   3.901   3.179   1.910  0.3817 -0.7316  0.1790
12480TIP3   OH258854   6.262   0.335   2.724  0.3804  0.3194 -0.1125
12480TIP3    H158855   6.344   0.293   2.750  0.0960 -0.5722 -0.6122
12480TIP3    H258856   6.194   0.280   2.763 -0.0033  0.1049 -1.0426
12481TIP3   OH258857   6.326   3.203  16.555 -0.1569 -0.1013  0.1494
12481TIP3    H158858   6.347   3.200  16.649 -1.1196  0.6566  0.3989
12481TIP3    H258859   6.347   3.293  16.529  0.3237 -0.3714 -0.4289
12482TIP3   OH258860   4.128   5.439   3.557  0.4922 -0.4456 -0.0124
12482TIP3    H158861   4.051   5.475   3.600  0.1307 -0.5355 -0.5787
12482TIP3    H258862   4.104   5.349   3.535  0.8576 -0.5627  0.0528
12483TIP3   OH258863   6.107   1.800  15.233  0.3688 -0.1479 -0.5527
12483TIP3    H158864   6.046   1.872  15.214 -0.1639 -0.2618  0.6624
12483TIP3    H258865   6.099   1.742  15.157 -0.9897 -0.1241 -0.4580
12484TIP3   OH258866   0.764   4.582   2.183  0.1737  0.4225 -0.1977
12484TIP3    H158867   0.732   4.637   2.111 -0.7791 -0.2721 -0.3218
12484TIP3    H258868   0.725   4.496   2.166  0.7509 -0.0059  0.6038
12485TIP3   OH258869   4.991   5.977  12.021 -0.0673  0.0109 -0.4108
12485TIP3    H158870   5.014   6.017  11.937 -0.4465 -0.0604 -0.5501
12485TIP3    H258871   4.998   5.883  12.005 -1.4377 -0.0430 -0.7453
12486TIP3   OH258872   5.385   5.827   1.318 -0.0802 -0.3023  0.0267
12486TIP3    H158873   5.311   5.885   1.338 -1.0359 -1.6965  0.7259
12486TIP3    H258874   5.351   5.767   1.251  0.2671 -1.2186  0.6485
12487TIP3   OH258875   6.588   0.581  11.199  0.1784  0.1279 -0.7636
12487TIP3    H158876   6.561   0.667  11.230  0.8792  0.4719 -1.0793
12487TIP3    H258877   6.515   0.552  11.143 -0.7610 -0.1882  0.5739
12488TIP3   OH258878   5.781   4.615  14.057  0.3987  0.0752 -0.3551
12488TIP3    H158879   5.817   4.527  14.067  0.2500  0.1365  0.9507
12488TIP3    H258880   5.699   4.612  14.106  0.3220  0.8908 -0.4311
12489TIP3   OH258881   0.511   4.239   5.900  0.2406 -0.7962  0.4031
12489TIP3    H158882   0.530   4.146   5.914 -1.0729 -0.8376  2.2538
12489TIP3    H258883   0.418   4.241   5.879 -0.1035  0.2048  1.9228
12490TIP3   OH258884   4.327   4.870  12.637 -0.4263 -0.0940 -0.1084
12490TIP3    H158885   4.407   4.905  12.676  0.7668 -2.2918 -0.4274
12490TIP3    H258886   4.325   4.908  12.549  1.1146 -1.1832 -0.6409
12491TIP3   OH258887   5.751   1.967  13.982  0.0892 -0.3941 -0.0755
12491TIP3    H158888   5.678   2.010  13.938  0.0023 -0.0035  0.4401
12491TIP3    H258889   5.758   2.012  14.067  0.6235 -0.7429  0.0707
12492TIP3   OH258890   4.525   0.008  10.998  0.5204 -0.4001 -0.2460
12492TIP3    H158891   4.486   0.002  11.085  0.8842 -0.2079 -0.0673
12492TIP3    H258892   4.451   0.016  10.939  0.2907  0.1756  0.1103
12493TIP3   OH258893   1.108   3.369  15.769 -0.0287 -0.4094  0.4340
12493TIP3    H158894   1.124   3.338  15.858 -0.6837 -1.0918  0.3282
12493TIP3    H258895   1.102   3.289  15.717 -0.2644 -0.0389 -0.1133
12494TIP3   OH258896   4.878   3.183  11.453 -0.0235 -0.3951 -0.0673
12494TIP3    H158897   4.837   3.233  11.524 -1.2916  1.3566 -1.9230
12494TIP3    H258898   4.951   3.239  11.424  0.5775 -1.1666 -0.0596
12495TIP3   OH258899   5.458   6.226  11.171 -0.4491  0.1125  0.0198
12495TIP3    H158900   5.365   6.205  11.184 -0.2217 -0.7886  0.2608
12495TIP3    H258901   5.476   6.295  11.235 -1.0900  0.7104 -0.4325
12496TIP3   OH258902   6.259   3.174   4.163 -0.2006 -0.2959 -0.1935
12496TIP3    H158903   6.288   3.084   4.178 -0.1186 -0.2608 -0.1393
12496TIP3    H258904   6.243   3.209   4.251 -0.0953 -0.2125 -0.2074
12497TIP3   OH258905   4.095   4.509  15.861 -0.1691  0.0555 -0.1528
12497TIP3    H158906   4.063   4.491  15.949  1.1198 -0.5327  0.2188
12497TIP3    H258907   4.034   4.462  15.803 -0.7774  0.1016  0.4426
12498TIP3   OH258908   3.645   6.802   1.222 -0.2369 -0.1974 -0.5057
12498TIP3    H158909   3.656   6.718   1.177  0.1460  0.4246 -1.5891
12498TIP3    H258910   3.559   6.795   1.264 -0.0767 -1.2491 -0.3262
12499TIP3   OH258911   0.283   6.395  10.932 -0.5031 -0.1715  0.1958
12499TIP3    H158912   0.201   6.442  10.915  0.2084  1.5636  1.2649
12499TIP3    H258913   0.350   6.463  10.933  0.8083 -1.4161  0.3818
12500TIP3   OH258914   3.255   0.656   3.431  0.1373 -0.3394  0.0695
12500TIP3    H158915   3.342   0.656   3.391 -0.4973 -2.1720 -1.4878
12500TIP3    H258916   3.272   0.662   3.525  1.9021 -0.0891 -0.2244
12501TIP3   OH258917   5.506   3.675   0.198 -1.2874  0.0373  0.3613
12501TIP3    H158918   5.512   3.636   0.285  0.8834 -0.1728  0.1832
12501TIP3    H258919   5.596   3.703   0.178 -1.2644 -1.6844 -2.5872
12502TIP3   OH258920   3.819   6.336   0.627 -0.0479  0.1779  0.0401
12502TIP3    H158921   3.831   6.373   0.715  0.7301  2.3433 -0.9027
12502TIP3    H258922   3.743   6.383   0.592 -0.8383 -1.2257 -0.2153
12503TIP3   OH258923   3.919   0.137  12.136  0.0360  0.3869 -0.1201
12503TIP3    H158924   4.005   0.112  12.103  0.4162  1.3780  0.1146
12503TIP3    H258925   3.908   0.228  12.111 -0.4285  0.6373  0.9315
12504TIP3   OH258926   1.563   3.056  13.552 -0.0530 -0.7215 -0.5636
12504TIP3    H158927   1.541   2.967  13.527  0.5609 -1.6549  1.9398
12504TIP3    H258928   1.654   3.067  13.523  1.0344 -2.1789  2.0020
12505TIP3   OH258929   3.754   1.246  12.486 -0.1973  0.4512 -0.5204
12505TIP3    H158930   3.803   1.313  12.534  0.9384 -0.6563 -0.0814
12505TIP3    H258931   3.821   1.195  12.441 -0.8138 -1.7496  0.9005
12506TIP3   OH258932   1.885   2.405  16.876  0.1763 -0.0459 -0.0132
12506TIP3    H158933   1.954   2.472  16.877  1.6310 -1.5011 -0.0324
12506TIP3    H258934   1.926   2.328  16.838 -1.3179 -1.1272  0.4643
12507TIP3   OH258935   5.316   3.907  13.303 -0.4038 -0.0343 -0.0485
12507TIP3    H158936   5.379   3.837  13.320 -0.0741  0.0489 -0.8887
12507TIP3    H258937   5.237   3.880  13.349 -0.1323 -0.7267  0.0278
12508TIP3   OH258938   5.685   5.947   4.349  0.2641 -0.3329 -0.2982
12508TIP3    H158939   5.695   6.018   4.285 -0.1577 -0.1222 -0.1364
12508TIP3    H258940   5.601   5.965   4.391 -0.7635 -1.9336 -1.5289
12509TIP3   OH258941   0.866   2.919  14.432 -0.3238  0.1673  0.0261
12509TIP3    H158942   0.913   2.838  14.450  1.0818  0.4913 -1.8684
12509TIP3    H258943   0.919   2.963  14.366 -2.7949  1.0501 -1.4947
12510TIP3   OH258944   6.165   5.540   0.171  0.2406  0.3430  0.1425
12510TIP3    H158945   6.246   5.511   0.131  0.6023  0.4520  0.7811
12510TIP3    H258946   6.106   5.464   0.163 -0.1247  0.7744 -1.6963
12511TIP3   OH258947   0.526   3.840  16.010  0.3802  0.5092 -0.4736
12511TIP3    H158948   0.583   3.903  16.055 -0.6590  0.9739  0.2475
12511TIP3    H258949   0.530   3.761  16.063 -0.6114  0.9612  0.3328
12512TIP3   OH258950   6.650   4.543   2.809 -0.1993 -0.4335 -0.3203
12512TIP3    H158951   6.569   4.553   2.859 -1.0561 -0.9444 -1.5636
12512TIP3    H258952   6.663   4.448   2.804  0.2547 -0.3639 -0.4827
12513TIP3   OH258953   3.891   3.163  15.839 -0.8620  0.0401  0.3635
12513TIP3    H158954   3.966   3.189  15.785  0.1799 -1.1351  1.1995
12513TIP3    H258955   3.836   3.112  15.780 -0.5004  0.0433  0.0220
12514TIP3   OH258956   2.834   1.191   1.162  0.1457 -0.6545  0.2155
12514TIP3    H158957   2.795   1.104   1.175  0.2445 -0.6399  0.6091
12514TIP3    H258958   2.908   1.175   1.104  0.0946 -0.8173  0.1932
12515TIP3   OH258959   2.478   5.209   3.312  0.1071 -0.1533 -0.2926
12515TIP3    H158960   2.534   5.156   3.369  0.8732 -0.9952 -1.7516
12515TIP3    H258961   2.533   5.282   3.284  0.4292 -0.8337 -1.5135
12516TIP3   OH258962   4.988   5.660  14.152  0.4991 -0.2335  0.3195
12516TIP3    H158963   4.973   5.571  14.119  0.2745  0.2151 -0.8203
12516TIP3    H258964   4.940   5.663  14.235 -0.7142 -0.7175 -0.3396
12517TIP3   OH258965   5.813   2.500  14.559  0.0217  0.4966  0.4723
12517TIP3    H158966   5.739   2.561  14.559 -0.8551 -0.5354  1.1817
12517TIP3    H258967   5.792   2.437  14.490  1.0944  1.1574 -0.4984
12518TIP3   OH258968   4.655   1.682  13.818 -0.3401 -0.0251 -0.6044
12518TIP3    H158969   4.651   1.657  13.911 -0.3704  1.7698 -0.0867
12518TIP3    H258970   4.745   1.661  13.791 -0.7372 -1.9316 -0.6337
12519TIP3   OH258971   2.115   6.548  14.733 -0.3717  0.2119 -0.3091
12519TIP3    H158972   2.193   6.588  14.695  1.2894 -0.8225  1.7937
12519TIP3    H258973   2.081   6.614  14.794 -0.3791  0.1589 -0.2557
12520TIP3   OH258974   5.367   2.160  15.921 -0.2271 -0.0885  0.5727
12520TIP3    H158975   5.433   2.120  15.864 -0.6593  1.2898 -0.9765
12520TIP3    H258976   5.287   2.113  15.902 -0.3473  0.2981  0.1055
12521TIP3   OH258977   2.332   6.478   5.085  1.0586 -0.6325 -0.2025
12521TIP3    H158978   2.422   6.462   5.055  0.6971 -0.1104 -1.6360
12521TIP3    H258979   2.282   6.405   5.048  0.8937 -0.9715  0.6703
12522TIP3   OH258980   1.980   3.937   0.909  0.1975  0.4377 -0.3722
12522TIP3    H158981   2.009   3.994   0.980  0.5022  1.0273 -0.9756
12522TIP3    H258982   2.011   3.978   0.829  0.6308 -0.6953 -0.8060
12523TIP3   OH258983   0.697   2.590  10.847 -0.1673  0.0978 -0.0233
12523TIP3    H158984   0.726   2.499  10.839  0.8184  0.4255 -0.4030
12523TIP3    H258985   0.629   2.599  10.781  2.1497  0.5317 -2.5637
12524TIP3   OH258986   6.513   3.712   5.811 -0.0236  0.3578 -0.9461
12524TIP3    H158987   6.469   3.655   5.874  1.0574  0.3008 -0.2003
12524TIP3    H258988   6.565   3.772   5.866  1.8398 -0.4144 -1.7715
12525TIP3   OH258989   5.696   3.162   2.268  0.1394 -0.3960 -0.2042
12525TIP3    H158990   5.728   3.071   2.274 -0.0772 -0.4033  1.0677
12525TIP3    H258991   5.776   3.214   2.254  0.0848 -0.9175 -3.0680
12526TIP3   OH258992   0.377   1.556   2.170 -0.3012 -0.3589 -0.0979
12526TIP3    H158993   0.399   1.492   2.238 -3.5880 -2.0351 -0.4326
12526TIP3    H258994   0.361   1.638   2.218 -0.0945 -0.8409  0.8196
12527TIP3   OH258995   0.771   4.142   2.850  0.1499  0.4722  0.1757
12527TIP3    H158996   0.860   4.174   2.848  0.9629 -1.3947  2.1987
12527TIP3    H258997   0.718   4.217   2.878  1.4254  1.0242  1.1903
12528TIP3   OH258998   3.548   6.531   1.421 -0.2756  0.0027  0.1356
12528TIP3    H158999   3.569   6.591   1.493  0.2220 -0.4579  0.3763
12528TIP3    H259000   3.631   6.519   1.375 -0.5413  0.1084 -0.3851
12529TIP3   OH259001   3.913   5.810   2.711  0.0301 -0.5372  0.1680
12529TIP3    H159002   3.917   5.730   2.763 -1.6388 -0.3515  0.6582
12529TIP3    H259003   3.956   5.876   2.764 -0.3957 -0.6711  0.6948
12530TIP3   OH259004   1.055   4.786  15.012 -0.0776  0.6008  0.3248
12530TIP3    H159005   1.035   4.727  15.085 -0.2563 -0.0310 -0.2216
12530TIP3    H259006   0.974   4.836  14.999 -0.3804  0.0132 -0.0773
12531TIP3   OH259007   4.398   2.611  12.114 -0.2852  0.2854  0.0521
12531TIP3    H159008   4.427   2.565  12.035 -0.7367  0.8611 -0.4675
12531TIP3    H259009   4.303   2.598  12.115 -0.1607 -0.6827  1.1427
12532TIP3   OH259010   0.109   5.080  12.039 -0.0280 -0.2122 -0.3192
12532TIP3    H159011   0.070   5.127  11.965 -0.7892 -0.8776 -0.3482
12532TIP3    H259012   0.195   5.053  12.007 -0.7251 -1.3373 -1.3144
12533TIP3   OH259013   2.662   0.181   0.187 -0.7312 -0.0616  0.1048
12533TIP3    H159014   2.599   0.182   0.259 -0.0387  3.2916  0.8483
12533TIP3    H259015   2.732   0.239   0.217  1.1530 -1.1180 -2.0204
12534TIP3   OH259016   5.046   0.810   1.931  0.1401  0.0788  0.5038
12534TIP3    H159017   5.073   0.851   2.013  0.1748 -1.0791  1.0871
12534TIP3    H259018   5.128   0.776   1.894 -0.1509 -1.3466  1.1022
12535TIP3   OH259019   4.528   2.417   4.906  0.6807 -0.6995 -0.2338
12535TIP3    H159020   4.465   2.347   4.888 -0.5177  0.1226  0.5963
12535TIP3    H259021   4.606   2.371   4.938 -0.9363 -1.6427  2.7373
12536TIP3   OH259022   0.620   4.972   1.023  0.6464  0.2023  0.5197
12536TIP3    H159023   0.635   4.886   0.983 -0.0468 -0.6198  1.9755
12536TIP3    H259024   0.663   5.033   0.963  1.5339 -1.1887 -0.3272
12537TIP3   OH259025   5.607   1.009   1.260 -0.6171  0.7324  0.0584
12537TIP3    H159026   5.602   1.093   1.214 -0.5524  0.0865 -1.1863
12537TIP3    H259027   5.516   0.986   1.278 -0.6844  0.7383 -0.2576
12538TIP3   OH259028   2.107   0.165  16.451  0.3700  0.2640 -0.1593
12538TIP3    H159029   2.185   0.221  16.448  0.0826  0.6276 -1.1531
12538TIP3    H259030   2.051   0.198  16.381 -0.2653 -0.6060 -0.0756
12539TIP3   OH259031   3.680   4.720  14.415 -0.0326 -0.4052 -0.1290
12539TIP3    H159032   3.594   4.677  14.417  0.8169 -2.2363 -0.6870
12539TIP3    H259033   3.688   4.751  14.325  0.0705 -0.6425 -0.2031
12540TIP3   OH259034   2.700   6.745  16.773 -0.8182 -0.5319  0.2598
12540TIP3    H159035   2.613   6.774  16.800 -0.5827  1.6892 -1.1359
12540TIP3    H259036   2.692   6.730  16.679  0.1256 -1.0726  0.2595
12541TIP3   OH259037   4.232   2.954   5.005 -0.7456  0.1095  0.1755
12541TIP3    H159038   4.243   2.926   5.096  0.9817 -0.1487 -0.0714
12541TIP3    H259039   4.276   3.039   5.001  0.5165 -0.5466 -0.7194
12542TIP3   OH259040   2.332   6.196   0.303  0.1312  0.8291  0.1029
12542TIP3    H159041   2.311   6.157   0.388  1.8742  0.5051  0.4226
12542TIP3    H259042   2.424   6.221   0.311  0.7685 -0.5588 -2.1728
12543TIP3   OH259043   3.977   2.789  13.236 -0.1311 -0.3624 -0.5480
12543TIP3    H159044   3.990   2.863  13.295  0.5106 -0.1263 -0.9824
12543TIP3    H259045   3.895   2.809  13.191 -0.8410 -0.7382  0.5290
12544TIP3   OH259046   5.408   2.602   2.722 -0.0002 -0.1710  0.0752
12544TIP3    H159047   5.391   2.514   2.755 -2.0062  0.8761  2.0765
12544TIP3    H259048   5.500   2.600   2.695 -0.2370 -3.0913 -0.8292
12545TIP3   OH259049   5.485   4.129  15.790  0.2376 -0.0899  0.1157
12545TIP3    H159050   5.457   4.069  15.859  0.6563 -0.6505 -0.1904
12545TIP3    H259051   5.420   4.117  15.721  0.9612 -1.0789 -0.4229
12546TIP3   OH259052   1.027   4.380  13.408 -0.4776 -0.1156 -0.0022
12546TIP3    H159053   1.093   4.312  13.396 -0.8518 -0.1835 -2.0749
12546TIP3    H259054   0.943   4.333  13.400 -0.7366  0.5080 -1.2464
12547TIP3   OH259055   5.357   6.795  14.669  0.1223  0.0218  0.4703
12547TIP3    H159056   5.303   6.775  14.746 -1.6819 -0.6878 -0.9120
12547TIP3    H259057   5.298   6.785  14.595  2.5404 -2.4468 -1.3121
12548TIP3   OH259058   3.001   2.891   5.641 -0.0418 -0.0526 -0.5896
12548TIP3    H159059   2.964   2.967   5.685  0.7570 -0.3771  0.7080
12548TIP3    H259060   2.954   2.886   5.558 -0.8228  1.2421 -0.2582
12549TIP3   OH259061   3.088   0.919  11.163  0.2214 -0.0761  0.2895
12549TIP3    H159062   3.085   0.867  11.243 -1.2097  0.0168  0.3273
12549TIP3    H259063   3.180   0.947  11.155  0.5788 -0.9004  1.3530
12550TIP3   OH259064   4.420   5.420   2.371  0.0845  0.3328  0.1533
12550TIP3    H159065   4.415   5.325   2.377  2.7436  0.0758 -0.3734
12550TIP3    H259066   4.350   5.443   2.310  0.3107 -1.4719 -0.8781
12551TIP3   OH259067   1.280   1.213  16.762  0.2158  0.1577 -0.0061
12551TIP3    H159068   1.357   1.156  16.752  1.0080  1.0909  0.5543
12551TIP3    H259069   1.276   1.263  16.680 -2.7641 -3.2497 -2.2554
12552TIP3   OH259070   5.763   5.487   4.734  0.3841 -0.0730 -0.5036
12552TIP3    H159071   5.857   5.501   4.732  0.0956  2.2147 -0.6297
12552TIP3    H259072   5.735   5.498   4.643 -0.1343  0.4064 -0.2924
12553TIP3   OH259073   4.032   0.729   3.157  0.3889 -0.0521  0.6198
12553TIP3    H159074   4.009   0.708   3.067  0.0508  1.0215  0.4525
12553TIP3    H259075   4.119   0.769   3.151  1.6307 -2.4600  1.0731
12554TIP3   OH259076   5.273   6.028   5.721 -0.4390  0.1351 -0.3206
12554TIP3    H159077   5.298   5.962   5.786 -0.5610 -0.9911 -1.3743
12554TIP3    H259078   5.273   6.110   5.769 -2.5414 -0.8934  1.6390
12555TIP3   OH259079   0.725   5.151  13.357 -0.7004  0.5101 -0.0851
12555TIP3    H159080   0.643   5.181  13.316 -0.8545 -0.6947 -0.6873
12555TIP3    H259081   0.777   5.117  13.285  0.9707  2.5529  0.0740
12556TIP3   OH259082   0.912   2.142  13.414 -0.2179 -0.7562 -0.1020
12556TIP3    H159083   0.910   2.197  13.336 -0.4816 -0.1088  0.3531
12556TIP3    H259084   0.830   2.092  13.409 -0.4529 -0.3823 -0.0037
12557TIP3   OH259085   1.643   0.077  14.846 -0.3409 -0.3253  0.2282
12557TIP3    H159086   1.717   0.036  14.891 -1.2646 -1.2754  0.9239
12557TIP3    H259087   1.611   0.009  14.786 -1.5860 -0.4779  1.0384
12558TIP3   OH259088   2.049   6.468  16.378  0.7406  0.1137 -0.2378
12558TIP3    H159089   2.113   6.404  16.407 -0.6197 -1.8341 -1.2137
12558TIP3    H259090   1.970   6.416  16.362 -0.5615  2.1292 -0.7140
12559TIP3   OH259091   4.233   6.433  14.971  0.1361 -0.2454 -0.9659
12559TIP3    H159092   4.276   6.495  14.911 -0.4094 -0.5041 -1.6410
12559TIP3    H259093   4.142   6.463  14.975  0.0620 -0.5137 -0.6275
12560TIP3   OH259094   6.572   2.100  13.826  0.5369 -0.4612 -0.1711
12560TIP3    H159095   6.609   2.184  13.798  0.6543 -0.5355 -0.2407
12560TIP3    H259096   6.640   2.061  13.881  0.2909 -0.2972  0.2576
12561TIP3   OH259097   3.238   4.939   3.315 -0.0366  0.3016  0.4347
12561TIP3    H159098   3.303   4.908   3.378  2.7773  1.1748 -1.7983
12561TIP3    H259099   3.258   4.890   3.235 -2.4011  0.3809 -0.2742
12562TIP3   OH259100   1.595   5.906   2.639  0.5522 -0.9089  0.1411
12562TIP3    H159101   1.535   5.832   2.648  1.4498 -1.7280 -0.4335
12562TIP3    H259102   1.545   5.971   2.590  0.0670 -1.5150 -0.1899
12563TIP3   OH259103   0.867   6.076   0.535 -0.0216 -0.4363 -0.5555
12563TIP3    H159104   0.925   6.152   0.530  0.5667 -0.7459  0.9801
12563TIP3    H259105   0.897   6.019   0.464 -1.0573  1.1072 -2.3249
12564TIP3   OH259106   3.350   2.235  14.699 -0.3402  0.3495 -0.3254
12564TIP3    H159107   3.370   2.234  14.793 -0.4948 -2.5575 -0.2343
12564TIP3    H259108   3.427   2.196  14.658 -0.6910  0.6657 -1.3207
12565TIP3   OH259109   5.162   0.799  11.961  0.6131  0.2839 -0.0290
12565TIP3    H159110   5.154   0.735  11.890 -3.9869  0.1021  0.3796
12565TIP3    H259111   5.117   0.877  11.928  2.4509  1.9240  1.0788
12566TIP3   OH259112   4.542   2.006   0.885 -0.4526 -0.3388  0.5909
12566TIP3    H159113   4.453   1.977   0.865 -0.5610  0.0669  0.4604
12566TIP3    H259114   4.543   2.015   0.980 -0.6025 -0.1874  0.5785
12567TIP3   OH259115   6.784   2.987   3.476  0.1595 -0.7560  0.0551
12567TIP3    H159116   6.876   3.010   3.487 -0.1758  1.0232 -0.5673
12567TIP3    H259117   6.735   3.059   3.516 -0.9930 -2.0459  1.0848
12568TIP3   OH259118   5.867   4.558  15.929 -0.2804 -0.3724  0.3979
12568TIP3    H159119   5.903   4.478  15.891 -0.1055 -1.0135  1.8425
12568TIP3    H259120   5.944   4.607  15.959 -0.4213  0.0111  0.1333
12569TIP3   OH259121   2.777   2.802  11.513  0.3104  0.2046  0.7199
12569TIP3    H159122   2.835   2.856  11.459  0.0617  0.1129  0.3570
12569TIP3    H259123   2.734   2.864  11.572 -0.2640  0.4685  0.0483
12570TIP3   OH259124   3.835   2.598  13.929 -0.1909 -0.3789  0.0872
12570TIP3    H159125   3.832   2.669  13.993  2.1653  1.1226 -1.2860
12570TIP3    H259126   3.820   2.641  13.845 -0.8065 -1.8929 -0.6097
12571TIP3   OH259127   2.035   3.038   4.377  0.7042 -0.3753  0.0672
12571TIP3    H159128   2.062   3.105   4.315 -3.6646 -1.1860 -3.2643
12571TIP3    H259129   1.949   3.067   4.408  0.6865 -2.3160  2.1440
12572TIP3   OH259130   6.083   4.260  14.789  0.1578 -0.2459  0.4161
12572TIP3    H159131   6.027   4.197  14.833  1.3932  0.0613  2.5597
12572TIP3    H259132   6.097   4.329  14.854  0.9407  0.9677 -0.9707
12573TIP3   OH259133   5.509   4.641   2.105  0.3501  0.6938 -0.6041
12573TIP3    H159134   5.560   4.697   2.163 -0.1873  1.9708 -1.3175
12573TIP3    H259135   5.493   4.695   2.028 -1.7727  0.2380 -0.5417
12574TIP3   OH259136   2.976   5.530   2.545 -0.2930 -0.2614 -0.3741
12574TIP3    H159137   2.971   5.435   2.545  1.6478 -0.4289  1.4117
12574TIP3    H259138   3.055   5.551   2.495 -1.2734  0.5124 -1.6745
12575TIP3   OH259139   6.038   4.466  12.027 -0.2177 -0.3145  0.8102
12575TIP3    H159140   5.958   4.455  12.078  0.5294  0.2024  2.1595
12575TIP3    H259141   6.102   4.499  12.090  0.4747  1.4314 -0.6937
12576TIP3   OH259142   0.737   6.488   1.007  0.0687 -0.4459 -0.2104
12576TIP3    H159143   0.668   6.427   0.980  0.4123 -0.5722 -0.8412
12576TIP3    H259144   0.752   6.468   1.099  0.0086 -1.1591 -0.3480
12577TIP3   OH259145   5.322   5.242  14.234 -0.0229  0.7889  0.0384
12577TIP3    H159146   5.296   5.299  14.306 -0.3720  0.2816  0.3161
12577TIP3    H259147   5.411   5.271  14.211  0.2722  0.6538  0.9715
12578TIP3   OH259148   4.382   3.343  15.090 -0.1416 -0.3836  0.2305
12578TIP3    H159149   4.353   3.269  15.035  1.0346 -1.5324  1.0932
12578TIP3    H259150   4.368   3.420  15.036  0.8126 -1.4511 -1.6355
12579TIP3   OH259151   6.463   6.308  17.007  0.5353  0.0865  0.4201
12579TIP3    H159152   6.505   6.274  17.085 -0.2984 -0.9832  0.4256
12579TIP3    H259153   6.526   6.371  16.971  1.2852 -0.0371  1.4711
12580TIP3   OH259154   2.194   4.114  17.122 -0.4120 -0.4852  0.1077
12580TIP3    H159155   2.286   4.097  17.141 -0.3086  1.5940  1.9699
12580TIP3    H259156   2.153   4.121  17.208 -2.4245 -1.7549 -0.6946
12581TIP3   OH259157   2.086   1.169  11.023 -0.0847  0.4124 -0.1046
12581TIP3    H159158   2.090   1.194  10.930 -0.1228 -0.3533 -0.3203
12581TIP3    H259159   2.132   1.239  11.069  0.2478  0.6159 -0.7379
12582TIP3   OH259160   5.763   3.895  16.981 -0.3266 -0.3992 -0.4414
12582TIP3    H159161   5.738   3.981  17.015 -1.4058 -0.6719 -0.5239
12582TIP3    H259162   5.728   3.894  16.892 -1.0440 -1.2339 -0.1598
12583TIP3   OH259163   0.503   5.098  15.974  0.3923  0.6080 -0.5717
12583TIP3    H159164   0.487   5.019  16.024 -1.1575  0.0247 -1.9097
12583TIP3    H259165   0.446   5.164  16.012  0.8046  0.7685 -0.2203
12584TIP3   OH259166   0.675   4.997   4.344 -0.4108  0.2340  0.3133
12584TIP3    H159167   0.661   4.903   4.352  0.6043  0.1906  2.2005
12584TIP3    H259168   0.596   5.036   4.382 -0.5369  0.1448  0.1457
12585TIP3   OH259169   6.735   4.244  14.096  0.2624  0.2744 -0.7953
12585TIP3    H159170   6.671   4.185  14.137  1.3183 -0.4655 -0.1561
12585TIP3    H259171   6.799   4.185  14.056  0.8548  1.0048 -0.9386
12586TIP3   OH259172   5.736   1.539   4.082  0.0009  0.0069  0.0808
12586TIP3    H159173   5.697   1.555   3.996 -0.4353  2.4194  0.6506
12586TIP3    H259174   5.661   1.527   4.141  0.2799 -1.0408  0.2347
12587TIP3   OH259175   2.444   0.344  13.593  0.0918 -0.2536 -0.0181
12587TIP3    H159176   2.513   0.365  13.655 -1.6100 -0.2429  1.9909
12587TIP3    H259177   2.364   0.380  13.632 -0.8352  1.7144 -3.2866
12588TIP3   OH259178   4.333   0.834   3.147 -0.2143  0.0827  0.2516
12588TIP3    H159179   4.391   0.906   3.173  0.9314 -0.8674  0.3797
12588TIP3    H259180   4.349   0.824   3.053 -0.1283 -0.2184  0.2974
12589TIP3   OH259181   1.588   6.018  16.974  0.0306 -0.5564 -0.6285
12589TIP3    H159182   1.575   5.947  17.037  0.0354  0.5472  0.6646
12589TIP3    H259183   1.565   6.098  17.022 -1.0798  0.2480 -2.3801
12590TIP3   OH259184   4.485   3.680   2.539 -0.4463  0.0394  0.2799
12590TIP3    H159185   4.393   3.661   2.560 -0.6676  0.8420  0.0990
12590TIP3    H259186   4.482   3.709   2.448 -0.0918  0.6342  0.4572
12591TIP3   OH259187   2.058   1.433   3.305 -0.1888 -0.0673 -0.8924
12591TIP3    H159188   1.979   1.454   3.255  0.4649  3.3014 -0.6823
12591TIP3    H259189   2.114   1.387   3.241 -2.3984 -3.1856 -0.8569
12592TIP3   OH259190   0.080   2.272   3.650 -0.0250  0.3012 -0.4280
12592TIP3    H159191   0.118   2.298   3.733 -0.2572  0.3959 -0.3518
12592TIP3    H259192   0.003   2.327   3.640  0.5257  0.9664 -1.1592
12593TIP3   OH259193   2.459   1.566  17.105  0.2875  0.4432 -0.2908
12593TIP3    H159194   2.426   1.537  17.190 -0.5432  4.8309  1.0979
12593TIP3    H259195   2.529   1.504  17.084  0.1680 -1.1231  3.2707
12594TIP3   OH259196   4.363   4.251  15.630 -0.1659 -0.2599  0.1377
12594TIP3    H159197   4.354   4.243  15.725 -0.8932  1.0982  0.2073
12594TIP3    H259198   4.454   4.277  15.616  0.3833 -1.9773  0.3301
12595TIP3   OH259199   0.528   5.896   0.358  0.2529 -0.1156  0.2247
12595TIP3    H159200   0.451   5.920   0.306  0.0537 -2.2989 -0.6120
12595TIP3    H259201   0.501   5.816   0.403  1.1664  0.5649  2.0448
12596TIP3   OH259202   0.564   1.238  12.872  0.0460  0.0363  0.4705
12596TIP3    H159203   0.479   1.276  12.849 -0.0094 -0.3973 -0.0627
12596TIP3    H259204   0.565   1.239  12.968 -2.3005 -3.4878  0.7535
12597TIP3   OH259205   6.128   5.756  14.461 -0.0964 -0.6614  0.1216
12597TIP3    H159206   6.143   5.831  14.519  0.8464 -1.6454  1.1797
12597TIP3    H259207   6.179   5.776  14.382 -0.8602  0.3735 -0.1330
12598TIP3   OH259208   5.831   6.490   3.835  0.1813  0.0819 -0.4995
12598TIP3    H159209   5.745   6.482   3.877  0.5457 -1.2595  0.0256
12598TIP3    H259210   5.881   6.416   3.869  1.5316  0.8102 -0.8520
12599TIP3   OH259211   1.478   3.979   5.736 -0.1754 -0.4222  0.0635
12599TIP3    H159212   1.518   3.926   5.667  0.5043  2.5364 -1.9775
12599TIP3    H259213   1.538   3.973   5.810  0.7999 -1.0052 -0.7639
12600TIP3   OH259214   4.033   0.231  11.328 -0.5671 -0.1763  0.5754
12600TIP3    H159215   3.980   0.153  11.314  0.4089 -0.3729 -3.0150
12600TIP3    H259216   4.066   0.254  11.241  2.4900  1.8950  2.0885
12601TIP3   OH259217   1.505   3.978   3.895 -0.7914 -0.1634  0.3339
12601TIP3    H159218   1.484   3.885   3.896  1.4282 -0.7347 -0.5427
12601TIP3    H259219   1.593   3.984   3.933  0.2713  1.1825 -2.1029
12602TIP3   OH259220   0.241   6.579  12.742  0.0185  0.3107  0.3384
12602TIP3    H159221   0.325   6.624  12.732  0.8751 -0.9270  1.5153
12602TIP3    H259222   0.206   6.611  12.825 -1.1170  1.4445 -0.5377
12603TIP3   OH259223   4.851   1.425  11.550 -0.0012 -0.4746  0.4054
12603TIP3    H159224   4.918   1.471  11.601 -1.2606 -0.1377  1.8119
12603TIP3    H259225   4.806   1.370  11.613 -1.1908 -0.5407 -0.4714
12604TIP3   OH259226   2.833   1.648   6.245  0.1296 -0.4315 -0.3536
12604TIP3    H159227   2.866   1.691   6.166  0.6806  0.4468  0.3417
12604TIP3    H259228   2.862   1.704   6.317  1.8980 -2.5709  0.6864
12605TIP3   OH259229   6.406   4.635   1.071  0.2438  0.4628 -0.0397
12605TIP3    H159230   6.323   4.592   1.090  0.0582  0.8462  0.0378
12605TIP3    H259231   6.472   4.568   1.084 -0.1307 -0.1160 -1.0239
12606TIP3   OH259232   3.779   6.211  15.723  0.5722 -0.5239  0.5355
12606TIP3    H159233   3.716   6.141  15.703 -1.6995  0.5416  3.2959
12606TIP3    H259234   3.725   6.290  15.731  2.5077  0.7748  1.4484
12607TIP3   OH259235   0.880   0.555  13.950  0.0099  0.2124  0.0786
12607TIP3    H159236   0.835   0.553  14.034  0.1648  1.7099  0.2166
12607TIP3    H259237   0.916   0.643  13.944  2.2798 -0.6745 -0.3716
12608TIP3   OH259238   4.885   3.748  11.265  0.6652 -0.3715 -0.8255
12608TIP3    H159239   4.901   3.832  11.222  2.0174  0.2118  0.7193
12608TIP3    H259240   4.808   3.712  11.221 -0.2018  1.8782 -1.2425
12609TIP3   OH259241   6.404   0.578  16.856 -0.4033  0.1315  0.2566
12609TIP3    H159242   6.456   0.498  16.860  0.6105  0.7242 -0.5601
12609TIP3    H259243   6.439   0.626  16.780 -1.0699  1.2771  0.6437
12610TIP3   OH259244   1.110   3.629   2.480 -0.6777 -0.3017 -0.6543
12610TIP3    H159245   1.093   3.559   2.417  1.1401  0.0665 -1.6141
12610TIP3    H259246   1.126   3.583   2.563  1.4631 -1.1545 -1.4699
12611TIP3   OH259247   0.985   3.350   1.857  0.3034  0.4348  0.2837
12611TIP3    H159248   0.903   3.325   1.900  1.0610 -0.3552  1.3308
12611TIP3    H259249   1.013   3.430   1.903 -0.1200  0.9954 -0.4135
12612TIP3   OH259250   6.608   3.677   3.469  0.2942 -0.4804 -0.5081
12612TIP3    H159251   6.539   3.618   3.440 -0.9690  0.0754  1.1583
12612TIP3    H259252   6.570   3.765   3.457  0.7881 -0.1579  0.2149
12613TIP3   OH259253   5.549   2.899  11.728 -0.7094 -0.3344 -0.4343
12613TIP3    H159254   5.626   2.843  11.720  0.4169  1.2346 -1.1878
12613TIP3    H259255   5.518   2.910  11.638 -2.3220 -1.5593 -0.0737
12614TIP3   OH259256   3.049   5.998   0.391 -0.0375  0.0024  0.5230
12614TIP3    H159257   3.056   5.903   0.398 -0.4992 -0.2024 -1.1979
12614TIP3    H259258   3.137   6.027   0.367  0.0107 -0.0469  0.6443
12615TIP3   OH259259   5.048   2.375   5.051  0.2219 -0.2741  0.3688
12615TIP3    H159260   4.957   2.371   5.022  0.4316  2.2966 -1.0160
12615TIP3    H259261   5.091   2.305   5.003 -0.7905 -0.6508 -0.0188
12616TIP3   OH259262   0.886   0.765   3.008 -0.0816 -0.0892 -0.3402
12616TIP3    H159263   0.814   0.815   3.047  1.3771  1.6332  0.3083
12616TIP3    H259264   0.932   0.727   3.083  1.7167  1.7989 -0.3784
12617TIP3   OH259265   1.646   6.037  12.465 -0.7049 -0.0769 -0.9878
12617TIP3    H159266   1.594   5.970  12.509  3.3380 -0.8639  3.3081
12617TIP3    H259267   1.701   5.989  12.403 -0.1657 -0.2833 -0.3565
12618TIP3   OH259268   3.286   5.084   3.636  0.1327 -0.5834 -0.2916
12618TIP3    H159269   3.272   5.174   3.666  0.1934  1.0713 -4.5287
12618TIP3    H259270   3.362   5.054   3.685  1.3229  2.4284 -0.0795
12619TIP3   OH259271   2.447   5.182   5.866  0.1355  0.2633 -0.2461
12619TIP3    H159272   2.358   5.209   5.846 -0.7735 -1.4862  1.2726
12619TIP3    H259273   2.455   5.094   5.829  1.0223  0.1517  0.1883
12620TIP3   OH259274   4.576   4.612  12.346 -0.1393  0.0941  0.5290
12620TIP3    H159275   4.518   4.679  12.311 -1.4053 -0.2445  1.9097
12620TIP3    H259276   4.523   4.564  12.409  1.6565 -0.1902  1.9051
12621TIP3   OH259277   6.654   3.608   4.941  0.0831 -0.8300  0.0014
12621TIP3    H159278   6.715   3.663   4.892 -3.0008  0.5880 -2.6938
12621TIP3    H259279   6.647   3.649   5.027  1.8126 -0.2458 -0.1086
12622TIP3   OH259280   5.022   3.469  13.065 -0.0904 -0.3363 -0.6107
12622TIP3    H159281   5.021   3.540  13.000  0.7820 -0.0595 -0.3327
12622TIP3    H259282   5.111   3.468  13.098 -0.2079 -1.2902 -0.2927
12623TIP3   OH259283   5.540   4.798  15.263  0.0414 -0.3436 -0.0525
12623TIP3    H159284   5.525   4.736  15.334  0.4898  0.0731  0.4118
12623TIP3    H259285   5.623   4.770  15.224  0.7676  0.5313  0.7922
12624TIP3   OH259286   4.019   3.135   4.436 -0.2737 -0.0910 -0.1249
12624TIP3    H159287   4.072   3.158   4.360 -2.1216  0.5956 -1.2487
12624TIP3    H259288   3.931   3.120   4.402 -1.4845  1.5587  2.0175
12625TIP3   OH259289   5.083   4.865  11.515  0.0074  0.2954  0.0971
12625TIP3    H159290   5.160   4.817  11.483 -0.2928  0.4037 -0.8245
12625TIP3    H259291   5.079   4.844  11.608 -1.5436 -3.5014 -0.6415
12626TIP3   OH259292   0.007   6.518   2.188 -0.4026  0.3889  0.1138
12626TIP3    H159293   0.024   6.555   2.275  0.1679 -1.3695  0.8079
12626TIP3    H259294   0.094   6.497   2.154 -0.6633  0.4572 -0.6015
12627TIP3   OH259295   6.328   4.155  15.122  0.3535 -0.1252 -0.0674
12627TIP3    H159296   6.265   4.198  15.180 -2.5617 -4.0088  0.1205
12627TIP3    H259297   6.403   4.135  15.179 -0.5567 -0.0217  1.2274
12628TIP3   OH259298   4.395   0.175   4.035  0.1249  0.1943  0.1542
12628TIP3    H159299   4.377   0.269   4.028  1.8805  0.4365 -1.7201
12628TIP3    H259300   4.344   0.135   3.964  0.4976 -0.0974  0.0459
12629TIP3   OH259301   4.938   4.590  11.009 -0.3877 -0.4184 -0.2926
12629TIP3    H159302   4.959   4.635  11.091 -0.5460 -0.6614 -0.1146
12629TIP3    H259303   4.933   4.497  11.034 -0.2871 -0.5092 -0.6075
12630TIP3   OH259304   4.787   0.448  11.356  0.8901  0.0245  0.3500
12630TIP3    H159305   4.804   0.418  11.446  0.6860 -2.9026 -0.4996
12630TIP3    H259306   4.843   0.394  11.301 -1.1274 -0.3058 -1.5112
12631TIP3   OH259307   6.031   4.849  15.475  0.0691  0.1598 -0.4191
12631TIP3    H159308   5.993   4.834  15.562 -1.9428  0.6890 -1.1364
12631TIP3    H259309   6.089   4.775  15.461 -1.7012 -1.4606  0.2875
12632TIP3   OH259310   5.779   5.977  15.006  0.2127 -0.5401 -0.1281
12632TIP3    H159311   5.735   5.935  14.932  0.5319 -1.3237  0.1101
12632TIP3    H259312   5.746   6.066  15.007  0.7630 -0.2945 -1.6620
12633TIP3   OH259313   2.800   3.332   2.912  0.2067  0.3313 -0.1445
12633TIP3    H159314   2.779   3.403   2.851 -0.3897  2.6909  2.6026
12633TIP3    H259315   2.865   3.369   2.972 -0.0454 -1.4546  1.3276
12634TIP3   OH259316   5.478   0.804   0.777  0.2512  0.4510  0.0290
12634TIP3    H159317   5.498   0.896   0.759  0.6509  0.8644  2.3483
12634TIP3    H259318   5.538   0.755   0.720 -0.6523  1.5668 -1.9653
12635TIP3   OH259319   4.635   3.495   1.873 -0.1512  0.4847 -0.6201
12635TIP3    H159320   4.684   3.421   1.839  0.3796 -0.6785  2.3269
12635TIP3    H259321   4.703   3.558   1.899 -0.3925  0.4998 -0.0048
12636TIP3   OH259322   3.290   1.394   5.203  1.1872  0.0046 -0.3342
12636TIP3    H159323   3.232   1.318   5.192  1.0025  0.0882  0.0230
12636TIP3    H259324   3.290   1.437   5.118 -0.9682  1.1899  0.1988
12637TIP3   OH259325   4.143   5.375   1.355 -0.0749 -0.1233 -0.0060
12637TIP3    H159326   4.077   5.311   1.327  0.1810 -0.8750  1.0325
12637TIP3    H259327   4.200   5.386   1.279 -0.5030 -0.6463 -0.4111
12638TIP3   OH259328   5.767   6.262  12.340 -0.5406 -1.5385  0.0006
12638TIP3    H159329   5.748   6.348  12.377  0.7191 -1.4679  0.5453
12638TIP3    H259330   5.698   6.247  12.275  0.4280  0.8403 -1.6885
12639TIP3   OH259331   2.710   3.303   2.431 -0.6578  0.2389  0.7812
12639TIP3    H159332   2.709   3.320   2.525 -0.8409  0.6238  0.7123
12639TIP3    H259333   2.630   3.253   2.415 -1.3608  1.3724  0.6210
12640TIP3   OH259334   4.994   6.002   3.044 -0.2336 -0.3814 -0.0996
12640TIP3    H159335   4.971   5.949   2.967 -0.9480 -3.5199  2.1022
12640TIP3    H259336   4.910   6.032   3.078  0.0240  0.2980 -0.0439
12641TIP3   OH259337   4.361   5.995   3.021  0.0350  0.5312 -0.1613
12641TIP3    H159338   4.426   6.017   2.955 -2.3265  2.3116 -2.1228
12641TIP3    H259339   4.345   6.078   3.067 -0.4517 -0.0072  0.6669
12642TIP3   OH259340   6.124   4.965  12.423 -0.1365  0.8468  0.5809
12642TIP3    H159341   6.037   4.951  12.459  0.0732  1.8175  1.4931
12642TIP3    H259342   6.109   5.010  12.340 -0.7871 -3.6229 -2.0409
12643TIP3   OH259343   3.428   3.027  10.795 -0.6228 -0.2209 -0.3338
12643TIP3    H159344   3.364   3.045  10.864 -0.2880 -0.5971  0.0822
12643TIP3    H259345   3.508   3.005  10.842 -0.5076 -0.9128 -0.8367
12644TIP3   OH259346   2.099   1.033   0.051  0.1573 -0.0617  0.2940
12644TIP3    H159347   2.191   1.007   0.053  0.1500 -0.3176 -1.3836
12644TIP3    H259348   2.061   0.993   0.129  1.5583  0.4716  1.2935
12645TIP3   OH259349   3.081   6.151  15.624  0.7613  0.2878  0.2589
12645TIP3    H159350   3.086   6.121  15.715 -1.3285 -0.5041  0.1590
12645TIP3    H259351   3.137   6.229  15.622 -1.0833  1.8854  2.9363
12646TIP3   OH259352   2.620   4.483  12.534 -0.3108  0.6455 -0.5292
12646TIP3    H159353   2.660   4.479  12.621  0.0702  1.7874 -0.6375
12646TIP3    H259354   2.582   4.571  12.528 -0.8234  0.3886 -1.3101
12647TIP3   OH259355   1.012   6.143  14.010 -0.1307 -0.5321  0.1028
12647TIP3    H159356   0.968   6.059  14.018  0.2486 -0.7716 -0.2489
12647TIP3    H259357   1.106   6.121  14.013  0.0207 -0.3529 -1.7756
12648TIP3   OH259358   1.211   0.825   1.301 -0.1193  0.4128 -0.3306
12648TIP3    H159359   1.147   0.838   1.231  0.1939  1.2232 -0.4732
12648TIP3    H259360   1.223   0.730   1.304 -0.1047  0.3644 -1.4016
12649TIP3   OH259361   3.798   5.492   5.047  0.4140  0.7132  0.1658
12649TIP3    H159362   3.796   5.442   5.129  3.6252  0.5832  0.3022
12649TIP3    H259363   3.784   5.426   4.979  0.8459  0.2865  0.4882
12650TIP3   OH259364   1.874   4.493   2.742  0.3936 -0.0940  0.0409
12650TIP3    H159365   1.919   4.443   2.674  0.2989  0.5594 -0.5058
12650TIP3    H259366   1.934   4.564   2.765  0.3708 -0.2339  0.5520
12651TIP3   OH259367   4.509   5.287  15.136  0.1158  0.6658  0.1008
12651TIP3    H159368   4.477   5.234  15.062  3.0826 -0.0338 -0.8242
12651TIP3    H259369   4.601   5.262  15.145  0.2585  1.8569  3.1179
12652TIP3   OH259370   1.608   3.396   4.408  0.4913 -0.0530  0.3653
12652TIP3    H159371   1.560   3.336   4.466 -1.3503  0.2191 -0.7936
12652TIP3    H259372   1.540   3.448   4.365  1.8555  0.6045 -1.1232
12653TIP3   OH259373   4.617   6.803   1.886  0.1181  0.4939 -0.3543
12653TIP3    H159374   4.631   6.709   1.892 -1.7625  0.2272  0.4996
12653TIP3    H259375   4.656   6.828   1.802  1.5025 -0.8519 -0.1483
12654TIP3   OH259376   6.259   0.280   4.930 -0.1925  0.2708 -0.1548
12654TIP3    H159377   6.290   0.231   5.006  0.4455 -0.4945 -0.8980
12654TIP3    H259378   6.164   0.281   4.939 -0.0850  1.2580  1.2980
12655TIP3   OH259379   3.347   5.107   4.715  0.0282  0.1369  0.1484
12655TIP3    H159380   3.440   5.128   4.711  0.1112 -0.3963 -1.2428
12655TIP3    H259381   3.308   5.155   4.641 -0.5956 -0.5600  0.0126
12656TIP3   OH259382   2.678   0.030   0.800  0.2451  0.0955 -0.0396
12656TIP3    H159383   2.646   0.120   0.799 -0.6894 -0.2112  0.5814
12656TIP3    H259384   2.598  -0.024   0.797  0.7047 -0.6918  1.1088
12657TIP3   OH259385   4.342   0.192  15.381 -0.5526  0.0455  0.3358
12657TIP3    H159386   4.280   0.119  15.382 -0.6339  0.0388 -1.6192
12657TIP3    H259387   4.288   0.270  15.370 -0.2812  0.0233 -1.5825
12658TIP3   OH259388   3.941   5.989  12.120 -0.5071  1.0259  0.1957
12658TIP3    H159389   4.016   6.009  12.063 -1.0878 -0.6255 -1.2697
12658TIP3    H259390   3.953   6.044  12.197  2.5039  0.4415  0.2564
12659TIP3   OH259391   4.606   5.075   0.435  0.1028  0.3118 -0.0381
12659TIP3    H159392   4.657   4.995   0.446 -0.6803 -0.2348 -0.3514
12659TIP3    H259393   4.658   5.128   0.375 -0.7118 -1.1526 -2.1451
12660TIP3   OH259394   2.469   0.798   4.196 -0.6378  0.2239  0.7345
12660TIP3    H159395   2.495   0.706   4.201  1.3567  0.7004  0.0932
12660TIP3    H259396   2.382   0.800   4.235  0.5840 -1.4070  3.9842
12661TIP3   OH259397   1.817   3.095  14.632  0.4816  0.2063  0.1597
12661TIP3    H159398   1.736   3.109  14.680 -0.1303 -1.0271 -0.4577
12661TIP3    H259399   1.794   3.111  14.540  0.9813  0.0632  0.0026
12662TIP3   OH259400   1.069   4.776  12.695 -0.3440 -0.2521 -0.3441
12662TIP3    H159401   1.164   4.774  12.678 -0.3870  0.6878 -0.7210
12662TIP3    H259402   1.036   4.845  12.637 -1.2307 -0.4226 -0.0442
12663TIP3   OH259403   0.067   3.430   0.330 -0.2871 -0.2663 -0.6975
12663TIP3    H159404   0.155   3.407   0.357 -0.4342 -1.5728 -1.2539
12663TIP3    H259405   0.079   3.507   0.274  0.4696 -0.2972 -0.5884
12664TIP3   OH259406   6.732   2.774  14.564 -0.2722 -0.0898 -0.0518
12664TIP3    H159407   6.716   2.832  14.638 -1.3838  1.2480 -1.2881
12664TIP3    H259408   6.680   2.696  14.583 -1.8837  0.9241 -0.1915
12665TIP3   OH259409   5.914   1.802   0.880 -0.0476 -0.3552 -0.0307
12665TIP3    H159410   5.911   1.895   0.900 -2.0702 -0.3622 -0.1352
12665TIP3    H259411   5.855   1.791   0.805 -0.3233 -1.8085  0.3591
12666TIP3   OH259412   0.003   3.978   5.435  0.2323 -0.3250  0.5698
12666TIP3    H159413   0.002   4.056   5.380 -1.8513 -0.3191  0.5518
12666TIP3    H259414  -0.004   4.011   5.525  0.0729 -0.4667  0.6103
12667TIP3   OH259415   2.172   3.655   5.392  0.0522 -0.4679 -0.4015
12667TIP3    H159416   2.082   3.684   5.409  0.3823  0.6636 -0.4836
12667TIP3    H259417   2.222   3.736   5.386  1.0117 -1.0719 -0.7636
12668TIP3   OH259418   0.210   0.448   0.823 -0.0111  0.9422  0.2164
12668TIP3    H159419   0.231   0.491   0.740 -1.4969  0.3983 -0.4628
12668TIP3    H259420   0.237   0.357   0.811  1.3188  1.2015  0.9640
12669TIP3   OH259421   2.975   6.668  16.609  0.4441 -0.1059 -0.2239
12669TIP3    H159422   2.969   6.704  16.521  0.2446 -0.4741 -0.3632
12669TIP3    H259423   2.889   6.628  16.624 -0.0964  1.3253  0.7431
12670TIP3   OH259424   1.443   0.097   0.333 -0.3692  0.1415  0.1630
12670TIP3    H159425   1.391   0.048   0.397 -0.3559  1.2922  1.0916
12670TIP3    H259426   1.534   0.087   0.363 -0.3305  0.4195  0.1421
12671TIP3   OH259427   2.473   4.033   4.506  0.4679 -0.5993 -0.1807
12671TIP3    H159428   2.552   3.990   4.539  0.5000 -1.2861 -1.1155
12671TIP3    H259429   2.501   4.074   4.423 -0.4819 -2.1237 -1.3043
12672TIP3   OH259430   3.109   0.069   0.285 -0.1205  0.5193 -0.2062
12672TIP3    H159431   3.089   0.094   0.195 -1.0885 -0.3439 -0.2437
12672TIP3    H259432   3.058   0.129   0.339  0.1381  0.7644 -0.2286
12673TIP3   OH259433   4.234   4.296   2.465 -0.2479  0.4226 -0.4892
12673TIP3    H159434   4.317   4.342   2.460 -0.0807  0.4590  1.5644
12673TIP3    H259435   4.254   4.215   2.513 -1.3758  0.4252  0.0216
12674TIP3   OH259436   3.024   0.555  12.605 -0.0451  0.3750  0.2700
12674TIP3    H159437   2.984   0.494  12.544  0.5837 -0.1173  0.3338
12674TIP3    H259438   3.055   0.627  12.551 -0.3958  0.4264  0.1369
12675TIP3   OH259439   1.292   3.569  11.508  0.1645 -0.6389 -0.2940
12675TIP3    H159440   1.271   3.545  11.418 -0.0842  0.1177 -0.4439
12675TIP3    H259441   1.366   3.629  11.501  1.0981 -1.7025  0.1111
12676TIP3   OH259442   6.047   2.820   1.241 -0.1629 -0.2843  0.3853
12676TIP3    H159443   6.020   2.902   1.282 -0.7866  1.1205 -2.5340
12676TIP3    H259444   6.131   2.840   1.198 -0.5183 -1.0048 -0.7144
12677TIP3   OH259445   5.635   2.309  15.683 -0.4826 -0.0189 -0.1038
12677TIP3    H159446   5.638   2.214  15.696 -1.3185  0.0428  0.6055
12677TIP3    H259447   5.659   2.346  15.768 -1.0688  0.3984 -0.1114
12678TIP3   OH259448   2.513   3.209   1.279  0.1704  0.2558 -0.4637
12678TIP3    H159449   2.441   3.266   1.307  0.7270  1.0316 -0.5739
12678TIP3    H259450   2.551   3.178   1.361 -0.0652  0.1324 -0.3997
12679TIP3   OH259451   2.746   1.641  13.387 -0.6250  0.1057 -0.1996
12679TIP3    H159452   2.837   1.616  13.399 -0.7151 -1.0336 -1.5318
12679TIP3    H259453   2.702   1.559  13.362 -1.8526  0.7722 -0.3088
12680TIP3   OH259454   0.412   4.242   3.727  0.1946 -0.1038  0.3932
12680TIP3    H159455   0.477   4.256   3.795  1.7751  1.1749 -1.2582
12680TIP3    H259456   0.331   4.279   3.763  1.0816  0.9273  1.4229
12681TIP3   OH259457   3.353   6.738  16.460 -0.3152  0.1904 -0.2933
12681TIP3    H159458   3.438   6.762  16.497  0.1553  0.1038 -1.2893
12681TIP3    H259459   3.312   6.822  16.439  1.9031  0.4274 -5.0813
12682TIP3   OH259460   1.697   2.810  15.684 -0.3196  0.3849 -0.2439
12682TIP3    H159461   1.719   2.846  15.770  0.0297 -0.6195  0.0984
12682TIP3    H259462   1.754   2.857  15.623 -0.1606  0.6937  0.1367
12683TIP3   OH259463   1.906   6.282   3.684  0.4487 -0.0045  0.4628
12683TIP3    H159464   1.966   6.242   3.621  1.9710  0.7303  1.3831
12683TIP3    H259465   1.820   6.247   3.661  1.3534 -1.8583 -0.2955
12684TIP3   OH259466   0.679   2.477   2.627 -0.4219 -0.1957 -0.4527
12684TIP3    H159467   0.689   2.491   2.721 -0.4975 -0.9090 -0.3348
12684TIP3    H259468   0.721   2.553   2.587 -3.1345  1.7921  0.1798
12685TIP3   OH259469   3.946   4.454   2.284  0.1769 -0.6712  0.2295
12685TIP3    H159470   3.880   4.487   2.345  1.2517  0.8504  0.6423
12685TIP3    H259471   3.910   4.471   2.197  0.7900  2.0327  0.4122
12686TIP3   OH259472   6.072   0.830   5.491 -0.1375  0.0308  0.3624
12686TIP3    H159473   6.076   0.905   5.431 -0.7674  0.8851  1.3432
12686TIP3    H259474   6.163   0.807   5.507  0.0922  1.0392  0.5862
12687TIP3   OH259475   3.543   1.748   0.215  0.2386 -0.5131 -0.1388
12687TIP3    H159476   3.449   1.759   0.201  0.1549 -1.0781 -0.0424
12687TIP3    H259477   3.567   1.819   0.274  0.5391  1.7766 -2.7849
12688TIP3   OH259478   1.401   4.654  12.097 -0.3099 -1.0010  0.5563
12688TIP3    H159479   1.491   4.637  12.126  0.8921  1.6326 -1.2283
12688TIP3    H259480   1.393   4.607  12.014  0.9104  1.7304 -1.2712
12689TIP3   OH259481   2.724   6.317  12.026  0.4054 -0.2962  0.1112
12689TIP3    H159482   2.695   6.370  12.100 -1.6587 -0.9565 -0.1810
12689TIP3    H259483   2.644   6.282  11.988  1.4647 -0.5660 -2.0165
12690TIP3   OH259484   2.480   1.743   6.313 -0.0985  0.0453 -0.8854
12690TIP3    H159485   2.482   1.727   6.407  2.4226  1.7601 -0.5459
12690TIP3    H259486   2.515   1.662   6.274 -1.1975 -0.6875 -0.4045
12691TIP3   OH259487   1.336   6.480   4.764  0.1939 -0.1200  0.1797
12691TIP3    H159488   1.374   6.553   4.716  3.3180 -0.5493  1.7805
12691TIP3    H259489   1.356   6.498   4.856 -0.8476 -1.9531  0.8236
12692TIP3   OH259490   1.071   1.318  10.714  0.0613  0.3032 -0.5129
12692TIP3    H159491   1.144   1.372  10.684  0.9799 -0.8462 -0.4429
12692TIP3    H259492   1.035   1.280  10.633 -0.3429  0.7236 -0.5312
12693TIP3   OH259493   2.934   2.131   0.667 -0.4712  0.1674  0.1164
12693TIP3    H159494   3.012   2.176   0.635 -0.9870  0.6409 -0.5095
12693TIP3    H259495   2.932   2.151   0.761  1.5096 -1.9136  0.7097
12694TIP3   OH259496   4.868   3.093   4.534 -0.2255 -0.4466  0.4672
12694TIP3    H159497   4.845   3.100   4.441  1.3376 -0.4842  0.0605
12694TIP3    H259498   4.865   3.183   4.566  0.1304 -0.3154  0.1446
12695TIP3   OH259499   3.796   2.683  15.815  0.6823 -0.2037 -0.2829
12695TIP3    H159500   3.747   2.671  15.896  1.4835  0.5793  0.3360
12695TIP3    H259501   3.822   2.595  15.789 -1.4492 -0.6944 -0.8959
12696TIP3   OH259502   5.821   1.988  13.638 -0.0794  0.6489 -0.1129
12696TIP3    H159503   5.829   2.079  13.611  2.3596  0.6476  0.4006
12696TIP3    H259504   5.897   1.972  13.695 -1.0872 -1.3736  0.8054
12697TIP3   OH259505   6.458   3.017  11.381 -0.0968  0.0596  0.5781
12697TIP3    H159506   6.387   3.045  11.440  1.4450  2.0408  1.6219
12697TIP3    H259507   6.441   3.066  11.300 -0.7719 -0.6944  0.2454
12698TIP3   OH259508   6.766   0.280  14.419  0.0587  0.3355 -0.1977
12698TIP3    H159509   6.726   0.306  14.337 -1.3200 -0.8555  0.0496
12698TIP3    H259510   6.839   0.340  14.431 -0.8758  1.7472 -1.3348
12699TIP3   OH259511   3.779   4.771   5.830  0.7252  0.2511 -0.4592
12699TIP3    H159512   3.732   4.853   5.816 -1.2200 -0.8492 -0.7845
12699TIP3    H259513   3.717   4.703   5.803  1.1900 -1.4628  2.3617
12700TIP3   OH259514   0.322   2.749   4.898  0.1045  0.5420 -0.0259
12700TIP3    H159515   0.347   2.664   4.861  0.0925  0.5694 -0.0986
12700TIP3    H259516   0.304   2.732   4.990  1.1360  0.6680  0.2027
12701TIP3   OH259517   1.649   4.813  15.225 -0.7026 -0.2926 -0.2744
12701TIP3    H159518   1.558   4.838  15.241 -0.8847 -1.2922  0.3565
12701TIP3    H259519   1.699   4.893  15.241 -1.4939  0.3428 -0.9436
12702TIP3   OH259520   2.111   0.671  14.516 -0.5386  0.2207 -0.6001
12702TIP3    H159521   2.023   0.684  14.481 -1.7550 -0.1568  2.0158
12702TIP3    H259522   2.114   0.577  14.538 -0.0280  0.4838  0.5453
12703TIP3   OH259523   1.961   2.417   3.312  0.2399  0.1283  0.1153
12703TIP3    H159524   2.042   2.375   3.342 -0.0419 -0.8344 -0.3898
12703TIP3    H259525   1.983   2.452   3.225 -0.3199 -1.7275 -0.8437
12704TIP3   OH259526   0.935   0.120   0.933 -0.3523  0.2880  0.0503
12704TIP3    H159527   1.025   0.087   0.929 -0.7824 -0.9467 -0.0315
12704TIP3    H259528   0.914   0.144   0.843 -0.9709 -1.9922 -0.4984
12705TIP3   OH259529   5.804   2.810   5.685  0.0054 -0.1857 -0.0446
12705TIP3    H159530   5.845   2.745   5.743  0.1072  0.7347  0.9365
12705TIP3    H259531   5.726   2.767   5.652 -0.9808 -0.1621  2.1081
12706TIP3   OH259532   2.955   0.902  11.654 -0.1429 -0.0786  0.0886
12706TIP3    H159533   2.941   0.936  11.566  1.4215  1.1170  0.2526
12706TIP3    H259534   2.888   0.943  11.708  2.1588  3.6118  0.4444
12707TIP3   OH259535   1.295   5.383   4.431 -0.5649  0.0886  0.1167
12707TIP3    H159536   1.256   5.372   4.344  0.3977  2.2822 -0.6782
12707TIP3    H259537   1.322   5.295   4.457  0.9216 -0.4132 -2.7244
12708TIP3   OH259538   1.341   3.527  12.574 -0.3202  0.6238  0.1783
12708TIP3    H159539   1.322   3.589  12.645 -0.3305  0.7372  0.0781
12708TIP3    H259540   1.370   3.447  12.618 -0.8958  0.4953  0.3294
12709TIP3   OH259541   2.979   6.501   6.024  0.3539  0.2557 -0.5116
12709TIP3    H159542   2.950   6.413   5.998 -2.4640  1.4125 -1.6823
12709TIP3    H259543   3.068   6.508   5.989  0.5920 -2.0476 -0.5395
12710TIP3   OH259544   4.590   5.502   1.324  0.7278 -0.2924 -0.2395
12710TIP3    H159545   4.536   5.429   1.351 -0.5384  0.9135  0.6065
12710TIP3    H259546   4.553   5.531   1.241  0.4697  0.1317  0.0200
12711TIP3   OH259547   4.403   0.470   0.948  0.1761 -0.3257  0.3770
12711TIP3    H159548   4.403   0.437   1.038  0.9016 -1.1727  0.0789
12711TIP3    H259549   4.429   0.395   0.895  1.8660  0.7035 -0.3376
12712TIP3   OH259550   5.749   1.545  11.970 -0.0892 -0.5594 -0.0289
12712TIP3    H159551   5.822   1.607  11.973  0.4091 -0.9962 -1.9325
12712TIP3    H259552   5.778   1.470  12.021  1.3292 -1.2179 -1.7139
12713TIP3   OH259553   1.214   3.468   4.962 -0.0329 -0.0406  0.1713
12713TIP3    H159554   1.131   3.497   4.999 -0.6311 -0.2139 -0.9676
12713TIP3    H259555   1.278   3.532   4.992 -1.1649  2.0912 -1.6626
12714TIP3   OH259556   3.991   3.129   2.920  0.2915  0.0978  0.8938
12714TIP3    H159557   4.017   3.039   2.942  0.6159 -0.4017 -1.2620
12714TIP3    H259558   4.073   3.178   2.920  0.8187 -0.5940 -1.9775
12715TIP3   OH259559   2.035   5.352  13.706 -0.7907 -0.1663 -0.0340
12715TIP3    H159560   2.123   5.375  13.675 -0.9977 -0.6389 -1.0033
12715TIP3    H259561   1.979   5.424  13.675 -0.8847 -0.2904 -0.1517
12716TIP3   OH259562   3.883   1.692  15.719  0.1527  0.0785  0.1702
12716TIP3    H159563   3.862   1.749  15.645  1.1709 -0.1328 -0.2857
12716TIP3    H259564   3.975   1.670  15.708  0.1025 -0.6359  1.0458
12717TIP3   OH259565   4.356   2.222  12.788 -0.7307  0.7174  0.2984
12717TIP3    H159566   4.290   2.254  12.727 -0.3910 -0.9206 -1.0019
12717TIP3    H259567   4.437   2.264  12.759 -0.6050  0.0938 -0.2570
12718TIP3   OH259568   4.601   5.968   5.380 -0.1520 -0.0133 -0.6245
12718TIP3    H159569   4.544   5.939   5.451  1.2498  0.7104  0.8579
12718TIP3    H259570   4.681   5.917   5.391  0.7796  1.4075 -0.5279
12719TIP3   OH259571   1.629   5.083   4.656  0.1430  1.2138 -0.2481
12719TIP3    H159572   1.613   5.170   4.692  3.3060  2.0346 -0.5900
12719TIP3    H259573   1.617   5.093   4.562 -2.3831  0.4641 -0.0907
12720TIP3   OH259574   0.935   4.074  11.324  0.6606 -0.3701 -0.3785
12720TIP3    H159575   0.957   4.164  11.298 -0.0321 -0.6494 -2.1007
12720TIP3    H259576   0.883   4.085  11.404  0.3975  0.7926 -0.6768
12721TIP3   OH259577   1.094   1.373   1.583  0.3322  0.4241  0.0652
12721TIP3    H159578   1.034   1.422   1.640 -0.0536  2.7395 -2.1653
12721TIP3    H259579   1.124   1.300   1.638 -3.5388 -0.1965  1.7112
12722TIP3   OH259580   3.624   4.712  13.173  0.1839  0.2874 -0.6146
12722TIP3    H159581   3.715   4.717  13.144 -0.1331 -0.3526 -1.7977
12722TIP3    H259582   3.628   4.666  13.257  0.8907 -0.4124 -1.0181
12723TIP3   OH259583   1.413   3.423  12.279 -0.6102 -0.0997 -0.0118
12723TIP3    H159584   1.508   3.431  12.269 -0.4827 -0.8309  0.5199
12723TIP3    H259585   1.400   3.411  12.373 -1.2002 -0.3177 -0.1184
12724TIP3   OH259586   2.614   1.587   1.563 -0.1970 -0.2217 -0.2667
12724TIP3    H159587   2.561   1.648   1.613  0.6467 -0.0647  0.4591
12724TIP3    H259588   2.563   1.571   1.483 -1.8122 -0.8995  0.8622
12725TIP3   OH259589   2.174   4.479   0.339  0.1901  0.8172  0.1014
12725TIP3    H159590   2.258   4.436   0.351 -0.5118 -0.4423  0.6589
12725TIP3    H259591   2.186   4.535   0.262  0.9865 -0.7362 -0.9365
12726TIP3   OH259592   2.580   1.265  13.942  0.4614 -0.0813  0.0125
12726TIP3    H159593   2.642   1.202  13.907 -0.6749 -0.4007 -1.5176
12726TIP3    H259594   2.504   1.259  13.885  0.0665  2.2356  0.1897
12727TIP3   OH259595   3.645   5.271  16.531  0.1872  0.0460  0.2646
12727TIP3    H159596   3.741   5.268  16.529  0.3053 -2.7618  2.8162
12727TIP3    H259597   3.617   5.193  16.484 -1.1336  2.1024 -2.7402
12728TIP3   OH259598   0.123   0.256  16.757 -0.2455 -0.0050 -0.3066
12728TIP3    H159599   0.190   0.321  16.782  0.5635 -1.1718  0.6714
12728TIP3    H259600   0.109   0.205  16.837 -1.8064 -0.2439 -0.7147
12729TIP3   OH259601   4.304   2.323  11.628  0.4367 -0.6539 -0.2678
12729TIP3    H159602   4.332   2.236  11.659 -2.0558 -1.6674 -0.6851
12729TIP3    H259603   4.280   2.310  11.537 -1.5527  0.0596  0.1120
12730TIP3   OH259604   6.311   3.699  16.580  0.7001 -0.4056  0.6070
12730TIP3    H159605   6.269   3.628  16.628 -1.7984 -0.7431 -1.7811
12730TIP3    H259606   6.238   3.755  16.554  1.9348  0.0025 -2.2942
12731TIP3   OH259607   6.148   0.673   5.228  0.3110  0.4003  0.0826
12731TIP3    H159608   6.111   0.742   5.282 -1.8357  0.2333 -1.0589
12731TIP3    H259609   6.201   0.718   5.162 -0.8735  0.9831 -0.5023
12732TIP3   OH259610   2.943   6.361  11.566  0.0493  0.1267 -0.0273
12732TIP3    H159611   2.999   6.401  11.633 -0.9092 -0.5063  1.1931
12732TIP3    H259612   3.004   6.326  11.501  0.9507  2.3090 -0.4312
12733TIP3   OH259613   4.710   0.950  16.498  0.3313  0.5526 -0.9153
12733TIP3    H159614   4.774   0.911  16.439  0.9406  0.1930 -0.0364
12733TIP3    H259615   4.754   1.027  16.535  0.7465 -0.3965  0.6407
12734TIP3   OH259616   5.107   4.727  11.777 -0.5506  0.4034 -0.4580
12734TIP3    H159617   5.086   4.633  11.774 -3.1513  0.9130 -0.4020
12734TIP3    H259618   5.173   4.734  11.846 -0.2286 -1.4070 -0.5392
12735TIP3   OH259619   4.735   4.824  16.943  0.3256  0.7124  0.3180
12735TIP3    H159620   4.677   4.848  17.016  0.0895  0.3621  0.2469
12735TIP3    H259621   4.793   4.900  16.933  0.1909  0.8701  0.7011
12736TIP3   OH259622   4.994   3.599   3.771 -0.4060 -0.2431 -0.4700
12736TIP3    H159623   5.040   3.644   3.700  1.3646 -1.0757  0.0887
12736TIP3    H259624   5.039   3.627   3.850 -0.9655 -0.9816  0.1272
12737TIP3   OH259625   3.331   3.234   2.295 -0.3181  0.2034 -0.1875
12737TIP3    H159626   3.315   3.145   2.328 -1.0237  0.4753  0.2108
12737TIP3    H259627   3.376   3.220   2.211  0.9360 -0.4985  0.5687
12738TIP3   OH259628   2.288   1.017   3.427  0.3193 -0.3372  0.3283
12738TIP3    H159629   2.263   1.079   3.496  0.5895  1.6940 -1.3209
12738TIP3    H259630   2.380   1.038   3.409  0.5903 -1.6291  0.1216
12739TIP3   OH259631   4.294   5.101  13.814 -0.1888 -0.1898 -0.3980
12739TIP3    H159632   4.271   5.162  13.745 -1.9068  0.3767  0.6023
12739TIP3    H259633   4.384   5.075  13.795 -0.3209  0.6242 -2.3118
12740TIP3   OH259634   3.177   1.696   0.086  0.4800  0.0452 -0.6671
12740TIP3    H159635   3.205   1.681   0.177 -2.7163  0.3820  0.5095
12740TIP3    H259636   3.184   1.610   0.045  0.3369 -0.5155  0.4277
12741TIP3   OH259637   6.322   0.528  14.153  1.0414 -0.2159  0.8186
12741TIP3    H159638   6.233   0.494  14.144  1.8763 -2.8081  1.5960
12741TIP3    H259639   6.338   0.574  14.070 -1.0651  0.5903  0.7801
12742TIP3   OH259640   6.602   2.452   6.463 -0.5015  0.0968 -0.4760
12742TIP3    H159641   6.570   2.541   6.477  0.9489  0.7296 -1.0210
12742TIP3    H259642   6.679   2.444   6.519 -1.1935 -1.1984  0.3663
12743TIP3   OH259643   2.746   3.098   3.153  0.3460 -0.2050 -0.1572
12743TIP3    H159644   2.786   3.134   3.232  0.6720 -0.9550  0.0247
12743TIP3    H259645   2.818   3.057   3.106 -0.0331 -0.7402 -0.2858
12744TIP3   OH259646   6.716   2.566   5.585  0.2806 -0.4008  0.5566
12744TIP3    H159647   6.807   2.558   5.555 -0.3180 -4.2147 -0.8874
12744TIP3    H259648   6.714   2.516   5.667 -0.2569  0.9293  1.3763
12745TIP3   OH259649   5.942   5.799  13.795  0.3322  0.3913  0.5908
12745TIP3    H159650   5.955   5.864  13.863 -1.2881 -0.8626  2.2046
12745TIP3    H259651   5.847   5.791  13.788  0.4859 -1.0876 -0.2409
12746TIP3   OH259652   1.892   2.246   6.421 -0.5504  0.2004  0.4572
12746TIP3    H159653   1.842   2.319   6.383  0.4353  0.8080  0.2873
12746TIP3    H259654   1.917   2.192   6.346  0.2737  0.6874  0.3701
12747TIP3   OH259655   4.289   6.367  13.287  0.1760 -0.1207  0.3810
12747TIP3    H159656   4.337   6.351  13.369 -1.2178  0.0125  1.2531
12747TIP3    H259657   4.284   6.281  13.245  0.3183 -0.3162  0.7640
12748TIP3   OH259658   5.326   4.325   4.901  0.3398 -0.1997 -0.3532
12748TIP3    H159659   5.379   4.309   4.980  1.0162 -0.7711 -0.9128
12748TIP3    H259660   5.243   4.281   4.919 -1.0523  2.8470  1.6376
12749TIP3   OH259661   5.732   6.190   5.704  0.1270 -0.3448  0.2646
12749TIP3    H159662   5.769   6.278   5.705 -0.8949  0.1352 -0.9998
12749TIP3    H259663   5.669   6.191   5.632 -1.3446 -1.5210  1.4625
12750TIP3   OH259664   0.117   3.399  16.426 -0.4891  0.2169 -0.5264
12750TIP3    H159665   0.041   3.421  16.479  0.2975  0.8013  0.4107
12750TIP3    H259666   0.189   3.446  16.468  0.4177 -0.4608 -1.2791
12751TIP3   OH259667   5.557   4.273  14.835  0.1339 -0.6466 -0.2935
12751TIP3    H159668   5.479   4.222  14.858 -0.0272  0.3762  1.6638
12751TIP3    H259669   5.609   4.213  14.781  0.0090 -3.0154  1.9804
12752TIP3   OH259670   3.847   4.095  11.771 -0.0515 -0.2799  0.3285
12752TIP3    H159671   3.781   4.105  11.839 -2.0613 -2.2666 -1.1547
12752TIP3    H259672   3.818   4.153  11.701  1.0221  0.4491  0.4669
12753TIP3   OH259673   3.122   3.105   3.074  0.3911  1.0686  0.2869
12753TIP3    H159674   3.096   3.190   3.036  0.2538  1.4252  1.1558
12753TIP3    H259675   3.218   3.108   3.076  0.7525 -0.6127 -3.7698
12754TIP3   OH259676   0.081   1.515   5.015  0.4529  0.1855  0.3612
12754TIP3    H159677   0.049   1.605   5.020 -0.7842 -0.1830 -0.4214
12754TIP3    H259678   0.090   1.498   4.921 -1.8547 -1.3187  0.3325
12755TIP3   OH259679   1.749   2.797   5.656  0.1116  0.0963 -0.2784
12755TIP3    H159680   1.655   2.804   5.639 -0.6146 -4.3846  0.5651
12755TIP3    H259681   1.757   2.806   5.751  0.0677 -1.7959 -0.0434
12756TIP3   OH259682   3.296   5.438  14.039 -0.0064 -0.5668 -0.4989
12756TIP3    H159683   3.288   5.362  14.097  0.1280  0.5137  0.9976
12756TIP3    H259684   3.382   5.428  13.999  0.8370 -0.2769  1.1358
12757TIP3   OH259685   6.212   3.481  12.407 -0.0108 -0.2164 -0.2978
12757TIP3    H159686   6.262   3.487  12.488  0.9243 -3.0571 -0.5715
12757TIP3    H259687   6.227   3.565  12.363  2.7701 -0.1187  0.6505
12758TIP3   OH259688   1.895   4.255  11.911 -0.0991 -0.1979  0.3255
12758TIP3    H159689   1.799   4.259  11.909 -0.3564 -3.5305 -0.5118
12758TIP3    H259690   1.914   4.186  11.976  1.6808 -0.2134 -0.1788
12759TIP3   OH259691   1.605   1.736   1.883  0.3378  0.5590 -0.2296
12759TIP3    H159692   1.638   1.820   1.853 -1.2143  1.7840  1.2632
12759TIP3    H259693   1.652   1.720   1.965  0.9820 -0.3039 -0.7502
12760TIP3   OH259694   2.786   0.017  16.146  0.3440  0.2281  0.1638
12760TIP3    H159695   2.796   0.035  16.240 -0.6485 -0.5520  0.4337
12760TIP3    H259696   2.818  -0.073  16.135  0.0233  0.1503 -0.1558
12761TIP3   OH259697   6.251   5.484   3.030 -0.2474 -0.1776 -0.5295
12761TIP3    H159698   6.260   5.487   2.935  1.1984  0.9010 -0.3883
12761TIP3    H259699   6.205   5.402   3.048 -0.0249 -0.6646 -2.1058
12762TIP3   OH259700   0.426   1.386  15.817  0.0511 -0.3502 -0.1015
12762TIP3    H159701   0.455   1.466  15.771 -0.8592 -1.3111 -2.5037
12762TIP3    H259702   0.331   1.395  15.824 -0.1560 -1.4637 -1.0335
12763TIP3   OH259703   3.145   2.197  13.055  0.0067  0.0662 -0.1222
12763TIP3    H159704   3.167   2.290  13.062  2.0503 -0.2839 -1.3336
12763TIP3    H259705   3.198   2.155  13.123 -0.8380 -0.2437  0.3582
12764TIP3   OH259706   4.873   0.012  16.927 -0.0520 -0.0096 -0.9275
12764TIP3    H159707   4.874   0.008  16.831  0.5647 -0.6217 -0.9093
12764TIP3    H259708   4.911   0.097  16.948 -2.5899  1.2739 -1.2401
12765TIP3   OH259709   3.421   1.339  10.675  0.3800 -0.3827  0.0993
12765TIP3    H159710   3.508   1.374  10.653  0.4675  0.1053  1.1528
12765TIP3    H259711   3.395   1.289  10.598  2.5424 -2.3947  0.5355
12766TIP3   OH259712   2.196   1.777   2.516 -0.1837  0.2593  0.6957
12766TIP3    H159713   2.119   1.828   2.541  0.2858  0.9380  0.7895
12766TIP3    H259714   2.181   1.690   2.555 -0.4328  0.6782  1.5667
12767TIP3   OH259715   0.946   2.546   2.420  0.0773  0.1343  0.3358
12767TIP3    H159716   0.924   2.629   2.461  1.8944  0.8110  0.0562
12767TIP3    H259717   0.979   2.570   2.333 -1.6884 -1.0942 -0.7274
12768TIP3   OH259718   6.112   1.985  10.856  0.3299 -0.1317  0.1844
12768TIP3    H159719   6.188   1.927  10.846  0.8056  0.1284  1.8961
12768TIP3    H259720   6.078   1.996  10.768  2.6192  0.1798 -0.7245
12769TIP3   OH259721   6.355   3.724   2.392 -0.4769  0.1130  0.0952
12769TIP3    H159722   6.340   3.711   2.298  0.1216  0.1250 -0.0082
12769TIP3    H259723   6.378   3.637   2.425 -0.1146  0.2151  0.1168
12770TIP3   OH259724   4.533   0.442   2.828  0.4727  0.2257  0.2187
12770TIP3    H159725   4.469   0.378   2.799 -0.1193  1.5271 -1.5940
12770TIP3    H259726   4.580   0.467   2.747  1.4727  1.2039  1.0671
12771TIP3   OH259727   4.165   1.625   5.039 -0.7851  0.0848  0.6006
12771TIP3    H159728   4.152   1.579   5.122 -2.3692  1.9814  1.4877
12771TIP3    H259729   4.175   1.717   5.063  1.2866  0.4028 -1.1688
12772TIP3   OH259730   0.430   1.936   0.444  0.0378  0.2455  0.1064
12772TIP3    H159731   0.463   1.914   0.531  1.1045  2.0980  0.2151
12772TIP3    H259732   0.489   2.005   0.413 -0.2068 -0.5023 -2.1725
12773TIP3   OH259733   1.791   1.679   5.915  0.2340 -0.9069  0.5916
12773TIP3    H159734   1.837   1.763   5.905 -2.7376  1.0251  1.7881
12773TIP3    H259735   1.837   1.636   5.987  0.4606  0.7821  1.5233
12774TIP3   OH259736   5.063   5.386  17.002 -0.4109  0.0690  0.1963
12774TIP3    H159737   5.085   5.296  16.975  2.8754  0.8236 -0.0417
12774TIP3    H259738   5.062   5.382  17.098  2.1417  0.1346  0.3092
12775TIP3   OH259739   1.714   6.650   2.209  0.0723  0.8495 -0.4466
12775TIP3    H159740   1.721   6.745   2.222  0.3582  0.7012  0.5633
12775TIP3    H259741   1.707   6.614   2.297  3.0196 -0.2867 -0.5479
12776TIP3   OH259742   1.694   2.902   3.599 -0.2147 -0.4379  0.4061
12776TIP3    H159743   1.684   2.862   3.685  0.4702 -1.6877 -0.0641
12776TIP3    H259744   1.623   2.866   3.546 -0.9976  0.7857  0.5842
12777TIP3   OH259745   2.621   5.126  11.891 -0.1243 -0.0769  0.2626
12777TIP3    H159746   2.602   5.078  11.972 -0.8145  2.5789  1.8374
12777TIP3    H259747   2.541   5.120  11.840 -0.5482  0.1340  0.8825
12778TIP3   OH259748   6.597   1.085  10.086 -0.2224 -0.4584  0.0066
12778TIP3    H159749   6.641   1.057  10.006 -1.9793 -0.0474 -1.1619
12778TIP3    H259750   6.565   1.004  10.126  0.9052 -0.6897  0.4861
12779TIP3   OH259751   5.586   4.663  14.236 -0.2191  0.3305  0.7593
12779TIP3    H159752   5.497   4.658  14.202  0.6135 -1.3159 -1.3997
12779TIP3    H259753   5.575   4.683  14.329 -2.7267  2.6697  0.1007
12780TIP3   OH259754   3.515   2.368  11.180 -0.2102  0.0615 -0.0314
12780TIP3    H159755   3.524   2.274  11.163  0.3180  0.2039 -0.5679
12780TIP3    H259756   3.471   2.373  11.265  0.4636 -0.6784  0.3831
12781TIP3   OH259757   6.719   3.200  16.246  0.3836 -0.2424 -0.2671
12781TIP3    H159758   6.655   3.156  16.301 -0.8079 -0.5903 -1.8313
12781TIP3    H259759   6.772   3.252  16.306 -0.6061 -0.8875  1.2123
12782TIP3   OH259760   2.720   2.266  16.465  0.2184 -0.0211 -0.2608
12782TIP3    H159761   2.699   2.210  16.390  1.4452 -0.4515 -0.3072
12782TIP3    H259762   2.726   2.205  16.539 -0.6292  0.3533  0.1250
12783TIP3   OH259763   3.746   4.279   0.870 -0.5058 -0.4842 -0.2258
12783TIP3    H159764   3.765   4.221   0.944  2.5211 -0.4623 -0.8554
12783TIP3    H259765   3.671   4.238   0.826  0.7221 -3.2970  0.0757
12784TIP3   OH259766   1.441   4.192   4.063 -0.3267  0.3152  0.1838
12784TIP3    H159767   1.454   4.126   3.995 -0.7054  1.3458 -0.9319
12784TIP3    H259768   1.449   4.144   4.145  2.0337 -0.6313 -0.5217
12785TIP3   OH259769   0.248   3.145   4.075  0.1487 -0.7030 -0.5852
12785TIP3    H159770   0.289   3.081   4.018 -3.0736 -2.0322 -1.6376
12785TIP3    H259771   0.166   3.167   4.032  0.4772  3.1874  0.4318
12786TIP3   OH259772   3.116   4.833   0.317  0.2398 -0.1606 -0.2344
12786TIP3    H159773   3.073   4.749   0.337 -0.6707  0.6165  1.2867
12786TIP3    H259774   3.172   4.849   0.393 -0.4350  1.1177  0.0234
12787TIP3   OH259775   4.842   4.934   1.110  0.1584 -0.1526  0.0926
12787TIP3    H159776   4.860   4.885   1.030 -1.7445 -1.2165  0.2307
12787TIP3    H259777   4.855   4.870   1.180  0.2967  0.3239  0.5065
12788TIP3   OH259778   3.984   0.331  15.704 -0.4718 -0.1240  0.2626
12788TIP3    H159779   4.012   0.342  15.614  2.6687  2.4316  1.3743
12788TIP3    H259780   3.890   0.350  15.702 -0.6289 -0.7621 -2.4916
12789TIP3   OH259781   1.529   5.465   5.700 -0.4523 -0.0555  1.0494
12789TIP3    H159782   1.559   5.417   5.777  0.2649  0.0513  0.8391
12789TIP3    H259783   1.544   5.405   5.627  1.9634  1.0127  0.5561
12790TIP3   OH259784   2.209   1.546  12.345 -0.0267 -0.2248  0.0265
12790TIP3    H159785   2.180   1.559  12.436  0.2213  0.2290  0.0432
12790TIP3    H259786   2.305   1.541  12.351  0.0834  1.0480 -0.3437
12791TIP3   OH259787   3.526   2.573  12.837 -0.3026  0.1450 -0.1435
12791TIP3    H159788   3.576   2.652  12.815 -0.6337 -0.0886 -1.9092
12791TIP3    H259789   3.577   2.531  12.906  0.0318  1.7448  0.6424
12792TIP3   OH259790   0.987   0.011  12.538  0.3329 -0.0248  0.5695
12792TIP3    H159791   1.080  -0.003  12.556  0.5374 -0.4309 -0.6994
12792TIP3    H259792   0.983   0.028  12.444 -1.0743 -2.0070  0.2154
12793TIP3   OH259793   2.221   2.544   2.106  0.1504 -0.1715  0.5677
12793TIP3    H159794   2.226   2.629   2.149  0.9892  0.7131 -1.1462
12793TIP3    H259795   2.312   2.514   2.103  0.1583 -0.0855 -0.7428
12794TIP3   OH259796   5.388   0.866  15.595  0.2347 -0.1499 -0.3946
12794TIP3    H159797   5.307   0.826  15.627  1.0850 -0.5999  1.3210
12794TIP3    H259798   5.457   0.803  15.617  1.3463  1.2873  0.4910
12795TIP3   OH259799   0.136   6.378  14.997  0.3737  0.5341  0.5739
12795TIP3    H159800   0.169   6.310  15.056  3.0699  2.3125  1.3312
12795TIP3    H259801   0.120   6.332  14.915 -1.7642 -1.6760  2.0750
12796TIP3   OH259802   0.237   3.366   1.364 -0.1019 -0.5242  0.3782
12796TIP3    H159803   0.268   3.379   1.274  0.8475  0.7087  0.8397
12796TIP3    H259804   0.284   3.433   1.414 -1.4537 -0.4617  1.6077
12797TIP3   OH259805   1.623   5.684   2.847  0.2417 -0.6053  0.5392
12797TIP3    H159806   1.651   5.767   2.810 -1.5242  0.7482  2.0153
12797TIP3    H259807   1.703   5.644   2.881  1.0062  1.0275  0.7492
12798TIP3   OH259808   1.470   0.856   4.286 -0.5132  0.0762  0.4375
12798TIP3    H159809   1.403   0.811   4.338  1.0487 -1.1193  1.5198
12798TIP3    H259810   1.497   0.791   4.221  0.6804 -0.0400  1.0268
12799TIP3   OH259811   3.415   1.205  16.745  0.3904 -0.3386 -0.3499
12799TIP3    H159812   3.490   1.226  16.690  0.8513 -0.4884  0.2227
12799TIP3    H259813   3.357   1.282  16.737  0.8266 -0.0144 -0.4022
12800TIP3   OH259814   6.621   1.425   4.701 -0.2277 -0.1317 -0.0759
12800TIP3    H159815   6.554   1.393   4.762 -0.1706 -1.3199 -0.6121
12800TIP3    H259816   6.675   1.348   4.682  0.2804  0.4245 -0.9573
12801TIP3   OH259817   6.639   5.726  16.054 -0.0363  0.0771 -0.0577
12801TIP3    H159818   6.633   5.677  16.136  2.5633  1.7700  1.2679
12801TIP3    H259819   6.616   5.662  15.987  0.5285 -2.2000  1.7699
12802TIP3   OH259820   4.376   1.798  13.487 -0.2726  0.5707  0.3298
12802TIP3    H159821   4.369   1.715  13.533 -0.7004 -0.9605 -2.2993
12802TIP3    H259822   4.455   1.790  13.434 -1.1323  1.1833 -1.1078
12803TIP3   OH259823   3.347   3.526  16.055  0.0217  0.1791  0.2270
12803TIP3    H159824   3.369   3.495  16.143  0.6688 -0.4495 -0.1467
12803TIP3    H259825   3.426   3.512  16.004 -0.3593  0.5098 -0.4701
12804TIP3   OH259826   5.413   4.431  13.558  0.3471  0.1294  0.5125
12804TIP3    H159827   5.443   4.507  13.608 -1.0639  0.0065  1.5935
12804TIP3    H259828   5.453   4.356  13.603  2.0877  0.1871 -0.8040
12805TIP3   OH259829   0.631   5.126   1.286 -1.0236 -0.4392  0.5814
12805TIP3    H159830   0.712   5.177   1.291 -1.7410  0.9738 -1.1998
12805TIP3    H259831   0.644   5.069   1.210 -1.0158 -1.5847  1.4009
12806TIP3   OH259832   5.168   0.923  16.333 -0.0969 -0.0837  0.1295
12806TIP3    H159833   5.125   0.969  16.404 -0.3029 -1.6507  1.0643
12806TIP3    H259834   5.255   0.962  16.328 -1.2098  2.4398 -1.1334
12807TIP3   OH259835   2.944   0.751   2.485  0.1305  0.3451  0.5788
12807TIP3    H159836   2.973   0.746   2.576  0.2537 -2.0125  0.4761
12807TIP3    H259837   2.852   0.778   2.490 -0.2645 -1.0731  1.5371
12808TIP3   OH259838   0.749   3.152   3.311 -0.7161  0.4304 -1.2349
12808TIP3    H159839   0.785   3.069   3.280 -2.5190 -0.6285 -0.6159
12808TIP3    H259840   0.803   3.174   3.387 -1.7017 -1.4931  0.1119
12809TIP3   OH259841   4.350   4.604   3.900 -0.1762  0.2034  0.1921
12809TIP3    H159842   4.348   4.673   3.834 -0.3964  1.4378  1.4434
12809TIP3    H259843   4.267   4.558   3.890  0.6946 -1.0703 -1.8137
12810TIP3   OH259844   4.538   4.109   4.035  0.1657  0.0067 -0.1745
12810TIP3    H159845   4.584   4.131   4.117 -0.2592  0.6696 -0.1004
12810TIP3    H259846   4.600   4.133   3.966  0.8529 -1.3374 -0.0442
12811TIP3   OH259847   5.323   1.744   4.332  0.5100  0.1509 -0.4331
12811TIP3    H159848   5.358   1.769   4.247 -0.5835  0.9734 -0.6654
12811TIP3    H259849   5.233   1.778   4.332  0.7514  0.8945  1.3706
12812TIP3   OH259850   4.033   4.595   3.270 -0.4008 -0.3181  0.5042
12812TIP3    H159851   4.094   4.529   3.236 -0.9037 -0.3704 -0.2990
12812TIP3    H259852   3.974   4.546   3.327 -1.0492 -0.6497 -0.4383
12813TIP3   OH259853   0.527   0.392  15.396  0.1561  0.1803  0.9818
12813TIP3    H159854   0.607   0.401  15.449  0.6433 -0.6147  0.4030
12813TIP3    H259855   0.519   0.297  15.382  0.4000  0.4079 -0.9092
12814TIP3   OH259856   2.214   4.539  12.127 -0.3844  0.1743  0.6496
12814TIP3    H159857   2.201   4.594  12.050  0.5373 -0.8920 -0.2827
12814TIP3    H259858   2.127   4.501  12.144 -0.5947  0.4333  0.1643
12815TIP3   OH259859   4.789   0.808   2.395  0.2365 -0.1244  0.3332
12815TIP3    H159860   4.741   0.849   2.322 -0.8638  0.3026  1.2681
12815TIP3    H259861   4.852   0.750   2.352 -1.6733 -1.3542 -0.9437
12816TIP3   OH259862   0.109   1.322  16.499  0.6887  0.5731  0.0018
12816TIP3    H159863   0.047   1.378  16.452  1.6888  1.7696  0.0559
12816TIP3    H259864   0.081   1.233  16.478  0.4879  1.0586 -2.0571
12817TIP3   OH259865   2.698   2.989  13.346  0.1571 -0.7482 -0.0806
12817TIP3    H159866   2.618   3.016  13.301 -0.5311 -0.8045  1.0812
12817TIP3    H259867   2.764   2.985  13.276 -0.0206  2.5398 -0.5840
12818TIP3   OH259868   3.694   2.537  10.667  0.3473 -0.0823  0.5479
12818TIP3    H159869   3.771   2.575  10.625  0.7764 -1.2764  0.2147
12818TIP3    H259870   3.636   2.611  10.683  0.1863  0.4412 -2.1077
12819TIP3   OH259871   6.666   2.124  14.134 -0.3411  0.2829 -0.5583
12819TIP3    H159872   6.655   2.072  14.213 -0.9688  0.4882 -0.5088
12819TIP3    H259873   6.713   2.202  14.162 -1.3055  0.7500 -0.2269
12820TIP3   OH259874   3.526   3.992  14.817 -0.6307 -0.2373 -0.2337
12820TIP3    H159875   3.562   4.015  14.903 -1.3259 -0.3874  0.1061
12820TIP3    H259876   3.601   3.960  14.767  0.0294  1.0786 -0.1241
12821TIP3   OH259877   5.270   0.703   1.825  0.1941  0.4644  0.1371
12821TIP3    H159878   5.325   0.628   1.804 -0.7007 -0.5703  1.3303
12821TIP3    H259879   5.289   0.723   1.917 -0.6137  0.7830  0.2486
12822TIP3   OH259880   3.923   1.499   5.296 -0.4055  0.0178 -0.3830
12822TIP3    H159881   3.853   1.542   5.247 -2.2475 -1.3514  0.8965
12822TIP3    H259882   3.929   1.411   5.258  0.4217  0.0140 -0.2697
12823TIP3   OH259883   5.992   3.858  16.220  0.1446 -0.0571  0.2585
12823TIP3    H159884   6.027   3.788  16.274 -1.2392  0.6258  2.1536
12823TIP3    H259885   5.946   3.814  16.149 -1.0586 -1.1204  1.6499
12824TIP3   OH259886   2.173   3.066   2.574 -0.1562 -0.2020 -0.5655
12824TIP3    H159887   2.201   3.038   2.487 -0.5132  1.1542 -1.1334
12824TIP3    H259888   2.223   3.146   2.591 -0.9079  0.1564 -0.0022
12825TIP3   OH259889   5.372   4.524   2.365  0.1993 -0.2331  0.7504
12825TIP3    H159890   5.298   4.465   2.349  1.9053 -1.7116 -2.5390
12825TIP3    H259891   5.394   4.559   2.279  4.8900 -1.8611  1.0198
12826TIP3   OH259892   6.345   1.048   3.347 -0.6006  0.0130  0.7227
12826TIP3    H159893   6.258   1.057   3.307 -1.1354  0.4710  1.9383
12826TIP3    H259894   6.385   1.134   3.336  0.5463 -0.7476 -1.6437
12827TIP3   OH259895   2.867   5.841  13.127  0.9013 -0.0296 -0.2196
12827TIP3    H159896   2.947   5.852  13.179  1.9361  0.7521 -1.8831
12827TIP3    H259897   2.840   5.750  13.143  2.5096 -0.5235 -0.1049
12828TIP3   OH259898   0.646   1.360   3.359  0.5052  0.2457  0.2255
12828TIP3    H159899   0.739   1.357   3.384  0.0565 -1.3453  1.9008
12828TIP3    H259900   0.603   1.409   3.429  0.1598  1.8454 -1.0388
12829TIP3   OH259901   1.243   4.852   5.591 -0.4813 -0.4329 -0.4848
12829TIP3    H159902   1.331   4.848   5.630 -0.2941 -0.2150 -0.8846
12829TIP3    H259903   1.217   4.943   5.598 -1.1090 -0.6758  0.5683
12830TIP3   OH259904   4.155   1.095  14.785  0.3437  0.6011  0.3083
12830TIP3    H159905   4.099   1.063  14.856 -0.7902  0.0827 -0.7823
12830TIP3    H259906   4.221   1.148  14.829 -0.6407  0.7258  1.7099
12831TIP3   OH259907   2.951   1.507   1.033  0.4626 -0.4269 -0.4710
12831TIP3    H159908   2.946   1.554   0.949 -1.6721  3.2980  1.4715
12831TIP3    H259909   2.861   1.500   1.062  1.2052  2.3219  3.2837
12832TIP3   OH259910   4.362   1.262   6.351  0.2357 -0.1871 -0.2745
12832TIP3    H159911   4.287   1.273   6.293  1.3023 -1.3685 -1.9645
12832TIP3    H259912   4.377   1.167   6.353  1.0083 -0.0661  0.9459
12833TIP3   OH259913   4.539   4.137  10.452 -0.3153 -0.0468  0.1526
12833TIP3    H159914   4.626   4.108  10.428  0.6225  1.4502  1.5250
12833TIP3    H259915   4.543   4.233  10.447 -1.0249  0.1945  2.7409
12834TIP3   OH259916   4.746   6.795  13.155 -0.0584  0.4024 -0.3378
12834TIP3    H159917   4.661   6.786  13.198  0.6483  1.3424  1.3634
12834TIP3    H259918   4.782   6.877  13.190  1.1979  0.4769 -1.6754
12835TIP3   OH259919   5.481   4.087   2.487 -0.2459 -0.4478  0.0819
12835TIP3    H159920   5.479   4.071   2.581  1.0922  1.3865  0.4615
12835TIP3    H259921   5.425   4.163   2.474 -1.4886 -1.4578 -0.8350
12836TIP3   OH259922   0.676   6.751   4.708  0.0157 -0.1112  0.1362
12836TIP3    H159923   0.761   6.745   4.666 -0.7748 -1.0160 -1.4078
12836TIP3    H259924   0.614   6.766   4.637 -1.3258 -1.2487  1.0060
12837TIP3   OH259925   3.299   0.914   6.342  0.3871 -0.2484  0.0116
12837TIP3    H159926   3.357   0.990   6.347  2.1732 -1.5263 -0.2791
12837TIP3    H259927   3.336   0.851   6.404  1.0040 -2.1440 -2.1285
12838TIP3   OH259928   0.525   2.449  15.081 -0.3609  0.3512  0.1174
12838TIP3    H159929   0.496   2.503  15.007 -2.3218 -2.2533 -1.1702
12838TIP3    H259930   0.592   2.392  15.045 -0.5501 -0.2008  0.6201
12839TIP3   OH259931   3.229   1.342   1.790  0.0073 -0.4900 -0.5525
12839TIP3    H159932   3.284   1.344   1.711  0.0668 -0.7207 -0.5190
12839TIP3    H259933   3.152   1.291   1.763  0.4694 -1.4048 -0.1833
12840TIP3   OH259934   1.732   0.171   2.182 -0.4648  0.5664  0.4209
12840TIP3    H159935   1.686   0.164   2.099  1.2338  1.1275 -0.6232
12840TIP3    H259936   1.819   0.205   2.159 -0.0023  0.9178  2.4437
12841TIP3   OH259937   0.944   6.087   0.807 -0.0936  0.0333 -0.4895
12841TIP3    H159938   0.881   6.083   0.735  0.1215  2.5175 -0.8866
12841TIP3    H259939   0.914   6.160   0.861  2.5711  1.5171 -0.8486
12842TIP3   OH259940   0.011   4.702   4.882 -0.6146  0.3209 -0.4078
12842TIP3    H159941   0.037   4.704   4.790  0.4616  0.3865 -0.1255
12842TIP3    H259942  -0.069   4.650   4.884  0.7065 -1.8491 -1.0686
12843TIP3   OH259943   4.951   5.518   2.731  0.1759  0.3298  0.2851
12843TIP3    H159944   5.013   5.510   2.659  0.3700 -0.3318  0.5192
12843TIP3    H259945   4.924   5.428   2.749  0.3057  0.4669  1.1962
12844TIP3   OH259946   3.401   5.162  16.114  0.4744 -0.1914  0.5083
12844TIP3    H159947   3.372   5.225  16.048  0.3885  0.1491  0.8675
12844TIP3    H259948   3.371   5.199  16.197  0.3770 -0.7331  0.7200
12845TIP3   OH259949   5.888   3.351  10.889  0.0504 -0.1282 -0.5412
12845TIP3    H159950   5.824   3.287  10.922 -0.5597  1.4821  1.6059
12845TIP3    H259951   5.836   3.430  10.874  1.3671  0.9176  0.2608
12846TIP3   OH259952   0.228   3.269   3.649 -0.0629 -0.0008  0.4080
12846TIP3    H159953   0.234   3.348   3.702  1.4250 -0.5578  1.1292
12846TIP3    H259954   0.283   3.286   3.573 -1.8049  0.6085 -0.7805
12847TIP3   OH259955   1.418   4.848   6.107  0.1019  0.2733  0.0627
12847TIP3    H159956   1.334   4.877   6.074 -0.7074 -1.0547  0.8672
12847TIP3    H259957   1.482   4.904   6.062 -1.1800  1.2766 -0.5898
12848TIP3   OH259958   5.654   1.029   4.803  0.2492 -0.1940 -0.2759
12848TIP3    H159959   5.740   1.020   4.845 -0.9207 -0.3512  2.2554
12848TIP3    H259960   5.618   0.940   4.803 -0.0531 -0.0755 -1.0362
12849TIP3   OH259961   6.581   3.070  15.626 -0.2814 -0.1838  0.9113
12849TIP3    H159962   6.623   3.024  15.699 -1.8825  0.1097  2.0785
12849TIP3    H259963   6.536   3.143  15.668  1.1884  1.7670 -0.7579
12850TIP3   OH259964   5.336   0.061  16.170  0.1226  0.1995 -0.5961
12850TIP3    H159965   5.300   0.143  16.203  0.9995 -0.2256  1.5560
12850TIP3    H259966   5.424   0.084  16.139  0.4932  0.0290  0.3108
12851TIP3   OH259967   4.078   6.583  15.554  0.1822 -0.0568 -0.2661
12851TIP3    H159968   4.078   6.490  15.579 -1.9106  0.1883  0.8362
12851TIP3    H259969   4.008   6.622  15.606  1.8857  2.4547  0.3395
12852TIP3   OH259970   1.184   2.272  13.527 -0.3640 -0.4838  0.0842
12852TIP3    H159971   1.258   2.240  13.476 -1.1890 -3.0086  0.3202
12852TIP3    H259972   1.113   2.211  13.507 -1.0984 -0.8146  3.2118
12853TIP3   OH259973   1.412   3.230   3.171 -0.0850 -0.2912  0.0894
12853TIP3    H159974   1.458   3.149   3.148 -0.1707 -0.6016  0.9709
12853TIP3    H259975   1.394   3.272   3.086 -1.3324 -1.8952 -0.4880
12854TIP3   OH259976   5.820   0.268  12.868 -0.3509 -0.5077  0.2583
12854TIP3    H159977   5.870   0.302  12.794 -2.6095  0.1230 -1.0424
12854TIP3    H259978   5.827   0.336  12.935 -0.0746 -0.1098 -0.1703
12855TIP3   OH259979   5.216   0.434  14.225 -0.1990  0.0039  0.7661
12855TIP3    H159980   5.220   0.487  14.305  0.9425 -0.1219  0.8079
12855TIP3    H259981   5.189   0.496  14.157  2.2392  1.0043  0.5769
12856TIP3   OH259982   3.536   5.158  13.938 -0.1728  0.0037 -0.4390
12856TIP3    H159983   3.548   5.097  14.011 -0.2720  0.7517  0.2148
12856TIP3    H259984   3.546   5.245  13.977 -0.2901  0.4191 -1.3057
12857TIP3   OH259985   4.930   1.025  12.146  0.3771  0.1286 -0.3560
12857TIP3    H159986   4.887   1.108  12.167 -0.0924  0.1459 -1.3519
12857TIP3    H259987   5.023   1.041  12.163  0.0960  0.3125  1.1236
12858TIP3   OH259988   3.327   6.510  15.883  0.0034  0.7820 -0.5468
12858TIP3    H159989   3.238   6.541  15.901 -0.2367 -1.3228  2.6254
12858TIP3    H259990   3.381   6.554  15.949  0.8898  0.1463 -0.8359
12859TIP3   OH259991   5.039   3.324   3.845  0.0339 -0.2304 -0.0070
12859TIP3    H159992   5.027   3.413   3.811 -0.1118 -0.0873  0.4205
12859TIP3    H259993   5.127   3.325   3.884 -0.3680  0.0325  0.9270
12860TIP3   OH259994   5.149   4.461  11.799  0.3866  0.5764  0.0355
12860TIP3    H159995   5.238   4.483  11.770  0.8643  0.6109  1.4526
12860TIP3    H259996   5.160   4.435  11.890 -1.3257  2.7143  0.9313
12861TIP3   OH259997   2.041   5.694   1.497  0.1947  0.3697  1.0250
12861TIP3    H159998   2.030   5.600   1.483 -1.7042  0.7450 -0.3690
12861TIP3    H259999   1.987   5.735   1.429  0.0376  2.4722  2.3424
12862TIP3   OH260000   5.723   4.968  15.624 -0.2330 -0.2621  0.0563
12862TIP3    H160001   5.643   4.968  15.571 -0.5293 -0.4657  0.4900
12862TIP3    H260002   5.758   4.880  15.616  0.9702  0.3175 -1.6081
12863TIP3   OH260003   3.653   4.245  11.657  0.2647  0.3051  0.0309
12863TIP3    H160004   3.620   4.317  11.604  0.4675  0.1249 -0.3408
12863TIP3    H260005   3.597   4.246  11.735  0.9290  1.5193  0.5165
12864TIP3   OH260006   6.403   1.162  10.293 -0.2786  0.4983  0.1859
12864TIP3    H160007   6.436   1.231  10.235 -1.6618 -0.3466 -1.7424
12864TIP3    H260008   6.447   1.083  10.263  1.3900  0.4758  2.4616
12865TIP3   OH260009   4.024   2.988   3.359 -0.2040  0.0869  0.3973
12865TIP3    H160010   3.960   2.921   3.339 -0.3272  0.5548 -0.9061
12865TIP3    H260011   4.091   2.943   3.410 -1.7946 -0.2847  2.2735
12866TIP3   OH260012   4.830   4.111   4.580  0.3892  0.2583 -0.2825
12866TIP3    H160013   4.824   4.016   4.571  0.3371 -0.0012  1.8749
12866TIP3    H260014   4.923   4.131   4.573  0.5431 -0.1420  0.4374
12867TIP3   OH260015   5.907   5.031   3.758  0.3580 -0.2811 -0.3985
12867TIP3    H160016   5.932   5.114   3.718  0.3680 -0.9947 -1.9692
12867TIP3    H260017   5.824   5.008   3.717 -0.6069 -0.1685  1.3885
12868TIP3   OH260018   1.447   3.780   6.520  0.0682  0.1686  0.0480
12868TIP3    H160019   1.428   3.854   6.463  0.9675  1.4869  1.3789
12868TIP3    H260020   1.445   3.703   6.463 -0.6719  1.2360 -1.4054
12869TIP3   OH260021   4.539   5.508  11.166  0.0616 -0.1820 -0.1693
12869TIP3    H160022   4.520   5.527  11.074 -0.5574  0.3667  0.0661
12869TIP3    H260023   4.477   5.439  11.189  0.9892 -1.1495 -0.4710
12870TIP3   OH260024   0.348   4.759   0.779  0.2018 -0.1049 -0.3067
12870TIP3    H160025   0.306   4.824   0.836 -0.3608 -1.2547  0.6396
12870TIP3    H260026   0.441   4.762   0.803  0.1796  0.3602 -0.2796
12871TIP3   OH260027   3.515   6.078  17.112  0.4865 -0.6052 -0.0870
12871TIP3    H160028   3.590   6.129  17.080 -0.1179 -0.9544 -2.2646
12871TIP3    H260029   3.544   6.041  17.195  2.5935 -0.4319 -0.6862
12872TIP3   OH260030   2.135   5.867   1.984 -0.4692  0.4415  0.0590
12872TIP3    H160031   2.219   5.820   1.984 -0.2141  0.8751  0.7087
12872TIP3    H260032   2.112   5.874   1.892  0.3288  0.5038 -0.1480
12873TIP3   OH260033   4.970   0.827  14.697 -0.0145 -0.0722 -0.3014
12873TIP3    H160034   5.053   0.797  14.735 -0.1662  0.7210  0.6921
12873TIP3    H260035   4.968   0.921  14.713 -0.7028  0.0683 -1.1233
12874TIP3   OH260036   0.304   2.362  14.711  0.8660  0.1738 -0.3038
12874TIP3    H160037   0.364   2.294  14.741  0.1331  0.0988  1.0715
12874TIP3    H260038   0.249   2.319  14.646  1.2788 -0.1675 -0.4316
12875TIP3   OH260039   0.418   0.923  17.021  1.1053  0.0403  0.0527
12875TIP3    H160040   0.432   0.831  17.000  0.4682 -0.2595  0.8520
12875TIP3    H260041   0.498   0.967  16.993  1.0289 -0.5968 -1.2195
12876TIP3   OH260042   3.545   0.786   2.301  0.8870  0.0455  0.3026
12876TIP3    H160043   3.513   0.794   2.391 -0.3129 -1.5736  0.0554
12876TIP3    H260044   3.471   0.749   2.252  1.3216  1.3834 -1.4931
12877TIP3   OH260045   0.852   6.163  16.672 -0.1722 -0.0592 -0.0160
12877TIP3    H160046   0.893   6.076  16.676 -1.0574 -0.4814  0.0035
12877TIP3    H260047   0.770   6.149  16.625 -0.5971  0.6560  0.4953
12878TIP3   OH260048   0.219   0.971   5.470 -0.0941  0.9754 -1.1161
12878TIP3    H160049   0.237   0.883   5.437  0.3761  0.7682 -0.3422
12878TIP3    H260050   0.214   0.960   5.565  1.1995  1.9770 -0.8974
12879TIP3   OH260051   6.461   2.763  15.039  0.1019  0.2384 -0.0947
12879TIP3    H160052   6.536   2.739  14.985 -0.4074  0.8955 -1.1224
12879TIP3    H260053   6.497   2.775  15.127  0.7882 -1.7624 -0.0573
12880TIP3   OH260054   6.052   0.248  16.427 -0.7967  0.1543  0.0911
12880TIP3    H160055   6.072   0.195  16.350 -0.0734  0.1963  0.2395
12880TIP3    H260056   6.133   0.296  16.444 -0.0823 -1.6800  2.3415
12881TIP3   OH260057   1.942   3.033   5.166 -0.0123  0.2032  0.0671
12881TIP3    H160058   1.874   2.969   5.144  0.0777 -0.0721  0.5734
12881TIP3    H260059   1.995   3.039   5.087 -0.7302  0.5663 -0.4057
12882TIP3   OH260060   3.821   6.086   2.720  0.4414  0.5776  0.3740
12882TIP3    H160061   3.900   6.118   2.676  0.8251 -0.0212  0.6136
12882TIP3    H260062   3.846   6.074   2.811  0.4618 -0.8221  0.2148
12883TIP3   OH260063   1.380   0.151  13.398 -0.0498 -0.3625  0.2271
12883TIP3    H160064   1.348   0.101  13.473 -1.4093 -0.4846 -0.4148
12883TIP3    H260065   1.467   0.114  13.381  0.6395  0.2115  2.2141
12884TIP3   OH260066   0.720   4.959   5.377 -0.0866 -0.4895 -0.1529
12884TIP3    H160067   0.791   4.972   5.440  0.0021 -0.9351 -0.1597
12884TIP3    H260068   0.760   4.972   5.291 -0.3575  0.7998 -0.0977
12885TIP3   OH260069   1.270   3.361   2.411  0.4235  0.3941  0.2275
12885TIP3    H160070   1.322   3.317   2.478  1.4711  0.4447 -0.5196
12885TIP3    H260071   1.304   3.327   2.328 -0.2800  0.9398 -0.2979
12886TIP3   OH260072   0.156   0.717   4.397  0.0423  0.1218 -0.1308
12886TIP3    H160073   0.106   0.755   4.469  0.4836  0.7814 -0.1633
12886TIP3    H260074   0.236   0.685   4.437  0.4900  0.8969 -0.3920
12887TIP3   OH260075   1.283   0.648   2.399  0.4590 -0.3677 -0.3722
12887TIP3    H160076   1.325   0.659   2.484  1.6512 -1.4591 -0.7889
12887TIP3    H260077   1.221   0.721   2.393  2.1975  1.2394  0.3231
12888TIP3   OH260078   3.719   2.116  16.309  0.4041  0.1326  0.3650
12888TIP3    H160079   3.676   2.192  16.270  0.4431  0.3457  0.7322
12888TIP3    H260080   3.807   2.147  16.331  1.2746 -0.7009 -1.7058
12889TIP3   OH260081   6.272   2.789  16.520  0.4488  1.0184 -0.1917
12889TIP3    H160082   6.310   2.704  16.541  2.1095  1.2343 -1.9650
12889TIP3    H260083   6.238   2.822  16.603 -0.2035 -1.3335  0.5368
12890TIP3   OH260084   1.950   4.174  13.067 -0.5215 -0.5196 -0.2586
12890TIP3    H160085   1.912   4.258  13.090 -0.2327 -0.3092 -0.5321
12890TIP3    H260086   1.927   4.162  12.975  1.4558  0.4014 -0.9305
12891TIP3   OH260087   2.562   6.052   4.087  0.1965 -0.0730 -0.2702
12891TIP3    H160088   2.632   6.065   4.152  2.6945 -2.7262 -2.2211
12891TIP3    H260089   2.483   6.044   4.140  1.3514  2.2679  2.1043
12892TIP3   OH260090   5.692   3.494   2.351 -0.1238  0.0866  0.0165
12892TIP3    H160091   5.712   3.490   2.444  0.1072 -1.6945 -0.0754
12892TIP3    H260092   5.747   3.426   2.312 -1.5947 -0.4747 -1.1581
12893TIP3   OH260093   0.106   0.629   2.392 -0.6018 -0.5884  0.1801
12893TIP3    H160094   0.170   0.695   2.366 -1.0026  0.1350  0.9753
12893TIP3    H260095   0.027   0.653   2.344 -0.7138 -0.5581  0.3791
12894TIP3   OH260096   4.182   3.118  14.304 -0.1068 -0.2801 -0.0799
12894TIP3    H160097   4.244   3.091  14.236  2.0158 -0.8085  1.9569
12894TIP3    H260098   4.185   3.047  14.369  0.4098  1.6290  2.1031
12895TIP3   OH260099   4.150   4.999  16.343 -0.4856  0.0131  0.1209
12895TIP3    H160100   4.078   5.061  16.350  1.1577  2.6891 -3.5683
12895TIP3    H260101   4.134   4.953  16.260  2.1335  0.9766 -1.0182
12896TIP3   OH260102   3.319   2.437  15.345  0.1648 -0.0277  0.6381
12896TIP3    H160103   3.321   2.396  15.258  2.5752  0.1073  0.5695
12896TIP3    H260104   3.300   2.365  15.405 -2.3340  0.0145 -0.0071
12897TIP3   OH260105   6.583   2.049  12.922  0.4086  0.1905  0.3487
12897TIP3    H160106   6.619   2.074  12.837 -0.2263  3.0709  0.8509
12897TIP3    H260107   6.490   2.066  12.916  0.0834 -1.0989  1.1533
12898TIP3   OH260108   5.078   0.391  11.392 -0.0445  0.2886 -0.2659
12898TIP3    H160109   5.157   0.377  11.445 -0.1238  0.3240 -0.1398
12898TIP3    H260110   5.030   0.308  11.399 -0.4105  0.5499  0.3113
12899TIP3   OH260111   4.641   3.930   3.127  0.6843 -0.6318 -0.0908
12899TIP3    H160112   4.711   3.979   3.169  0.9563 -1.2543  0.1898
12899TIP3    H260113   4.671   3.919   3.037 -0.0141  0.9220 -0.5481
12900TIP3   OH260114   1.042   5.011   1.639  0.3979 -0.0189 -0.1118
12900TIP3    H160115   1.101   4.969   1.700 -0.1674 -1.0789 -0.2687
12900TIP3    H260116   0.966   5.036   1.692  1.0719  1.6318  0.1562
12901TIP3   OH260117   6.104   5.141   2.083 -0.3063 -0.8792  0.2127
12901TIP3    H160118   6.014   5.163   2.107 -0.2702  0.0244 -0.3895
12901TIP3    H260119   6.155   5.219   2.105  0.2891 -1.2836  0.3122
12902TIP3   OH260120   3.838   3.471  13.710 -0.1946 -0.2894  0.2895
12902TIP3    H160121   3.907   3.431  13.763 -1.7273 -0.6364  2.1475
12902TIP3    H260122   3.806   3.544  13.764  0.5218  1.6233 -1.7353
12903TIP3   OH260123   2.422   5.417  12.361  0.3613  0.1828  0.5291
12903TIP3    H160124   2.436   5.446  12.271 -2.5856  0.5758  0.1149
12903TIP3    H260125   2.448   5.325  12.361 -0.7045 -0.1546 -1.0824
12904TIP3   OH260126   1.690   1.624  12.897  0.0942  0.5088  0.2271
12904TIP3    H160127   1.706   1.537  12.934 -1.4452  0.7398  1.5402
12904TIP3    H260128   1.753   1.631  12.825 -1.1772 -2.6053 -1.3966
12905TIP3   OH260129   3.968   2.213   1.775  0.4312 -0.5382  0.1427
12905TIP3    H160130   4.007   2.151   1.712  1.3652 -2.6909  2.6618
12905TIP3    H260131   4.039   2.275   1.794  1.0525 -1.4627  0.9685
12906TIP3   OH260132   5.219   2.329   0.584 -0.1706  0.1515 -0.2516
12906TIP3    H160133   5.141   2.275   0.591  1.8979 -2.8782  1.3274
12906TIP3    H260134   5.195   2.412   0.626 -2.5293 -0.5998  0.0087
12907TIP3   OH260135   2.640   4.372   4.540  0.7483  0.3259  0.4210
12907TIP3    H160136   2.664   4.282   4.516  0.3688  0.0949  0.8821
12907TIP3    H260137   2.717   4.424   4.519  1.6380 -0.3693  1.7788
12908TIP3   OH260138   2.768   2.859   0.935  0.2353  0.1152  0.1404
12908TIP3    H160139   2.776   2.952   0.957  0.4570  0.0762  0.2196
12908TIP3    H260140   2.694   2.829   0.989  1.5857 -0.2850  1.8497
12909TIP3   OH260141   2.907   4.438  12.636  0.2711 -0.2755 -0.2498
12909TIP3    H160142   2.888   4.397  12.551  0.3677 -0.2283 -0.2943
12909TIP3    H260143   2.915   4.365  12.697 -1.4827 -0.2525  0.0680
12910TIP3   OH260144   2.669   1.468  13.066  0.5482 -0.0462 -0.2488
12910TIP3    H160145   2.663   1.449  12.973  1.5668 -1.1867 -0.1111
12910TIP3    H260146   2.716   1.393  13.103 -0.8721 -0.2157  1.3750
12911TIP3   OH260147   4.140   3.270  11.419 -0.6726  0.2877  0.4756
12911TIP3    H160148   4.227   3.236  11.441 -0.6234 -0.8512 -1.2572
12911TIP3    H260149   4.111   3.316  11.498  2.1643  2.1175  0.5829
12912TIP3   OH260150   4.428   6.425  12.537 -0.1480  0.2542  0.1920
12912TIP3    H160151   4.345   6.451  12.578 -1.2278  0.5432 -2.0169
12912TIP3    H260152   4.433   6.330  12.552 -1.7943 -0.0896 -1.0562
12913TIP3   OH260153   4.647   3.240   4.440  0.1450  0.1001  0.1735
12913TIP3    H160154   4.601   3.252   4.357  0.7753 -1.7768 -0.4946
12913TIP3    H260155   4.584   3.194   4.496  0.5053 -0.7144 -0.0756
12914TIP3   OH260156   2.229   2.603  15.280 -0.1378  0.5797  0.4003
12914TIP3    H160157   2.141   2.622  15.248  0.1148  0.5130 -0.3533
12914TIP3    H260158   2.276   2.571  15.203 -0.0744 -1.5464  1.2356
12915TIP3   OH260159   2.961   5.952  10.610 -0.4844 -0.2393 -0.2213
12915TIP3    H160160   2.887   6.002  10.643 -0.5428  0.2476 -1.0726
12915TIP3    H260161   2.923   5.870  10.578 -0.5286 -0.3805  0.1891
12916TIP3   OH260162   4.673   3.943  14.527 -0.0409  0.0073 -0.1411
12916TIP3    H160163   4.757   3.967  14.490 -0.2609  0.0876 -0.5875
12916TIP3    H260164   4.613   4.013  14.501  0.1318  0.8997  1.6751
12917TIP3   OH260165   1.365   6.428   1.962 -0.1713 -0.4984  0.3550
12917TIP3    H160166   1.361   6.383   1.877  0.9145 -1.6416  0.8752
12917TIP3    H260167   1.278   6.415   2.000 -0.3993 -0.6989 -0.2160
12918TIP3   OH260168   0.922   1.406  15.118  0.3154 -0.4711 -0.6316
12918TIP3    H160169   0.865   1.434  15.190 -0.5679 -1.2194 -1.0203
12918TIP3    H260170   0.952   1.488  15.078  1.1055 -0.0379  0.7973
12919TIP3   OH260171   1.237   2.163   2.291 -0.3109  0.2169 -0.3248
12919TIP3    H160172   1.210   2.248   2.326  1.6121  1.5475 -1.7777
12919TIP3    H260173   1.215   2.168   2.198  0.9884 -0.3088 -0.6886
12920TIP3   OH260174   3.576   4.972   0.163 -0.0049  0.3967 -0.2175
12920TIP3    H160175   3.544   4.940   0.248 -1.9429  0.5224 -0.8629
12920TIP3    H260176   3.587   4.892   0.111 -0.6630  0.4520 -0.4474
12921TIP3   OH260177   1.928   6.640   0.628  0.0512 -0.1155 -0.2054
12921TIP3    H160178   1.846   6.681   0.658  2.4660  3.0721  2.8040
12921TIP3    H260179   1.967   6.707   0.571  0.6751 -1.5577 -1.5295
12922TIP3   OH260180   5.114   4.085  14.214 -0.6899 -0.3756 -0.6019
12922TIP3    H160181   5.181   4.016  14.213 -0.2258 -0.1329  2.5090
12922TIP3    H260182   5.162   4.165  14.237 -1.8436  0.0230  0.5760
12923TIP3   OH260183   6.175   6.052  12.818 -0.1246 -0.3548  0.1364
12923TIP3    H160184   6.110   6.010  12.761  0.3837 -1.1209  0.1093
12923TIP3    H260185   6.258   6.012  12.793  0.1066 -0.7247  1.4234
12924TIP3   OH260186   4.705   0.660   4.687 -0.3331 -0.5308 -0.4191
12924TIP3    H160187   4.614   0.662   4.716 -0.0471 -0.5443  0.4962
12924TIP3    H260188   4.713   0.577   4.640 -1.0042 -0.1441 -1.2448
12925TIP3   OH260189   2.256   2.287  16.234  0.3379  0.6057 -0.1550
12925TIP3    H160190   2.284   2.245  16.316 -1.0054  0.2297  0.1277
12925TIP3    H260191   2.338   2.298  16.185  1.3626  2.0605  1.7590
12926TIP3   OH260192   5.364   0.299   4.219 -0.1059 -0.2154 -0.0554
12926TIP3    H160193   5.433   0.278   4.157 -0.6066 -0.4649 -0.5449
12926TIP3    H260194   5.288   0.320   4.164 -0.2813  0.5460  0.4605
12927TIP3   OH260195   6.041   1.407  13.506  0.1118  0.4223 -0.1207
12927TIP3    H160196   5.969   1.460  13.471 -0.2646 -0.7396 -1.1862
12927TIP3    H260197   6.106   1.471  13.534 -1.3632  1.5091  0.9646
12928TIP3   OH260198   0.099   1.279   0.364  0.0996 -0.2427 -0.5116
12928TIP3    H160199   0.096   1.335   0.441 -1.3572  2.7781 -2.5873
12928TIP3    H260200   0.018   1.228   0.368  0.5458 -0.9086  0.4381
12929TIP3   OH260201   3.015   5.652  12.680  0.2262  0.0160  0.3432
12929TIP3    H160202   3.035   5.706  12.604  0.8797  0.9243  1.1266
12929TIP3    H260203   3.068   5.573  12.669  1.3870  0.7463  0.5125
12930TIP3   OH260204   5.103   2.701   5.559  0.1939 -0.7958  0.2126
12930TIP3    H160205   5.093   2.751   5.478  0.1870 -1.6854 -0.3406
12930TIP3    H260206   5.140   2.617   5.532 -0.1730 -1.2499  1.0762
12931TIP3   OH260207   1.379   4.259   5.648  0.1651  0.4626  0.4875
12931TIP3    H160208   1.469   4.244   5.678 -0.1813 -1.7080  0.5860
12931TIP3    H260209   1.332   4.288   5.727  0.5264  0.4838  0.6951
12932TIP3   OH260210   4.045   2.203  12.076  0.2722 -0.2888  0.0826
12932TIP3    H160211   4.120   2.232  12.128  1.5891 -1.0853 -1.2744
12932TIP3    H260212   3.996   2.145  12.134  0.3273  0.7571  1.2066
12933TIP3   OH260213   1.594   5.195  16.056 -0.0918  0.4114 -0.2249
12933TIP3    H160214   1.537   5.125  16.024 -0.3968 -0.6070  2.3051
12933TIP3    H260215   1.555   5.275  16.022 -1.0883 -0.4683 -1.2665
12934TIP3   OH260216   4.894   1.093   0.617 -0.0127 -0.1424  0.1098
12934TIP3    H160217   4.879   1.047   0.700 -0.1823 -1.4799 -0.6228
12934TIP3    H260218   4.806   1.104   0.580  0.0885  0.1606 -0.0382
12935TIP3   OH260219   5.490   6.108   2.019  0.6089 -0.0498 -0.3283
12935TIP3    H160220   5.503   6.179   1.956  1.5188  0.5618  0.5113
12935TIP3    H260221   5.512   6.147   2.104 -0.5471 -0.8611  0.3728
12936TIP3   OH260222   2.035   0.313  15.900  0.3553  0.7631  0.2243
12936TIP3    H160223   2.083   0.341  15.822  0.6536 -0.8237 -0.1838
12936TIP3    H260224   2.096   0.257  15.947 -1.1417 -1.7074 -0.5394
12937TIP3   OH260225   0.939   2.797  16.759  0.7548 -0.2123  0.1684
12937TIP3    H160226   1.026   2.780  16.794  0.1798  1.1563  2.4548
12937TIP3    H260227   0.949   2.878  16.708  0.9359 -0.4495 -0.1801
12938TIP3   OH260228   1.773   3.126  16.457  0.4263 -0.3863  0.4590
12938TIP3    H160229   1.738   3.074  16.385 -0.5208 -0.3574  0.8811
12938TIP3    H260230   1.720   3.206  16.457 -0.1542 -0.7442  1.6890
12939TIP3   OH260231   1.413   0.828  12.699 -0.1841  0.6287 -0.3426
12939TIP3    H160232   1.441   0.739  12.718  2.5582  1.2813 -0.9268
12939TIP3    H260233   1.419   0.836  12.604  1.1252  1.8407 -0.1935
12940TIP3   OH260234   1.251   5.226   2.541 -0.0644 -0.0597  0.0165
12940TIP3    H160235   1.286   5.315   2.543 -2.0271  0.8581 -2.0963
12940TIP3    H260236   1.263   5.198   2.450 -1.4972 -1.0623  0.1116
12941TIP3   OH260237   5.652   0.654   0.604  0.1500  0.1518 -0.2347
12941TIP3    H160238   5.650   0.560   0.621 -0.6414  0.2131  0.0251
12941TIP3    H260239   5.684   0.662   0.515 -0.2544 -0.3879 -0.4277
12942TIP3   OH260240   0.341   1.780   1.207  0.2708  1.1229  0.4445
12942TIP3    H160241   0.303   1.715   1.267 -1.2491  0.5978 -1.0077
12942TIP3    H260242   0.317   1.864   1.246 -0.4575  0.7927  0.7396
12943TIP3   OH260243   2.950   2.226   0.929 -0.1552  0.5225  0.1348
12943TIP3    H160244   2.998   2.308   0.917  0.5448  0.3462  1.5431
12943TIP3    H260245   2.935   2.221   1.024 -2.0230  0.0377 -0.1497
12944TIP3   OH260246   6.331   5.364   3.300  0.1395  0.1977  0.1311
12944TIP3    H160247   6.317   5.417   3.222  2.1488 -0.5178 -0.7735
12944TIP3    H260248   6.291   5.279   3.279 -0.7759  0.5080  0.5599
12945TIP3   OH260249   6.341   2.684   1.667  0.1507 -0.1334  0.5844
12945TIP3    H160250   6.349   2.732   1.750  0.4358 -0.8541  0.9824
12945TIP3    H260251   6.254   2.706   1.635  0.5907  1.3275  0.3223
12946TIP3   OH260252   6.803   5.940  11.431  0.4680  0.3519 -0.1821
12946TIP3    H160253   6.837   5.870  11.486 -0.5989  0.8299  1.1299
12946TIP3    H260254   6.757   5.895  11.360 -0.1138 -0.2872  0.5854
12947TIP3   OH260255   0.590   3.036   1.164 -0.3247  0.3973 -0.3517
12947TIP3    H160256   0.599   2.956   1.114 -0.2254  0.2034 -0.0256
12947TIP3    H260257   0.497   3.038   1.190 -0.8582  1.4642 -2.1484
12948TIP3   OH260258   3.422   0.075   0.280  0.3253  0.0310 -0.0792
12948TIP3    H160259   3.344   0.032   0.247 -0.2863  0.2624  1.0333
12948TIP3    H260260   3.409   0.168   0.261  0.5033  0.0288 -0.2219
12949TIP3   OH260261   3.202   1.099  15.320  0.2664 -0.4060  0.1490
12949TIP3    H160262   3.157   1.078  15.402  0.4560 -1.1527  0.0682
12949TIP3    H260263   3.132   1.133  15.263  0.0820 -0.1547  0.5204
12950TIP3   OH260264   3.054   0.927  13.613 -0.0140  0.3202  0.0775
12950TIP3    H160265   3.029   0.881  13.693 -0.3405 -0.7439 -0.6208
12950TIP3    H260266   3.128   0.876  13.579 -0.7051 -0.0018 -0.9706
12951TIP3   OH260267   4.093   6.570   5.811 -0.0757 -0.5885  0.4780
12951TIP3    H160268   4.182   6.548   5.840 -0.2088  1.1928  2.4065
12951TIP3    H260269   4.042   6.579   5.892 -1.3706  1.0271 -0.4484
12952TIP3   OH260270   0.206   1.143   3.000  0.1989  0.5894  0.0645
12952TIP3    H160271   0.176   1.073   2.942  0.8840  0.9186 -0.7092
12952TIP3    H260272   0.213   1.101   3.086 -1.1660  0.1846  0.0042
12953TIP3   OH260273   4.546   4.490   3.362  0.0882  0.6538 -0.6699
12953TIP3    H160274   4.497   4.414   3.330 -0.3672  0.9831 -0.7748
12953TIP3    H260275   4.508   4.507   3.449  3.0905 -1.8664  1.3527
12954TIP3   OH260276   5.258   4.092   3.179 -0.0396  0.4417  0.4319
12954TIP3    H160277   5.313   4.063   3.252  0.9924  0.6349 -0.2538
12954TIP3    H260278   5.198   4.019   3.163  0.6458 -0.1588  0.5707
12955TIP3   OH260279   2.717   6.529   4.070  0.5949  0.1297  0.0727
12955TIP3    H160280   2.647   6.481   4.025 -1.4810  1.7864  1.3578
12955TIP3    H260281   2.718   6.615   4.030  1.2306  0.4562  0.7541
12956TIP3   OH260282   5.230   3.390  15.057  0.3564  0.8172  0.2541
12956TIP3    H160283   5.146   3.409  15.014  1.0052  0.0380 -1.4604
12956TIP3    H260284   5.268   3.320  15.004  0.9956 -0.5875  2.4492
12957TIP3   OH260285   4.599   4.157   2.590 -0.2056  0.6217  0.1023
12957TIP3    H160286   4.546   4.131   2.665  0.6875 -0.0807  0.5123
12957TIP3    H260287   4.687   4.168   2.625  0.8999 -2.5944 -1.2790
12958TIP3   OH260288   2.742   5.382   3.017 -0.2063 -0.3873  0.2423
12958TIP3    H160289   2.810   5.444   2.991  1.7601 -1.6341  2.0091
12958TIP3    H260290   2.686   5.373   2.940  0.4946  2.1519 -0.6515
12959TIP3   OH260291   0.065   1.830  14.323 -0.4351  0.1117 -0.1506
12959TIP3    H160292   0.096   1.772  14.253 -0.7059 -0.4808  0.2159
12959TIP3    H260293   0.107   1.797  14.402 -0.9541  0.1348  0.1338
12960TIP3   OH260294   4.002   4.895   5.001  0.1292  0.3794 -0.2775
12960TIP3    H160295   3.962   4.881   5.087 -0.0758 -1.3848 -0.6125
12960TIP3    H260296   4.017   4.806   4.967  1.2764  1.0265 -1.5729
12961TIP3   OH260297   1.404   1.666   2.162  0.5899 -0.1291  0.0181
12961TIP3    H160298   1.496   1.691   2.149  0.2066  1.3708 -0.0006
12961TIP3    H260299   1.401   1.573   2.138  2.4700 -0.7232  1.7307
12962TIP3   OH260300   1.775   4.233   0.435 -0.0935 -0.3476 -0.1643
12962TIP3    H160301   1.808   4.323   0.436  0.0493 -0.4025  0.4281
12962TIP3    H260302   1.688   4.239   0.473  0.8605 -0.7947  2.3095
12963TIP3   OH260303   6.248   0.830  16.904 -0.4318  0.4231  0.3838
12963TIP3    H160304   6.163   0.821  16.862 -1.1307 -2.3395  2.1590
12963TIP3    H260305   6.275   0.741  16.924  1.9887  1.3336  1.6400
12964TIP3   OH260306   6.811   0.132   9.969  0.0091 -0.5078  0.4430
12964TIP3    H160307   6.835   0.139  10.062 -0.5482  0.0417  0.5597
12964TIP3    H260308   6.894   0.123   9.923  0.5424  2.0207  0.7610
12965TIP3   OH260309   4.107   3.981   4.252  0.5965 -0.2672 -0.3200
12965TIP3    H160310   4.047   4.044   4.214  1.4556  1.4083  0.9662
12965TIP3    H260311   4.120   4.011   4.343  2.2554 -1.3635 -0.1417
12966TIP3   OH260312   3.426   4.712  12.165  0.2494  0.1585 -0.1958
12966TIP3    H160313   3.436   4.754  12.251 -1.3331 -1.8246  1.0727
12966TIP3    H260314   3.370   4.771  12.115  1.8375  1.7346 -0.2169
12967TIP3   OH260315   5.293   6.253  15.338  0.0100  0.4677 -0.0563
12967TIP3    H160316   5.386   6.246  15.319 -0.1059 -1.2789 -0.2191
12967TIP3    H260317   5.256   6.170  15.306 -1.2700  0.2686  1.7904
12968TIP3   OH260318   6.311   0.760  12.589  0.4276 -0.1827  0.4162
12968TIP3    H160319   6.361   0.743  12.669  0.8825  2.7988  0.8822
12968TIP3    H260320   6.224   0.787  12.619  0.2646 -0.0731 -0.1344
12969TIP3   OH260321   2.131   5.178   3.076 -0.3926 -0.4455 -0.3767
12969TIP3    H160322   2.103   5.206   2.988 -1.4578  0.1359  0.1231
12969TIP3    H260323   2.072   5.225   3.135  0.3059 -0.8437  0.6531
12970TIP3   OH260324   5.495   1.262   2.329 -0.0483  0.2385 -0.0476
12970TIP3    H160325   5.509   1.304   2.244  0.1197 -1.4900 -0.9027
12970TIP3    H260326   5.400   1.252   2.336 -0.1319  1.2212  0.4136
12971TIP3   OH260327   5.317   0.576  15.496 -0.0604 -0.2404  0.4004
12971TIP3    H160328   5.314   0.483  15.475 -0.9011  0.1846 -1.6240
12971TIP3    H260329   5.401   0.606  15.459  0.6996 -0.3565  1.9587
12972TIP3   OH260330   2.311   6.153  10.985 -0.3899  0.2505  0.7136
12972TIP3    H160331   2.344   6.180  10.899 -2.5604  0.6339 -0.0547
12972TIP3    H260332   2.217   6.141  10.972 -0.7700  0.2774  3.0452
12973TIP3   OH260333   2.707   0.315  11.589  0.3049 -0.5682  0.3739
12973TIP3    H160334   2.643   0.273  11.532 -2.0063  3.3648 -0.2519
12973TIP3    H260335   2.785   0.325  11.534 -0.8020  0.3363 -1.0683
12974TIP3   OH260336   5.120   6.232   3.594  0.0479 -0.1398  0.4549
12974TIP3    H160337   5.210   6.263   3.595 -0.3455  1.0662  1.0620
12974TIP3    H260338   5.125   6.142   3.626  1.2525 -0.8562 -1.5907
12975TIP3   OH260339   6.205   3.546  11.075 -0.3882 -0.1768 -0.1917
12975TIP3    H160340   6.166   3.598  11.004 -2.4658  0.7574  1.5136
12975TIP3    H260341   6.297   3.571  11.075 -1.0383  2.5614 -0.3189
12976TIP3   OH260342   0.651   1.243   5.911 -0.2688  0.2617  0.0761
12976TIP3    H160343   0.723   1.180   5.920  0.3316  1.1638  2.0683
12976TIP3    H260344   0.659   1.300   5.987 -1.2763  2.2808 -1.2362
12977TIP3   OH260345   2.538   0.631  17.075  0.0727  0.0422  0.2507
12977TIP3    H160346   2.606   0.592  17.019 -0.9278 -1.2079 -0.1378
12977TIP3    H260347   2.587   0.676  17.144  1.3136  0.6506 -0.9788
12978TIP3   OH260348   6.659   2.606   1.602 -0.4182 -0.5830 -0.0637
12978TIP3    H160349   6.677   2.621   1.509 -1.1059 -0.3845 -0.1659
12978TIP3    H260350   6.570   2.570   1.604 -0.6849  0.0905  0.5702
12979TIP3   OH260351   0.056   4.722   4.314  0.4097  0.1555  0.0029
12979TIP3    H160352  -0.003   4.759   4.249 -0.8147  1.5352  1.7892
12979TIP3    H260353   0.129   4.784   4.319 -0.8092  1.5727  1.7653
12980TIP3   OH260354   3.668   0.437  15.810 -0.0340  0.4830 -0.2942
12980TIP3    H160355   3.669   0.368  15.876 -0.8454  0.4920 -0.2641
12980TIP3    H260356   3.690   0.517  15.859 -0.4851  0.4654 -0.0558
12981TIP3   OH260357   2.054   2.439  12.332 -0.3890 -0.3031 -0.3263
12981TIP3    H160358   2.016   2.451  12.245  0.2981  0.0871 -0.5837
12981TIP3    H260359   2.059   2.344  12.343  3.2189 -0.5566 -2.4497
12982TIP3   OH260360   4.571   5.947   6.058  0.3356  0.9330 -0.4930
12982TIP3    H160361   4.624   5.870   6.080  0.7226  1.2092 -0.4541
12982TIP3    H260362   4.593   6.011   6.125 -0.0009  1.0752 -0.5159
12983TIP3   OH260363   3.209   4.504   1.618  0.0486 -0.5849  0.3102
12983TIP3    H160364   3.266   4.534   1.689  2.5749 -0.6325 -1.5676
12983TIP3    H260365   3.233   4.413   1.605  0.9118 -0.1322 -1.6705
12984TIP3   OH260366   6.571   3.219   4.124  0.4731 -0.1358 -0.8273
12984TIP3    H160367   6.545   3.249   4.212 -0.4215  1.0500 -1.4541
12984TIP3    H260368   6.497   3.167   4.094  0.2188  0.5168 -1.3566
12985TIP3   OH260369   0.947   4.758  15.304 -0.0058 -0.5983  0.1814
12985TIP3    H160370   0.871   4.720  15.349  2.4535 -1.9393  3.6970
12985TIP3    H260371   0.932   4.853  15.309 -2.0803 -0.8316 -0.5810
12986TIP3   OH260372   2.931   5.398   4.792 -0.1053  0.4268  0.0313
12986TIP3    H160373   2.959   5.378   4.703 -0.1105  0.6863 -0.0277
12986TIP3    H260374   2.836   5.407   4.786 -0.3173 -1.1971  0.3651
12987TIP3   OH260375   2.992   3.224  15.902 -0.4277 -0.3379  0.1653
12987TIP3    H160376   2.907   3.262  15.923 -0.5785  0.8563 -2.2788
12987TIP3    H260377   2.976   3.167  15.827  1.1950  1.6799 -1.8554
12988TIP3   OH260378   2.455   2.348   3.884  0.4947  0.4804  0.0340
12988TIP3    H160379   2.484   2.283   3.948  1.3158 -0.3466 -1.1093
12988TIP3    H260380   2.480   2.432   3.922 -0.6412  0.1665  1.5763
12989TIP3   OH260381   3.874   3.345  13.464  0.8791  0.4526  0.4145
12989TIP3    H160382   3.814   3.320  13.534  0.8526  0.5099  0.4119
12989TIP3    H260383   3.961   3.337  13.504  0.9437 -0.6654  0.1083
12990TIP3   OH260384   3.125   0.036  15.971  0.1366  0.2541  0.1743
12990TIP3    H160385   3.096  -0.055  15.975  2.0586 -0.3700  2.8175
12990TIP3    H260386   3.045   0.087  15.983 -0.6841 -1.1767  1.0618
12991TIP3   OH260387   6.235   1.470   5.812 -0.6347  0.2983  0.6414
12991TIP3    H160388   6.289   1.527   5.867 -0.2531  1.1841 -0.6083
12991TIP3    H260389   6.241   1.384   5.853  0.0686  0.8186  1.6695
12992TIP3   OH260390   1.315   4.502  11.873  0.5803  0.3023 -0.0160
12992TIP3    H160391   1.262   4.516  11.794  1.5692  0.4038 -0.6798
12992TIP3    H260392   1.341   4.410  11.867 -2.0016 -0.6780  1.9004
12993TIP3   OH260393   2.545   1.213  13.156  0.0682  0.2683  0.2125
12993TIP3    H160394   2.477   1.169  13.105 -1.4990 -1.0032  3.1824
12993TIP3    H260395   2.624   1.160  13.141 -0.5614 -0.5801 -0.2091
12994TIP3   OH260396   6.457   4.295  16.967  0.1445  0.3088  0.2927
12994TIP3    H160397   6.390   4.251  16.915  1.7028 -1.1673 -0.5803
12994TIP3    H260398   6.443   4.388  16.950 -0.3441 -0.0667 -1.6374
12995TIP3   OH260399   1.444   3.574   2.619 -0.0701 -0.0840  0.0564
12995TIP3    H160400   1.520   3.525   2.586 -0.1530 -0.6736  0.7237
12995TIP3    H260401   1.475   3.612   2.702 -1.2218 -2.3971  1.6455
12996TIP3   OH260402   1.675   6.322  16.441 -0.2324 -0.3401  0.0255
12996TIP3    H160403   1.751   6.272  16.413 -0.5229 -0.7536 -0.0408
12996TIP3    H260404   1.608   6.302  16.375 -0.9782 -1.4626  1.0821
12997TIP3   OH260405   6.407   5.401   1.361 -0.3215 -0.0402  0.5019
12997TIP3    H160406   6.334   5.366   1.308  0.4825 -0.5538 -0.3037
12997TIP3    H260407   6.383   5.382   1.451 -2.3165  1.9314  0.4771
12998TIP3   OH260408   3.325   4.420   5.854  0.1199 -0.2241  0.1285
12998TIP3    H160409   3.312   4.341   5.802  2.2727 -0.7538  0.3110
12998TIP3    H260410   3.411   4.409   5.895  1.2410  2.8739 -1.0928
12999TIP3   OH260411   4.041   0.665   1.758  0.1890 -0.6271 -0.3148
12999TIP3    H160412   4.133   0.688   1.748  0.0059  0.2881  0.0575
12999TIP3    H260413   4.039   0.605   1.833  0.3171  0.5498  0.6619
13000TIP3   OH260414   6.133   2.218  12.406 -0.1414 -0.2394 -0.4661
13000TIP3    H160415   6.116   2.303  12.445 -0.1595 -0.5667  0.2424
13000TIP3    H260416   6.083   2.219  12.324 -0.0072  0.4872 -0.5465
13001TIP3   OH260417   3.582   6.043  13.630 -0.3855  0.1934 -0.3849
13001TIP3    H160418   3.534   6.126  13.622 -3.1354 -0.9840  2.0541
13001TIP3    H260419   3.661   6.066  13.679 -2.3258  1.1337  2.5628
13002TIP3   OH260420   2.301   3.665  13.158  0.5138 -0.6601 -0.8343
13002TIP3    H160421   2.313   3.751  13.120  0.6271  0.2797  1.1910
13002TIP3    H260422   2.211   3.664  13.190  0.5005 -1.3088 -0.8725
13003TIP3   OH260423   3.070   4.359   5.041 -0.7271  0.2673 -0.0687
13003TIP3    H160424   3.084   4.446   5.079 -0.3939  0.7242 -1.1850
13003TIP3    H260425   3.123   4.359   4.961 -3.1451  0.2412 -1.7991
13004TIP3   OH260426   0.378   5.036   6.029 -0.3747 -0.3666 -0.1829
13004TIP3    H160427   0.359   5.087   6.107 -0.4137 -0.7982  0.0905
13004TIP3    H260428   0.421   4.957   6.061  0.4046 -0.1531 -0.6601
13005TIP3   OH260429   0.892   4.664  13.074 -0.4541  0.1686  0.2634
13005TIP3    H160430   0.845   4.724  13.133 -1.4272 -1.2204  0.9439
13005TIP3    H260431   0.826   4.601  13.047  0.5950 -0.7094 -0.3160
13006TIP3   OH260432   6.499   0.991   5.675 -0.0054  0.3306 -0.2753
13006TIP3    H160433   6.443   0.979   5.598 -0.3385 -0.5713  0.0843
13006TIP3    H260434   6.445   1.041   5.737 -0.2397 -0.1022 -0.1234
13007TIP3   OH260435   4.764   4.834  13.217  0.1711  0.0079 -0.1104
13007TIP3    H160436   4.680   4.804  13.182 -0.6503  0.6634  1.2027
13007TIP3    H260437   4.811   4.868  13.141  0.5549 -3.1615 -1.4007
13008TIP3   OH260438   0.743   4.498   4.272  0.1690 -0.0569  0.1974
13008TIP3    H160439   0.712   4.506   4.362  0.1601 -0.2115  0.2080
13008TIP3    H260440   0.699   4.569   4.225 -1.2838 -1.0855 -0.0802
13009TIP3   OH260441   4.492   4.155  13.849 -0.0832 -0.2421 -1.0202
13009TIP3    H160442   4.579   4.115  13.848 -0.2099 -0.5142 -1.2392
13009TIP3    H260443   4.498   4.229  13.789  0.1518  0.0702 -0.6158
13010TIP3   OH260444   1.246   6.009   1.337  0.5793  0.3601  0.1661
13010TIP3    H160445   1.156   6.042   1.342 -0.5382 -1.7344 -2.8446
13010TIP3    H260446   1.284   6.053   1.261  0.5767 -1.7509 -1.1397
13011TIP3   OH260447   3.810   5.070  16.805 -0.2394 -0.4146  0.3223
13011TIP3    H160448   3.778   4.980  16.798  1.7323 -1.0596 -1.1193
13011TIP3    H260449   3.851   5.088  16.721  1.4137  1.0141  1.3653
13012TIP3   OH260450   2.670   0.276   4.987 -0.9445 -0.2096  0.0707
13012TIP3    H160451   2.667   0.230   4.903 -1.1387 -0.3689  0.1629
13012TIP3    H260452   2.579   0.281   5.014 -0.9803  0.7124 -0.1942
13013TIP3   OH260453   6.117   2.852   4.460 -0.2450 -0.4205  0.0697
13013TIP3    H160454   6.118   2.839   4.555  1.9998 -1.0293  0.0223
13013TIP3    H260455   6.167   2.779   4.425 -0.7160 -0.0015 -1.5628
13014TIP3   OH260456   4.240   5.794  13.399 -0.1269 -0.4799 -0.3642
13014TIP3    H160457   4.196   5.832  13.476  0.1742  1.2610 -0.9981
13014TIP3    H260458   4.333   5.802  13.419 -0.0510 -0.0873 -0.8778
13015TIP3   OH260459   0.510   5.998  14.623  0.7034 -0.8597  0.1248
13015TIP3    H160460   0.598   5.990  14.586  0.5908  1.6232 -0.8918
13015TIP3    H260461   0.520   6.057  14.697 -0.1483 -0.1406 -0.3043
13016TIP3   OH260462   5.775   6.809   1.550  0.3732  0.3222  0.6116
13016TIP3    H160463   5.682   6.833   1.548 -0.3390 -2.0666 -1.4390
13016TIP3    H260464   5.813   6.856   1.476  0.3614 -0.0529  0.3616
13017TIP3   OH260465   0.874   4.411  12.395  0.1618 -0.4636  0.4097
13017TIP3    H160466   0.828   4.330  12.419 -1.4117  0.7638  1.7393
13017TIP3    H260467   0.942   4.421  12.461 -1.1925  0.4861  1.7426
13018TIP3   OH260468   2.473   3.587  12.197  0.2169  0.3940  0.0468
13018TIP3    H160469   2.457   3.598  12.291 -1.1276  0.4771 -0.1803
13018TIP3    H260470   2.554   3.636  12.181  0.1379  0.8717  1.0600
13019TIP3   OH260471   3.842   4.787  13.441 -0.4332 -0.3349 -0.3044
13019TIP3    H160472   3.867   4.877  13.417 -1.9270  0.6179  1.4446
13019TIP3    H260473   3.864   4.781  13.534 -0.7483 -1.6507 -0.3065
13020TIP3   OH260474   5.137   5.783  13.817 -0.3285 -0.2859 -0.4082
13020TIP3    H160475   5.099   5.796  13.904 -0.5425 -0.9433 -0.3985
13020TIP3    H260476   5.232   5.789  13.832 -0.3875  0.4748 -0.2837
13021TIP3   OH260477   2.075   2.463  15.932  0.1721  0.2490  0.2192
13021TIP3    H160478   2.125   2.544  15.939  0.7784 -0.1303  0.2757
13021TIP3    H260479   2.066   2.433  16.022  0.8691 -0.3072  0.1064
13022TIP3   OH260480   5.108   5.689  13.343 -0.1149  0.4413 -0.1824
13022TIP3    H160481   5.163   5.734  13.407 -0.0275  0.2399 -0.1184
13022TIP3    H260482   5.153   5.702  13.260  0.5123 -0.5103  0.0005
13023TIP3   OH260483   5.605   5.219  16.469 -0.1117  0.3367 -0.0506
13023TIP3    H160484   5.601   5.204  16.375 -0.9037 -0.0983  0.0401
13023TIP3    H260485   5.537   5.285  16.485  1.9103  2.5728 -0.1572
13024TIP3   OH260486   0.479   3.239  14.210 -0.7185  0.3556  0.2271
13024TIP3    H160487   0.388   3.229  14.239 -1.4316  0.1737 -1.9486
13024TIP3    H260488   0.473   3.257  14.116  1.3828  2.9150  0.4644
13025TIP3   OH260489   5.524   6.568  11.119  0.2119  0.2924  0.4427
13025TIP3    H160490   5.559   6.521  11.043  1.4857  0.2697  1.0012
13025TIP3    H260491   5.543   6.660  11.101 -1.0887  0.4867 -0.0492
13026TIP3   OH260492   1.512   1.910   0.535 -0.3284  0.2169 -0.1689
13026TIP3    H160493   1.433   1.872   0.498 -1.3605  2.1411 -0.0326
13026TIP3    H260494   1.486   1.997   0.565  1.8313  0.9148 -0.1206
13027TIP3   OH260495   0.731   1.570   5.023 -0.5693 -0.1205  1.0058
13027TIP3    H160496   0.818   1.530   5.027  0.2223  1.2998 -0.3522
13027TIP3    H260497   0.748   1.664   5.030 -2.0339  0.1729  0.9794
13028TIP3   OH260498   4.441   6.071   0.524 -0.0192  0.1184 -0.1626
13028TIP3    H160499   4.528   6.077   0.563 -0.4001 -0.6388  0.8415
13028TIP3    H260500   4.390   6.020   0.586 -0.6998 -1.0271 -1.5982
13029TIP3   OH260501   0.405   1.835  13.415 -0.3197  0.5881  0.0470
13029TIP3    H160502   0.437   1.880  13.336 -2.1394  0.9466 -0.5332
13029TIP3    H260503   0.484   1.799  13.455  0.6631  0.3456 -1.9632
13030TIP3   OH260504   4.969   6.005   5.581  0.5420  0.7194  0.0033
13030TIP3    H160505   4.994   5.991   5.672 -0.3507 -0.7232  0.0543
13030TIP3    H260506   5.011   6.088   5.557  0.5813  1.2635  1.7961
13031TIP3   OH260507   4.606   3.725  10.406 -0.0500 -0.5754  0.0057
13031TIP3    H160508   4.547   3.800  10.397  1.4980  0.5290 -1.6688
13031TIP3    H260509   4.661   3.747  10.482  0.5897  0.1516 -0.6552
13032TIP3   OH260510   3.427   3.672   1.552  0.0624 -0.3887  0.1139
13032TIP3    H160511   3.452   3.717   1.471 -2.0879 -0.2501 -0.5319
13032TIP3    H260512   3.494   3.605   1.564  1.1823  0.4790 -1.0144
13033TIP3   OH260513   2.993   1.100  16.944  0.5438  0.0665  0.0100
13033TIP3    H160514   3.081   1.064  16.932  0.9908  1.0931  0.0393
13033TIP3    H260515   2.967   1.069  17.031 -1.4171 -4.7559 -1.9475
13034TIP3   OH260516   2.569   4.966   0.099  1.2459 -0.8338 -0.0604
13034TIP3    H160517   2.482   4.941   0.132  0.8750  0.0997 -0.2869
13034TIP3    H260518   2.567   4.943   0.007  0.5960  0.7232 -0.4684
13035TIP3   OH260519   2.845   0.461   0.580 -0.0990  0.4129 -1.1451
13035TIP3    H160520   2.892   0.479   0.661 -1.9695  1.4240 -0.2233
13035TIP3    H260521   2.805   0.545   0.556 -3.1312 -0.7686 -0.6851
13036TIP3   OH260522   1.229   1.540   1.408  0.5958 -0.2411  0.7152
13036TIP3    H160523   1.189   1.496   1.483  1.4443 -1.8709  0.2558
13036TIP3    H260524   1.161   1.599   1.376 -0.7083 -1.4356  1.1867
13037TIP3   OH260525   0.560   3.443   3.617 -0.3890  0.5890 -0.2369
13037TIP3    H160526   0.482   3.436   3.562  0.4253  0.1120 -1.3591
13037TIP3    H260527   0.633   3.421   3.559  0.4832 -0.2141  1.1026
13038TIP3   OH260528   0.907   4.224  11.927  0.0986 -0.0824 -0.2540
13038TIP3    H160529   0.908   4.228  11.831 -0.5880 -1.3564 -0.3317
13038TIP3    H260530   0.952   4.143  11.948  2.3779  1.3168  0.6362
13039TIP3   OH260531   0.590   1.861   1.458 -0.0389 -1.1027  0.4801
13039TIP3    H160532   0.523   1.927   1.477  2.5093  1.5798  0.7869
13039TIP3    H260533   0.620   1.881   1.370  1.1970 -1.4924  0.8024
13040TIP3   OH260534   1.141   3.632  15.661  0.8864  0.4215  0.3311
13040TIP3    H160535   1.059   3.678  15.677  0.9457 -0.1203  2.4453
13040TIP3    H260536   1.127   3.544  15.695  1.7809 -0.2228 -0.8820
13041TIP3   OH260537   4.301   2.703  13.988 -0.0443 -0.6946 -0.6423
13041TIP3    H160538   4.369   2.679  14.051 -0.1609  0.2910 -0.1199
13041TIP3    H260539   4.281   2.622  13.942  2.3063 -0.8046 -1.6424
13042TIP3   OH260540   2.823   2.861  15.026  0.5391  0.4221  0.3656
13042TIP3    H160541   2.765   2.912  14.969 -0.9877  0.4991  1.9421
13042TIP3    H260542   2.911   2.886  14.997 -0.1782  1.9820 -0.6232
13043TIP3   OH260543   3.513   2.920  13.249  0.3022  0.6308  0.5168
13043TIP3    H160544   3.467   2.976  13.187 -0.8715  0.5478  1.2878
13043TIP3    H260545   3.601   2.912  13.213 -0.2075  0.9962 -0.8716
13044TIP3   OH260546   4.751   3.638   5.022  0.3809 -0.0757 -0.2096
13044TIP3    H160547   4.702   3.667   4.945  0.4521 -2.1028 -1.0905
13044TIP3    H260548   4.842   3.662   5.004  0.1134  1.3526  0.2410
13045TIP3   OH260549   4.156   3.040  11.712 -0.1320 -0.3091  0.3984
13045TIP3    H160550   4.197   3.002  11.635  0.3301 -0.6519  0.8086
13045TIP3    H260551   4.178   2.980  11.783 -0.6842 -0.0795  0.7685
13046TIP3   OH260552   2.784   0.571   3.700 -0.2776  0.2251 -0.1423
13046TIP3    H160553   2.783   0.589   3.606 -0.6908 -1.2122 -0.4319
13046TIP3    H260554   2.740   0.646   3.739 -0.1618  0.8098 -1.0955
13047TIP3   OH260555   6.216   0.351  11.222  0.1493  0.1619 -0.5910
13047TIP3    H160556   6.182   0.425  11.172 -0.8173  1.0110  1.2134
13047TIP3    H260557   6.287   0.389  11.275  0.1568 -0.3640 -0.2171
13048TIP3   OH260558   1.190   5.139  12.657 -0.4744 -0.2995 -0.0502
13048TIP3    H160559   1.255   5.203  12.629 -1.2785  0.3513 -0.4654
13048TIP3    H260560   1.233   5.090  12.727  0.3992  0.2258 -0.2057
13049TIP3   OH260561   4.870   1.422  15.100 -0.3962 -0.0083 -0.5258
13049TIP3    H160562   4.818   1.351  15.139 -0.5070 -0.3230 -1.2407
13049TIP3    H260563   4.907   1.467  15.176 -0.2235 -0.9018 -0.0543
13050TIP3   OH260564   0.378   3.451   4.424 -0.5403 -0.5069  0.1625
13050TIP3    H160565   0.395   3.434   4.331  0.7761  0.5958  0.1519
13050TIP3    H260566   0.347   3.368   4.459 -1.3245 -0.8716 -1.3151
13051TIP3   OH260567   1.861   5.917  13.221  0.1117  0.2740  0.1596
13051TIP3    H160568   1.771   5.937  13.195  0.1160  0.3960  0.2373
13051TIP3    H260569   1.904   5.889  13.140  0.5465  2.1463 -0.3031
13052TIP3   OH260570   1.504   4.571  10.874 -0.6884 -0.4743 -0.5459
13052TIP3    H160571   1.574   4.605  10.817 -1.4882 -0.3022 -1.4574
13052TIP3    H260572   1.506   4.477  10.860  0.0944 -0.5944  0.3036
13053TIP3   OH260573   5.374   0.889  14.133 -0.0995  0.1149 -0.1662
13053TIP3    H160574   5.427   0.903  14.055 -1.0215 -0.6701 -0.9582
13053TIP3    H260575   5.388   0.968  14.186  0.5271  0.6608 -1.1184
13054TIP3   OH260576   2.215   6.192  14.205  0.0538  0.1871  0.7184
13054TIP3    H160577   2.188   6.238  14.284 -1.6247 -0.6469  0.6853
13054TIP3    H260578   2.170   6.107  14.211  0.4356 -0.1495 -0.7906
13055TIP3   OH260579   0.278   3.804  15.884  0.7555  0.2114  0.2559
13055TIP3    H160580   0.361   3.840  15.915  1.4012 -0.7805 -0.2533
13055TIP3    H260581   0.297   3.772  15.795  0.0817 -0.8581  0.4773
13056TIP3   OH260582   3.879   2.142   2.701 -0.0117 -0.0002 -0.4059
13056TIP3    H160583   3.837   2.222   2.731 -0.5058 -0.1766 -0.6215
13056TIP3    H260584   3.872   2.145   2.605  0.8510  0.1804 -0.4685
13057TIP3   OH260585   2.941   4.863   1.551 -0.0268  0.0287  0.7440
13057TIP3    H160586   2.901   4.893   1.633 -1.6324  0.2200 -0.0714
13057TIP3    H260587   3.006   4.930   1.531  0.7890 -0.3191  2.1455
13058TIP3   OH260588   5.871   0.696  13.542  0.1982 -0.1467  0.6758
13058TIP3    H160589   5.918   0.762  13.593  0.1088 -0.3742  1.0548
13058TIP3    H260590   5.779   0.710  13.563  0.2084 -0.6448  1.0642
13059TIP3   OH260591   0.935   4.293   4.804 -0.3627 -0.0085  0.6313
13059TIP3    H160592   0.956   4.297   4.710 -3.3184 -0.5730 -0.1544
13059TIP3    H260593   0.959   4.205   4.830 -1.6277 -0.6277 -0.2134
13060TIP3   OH260594   6.027   4.929   4.601 -0.7426 -0.8221  0.4178
13060TIP3    H160595   6.003   4.884   4.520  0.6470 -0.9073  0.0210
13060TIP3    H260596   6.002   4.869   4.670  0.8904 -2.1833 -0.0982
13061TIP3   OH260597   1.180   2.710   1.890 -0.2865 -0.0543  0.2738
13061TIP3    H160598   1.142   2.781   1.838  1.1898 -0.2442 -1.1608
13061TIP3    H260599   1.107   2.651   1.908 -1.6644  2.0373  1.9647
13062TIP3   OH260600   2.376   5.825   0.705 -0.4621 -0.0758 -0.5776
13062TIP3    H160601   2.297   5.874   0.682 -0.3979  0.4026  0.1914
13062TIP3    H260602   2.439   5.847   0.637 -0.4993  0.7565 -0.3533
13063TIP3   OH260603   5.001   6.422   5.047 -0.2788 -0.0904 -0.3103
13063TIP3    H160604   4.962   6.476   4.979 -0.8739  0.1933  0.2408
13063TIP3    H260605   5.012   6.336   5.007  0.2920  0.3247 -1.0661
13064TIP3   OH260606   1.627   1.848   3.733  0.5618 -0.2243 -0.2374
13064TIP3    H160607   1.592   1.935   3.749 -1.1814 -0.6938 -1.1914
13064TIP3    H260608   1.653   1.849   3.641 -1.0094 -1.1541 -0.7336
13065TIP3   OH260609   3.986   1.266  12.779 -0.2350  0.3009 -0.7978
13065TIP3    H160610   4.042   1.210  12.832 -0.9590 -0.2772 -0.6320
13065TIP3    H260611   4.044   1.303  12.713  0.3961 -0.0596 -0.4457
13066TIP3   OH260612   6.136   1.219  12.398 -0.4213 -0.2635  0.5513
13066TIP3    H160613   6.132   1.125  12.383 -0.9387 -0.0392 -0.9253
13066TIP3    H260614   6.214   1.232  12.451 -0.0846 -1.4782  0.3763
13067TIP3   OH260615   5.668   1.856  16.429  0.5744  0.3499 -0.2034
13067TIP3    H160616   5.615   1.848  16.509  1.5836 -1.3119  0.3373
13067TIP3    H260617   5.752   1.817  16.452  0.9555  0.0349 -2.0131
13068TIP3   OH260618   2.213   1.188  15.957 -0.4417 -0.7146  0.0833
13068TIP3    H160619   2.260   1.256  16.005 -2.0024 -0.4119  1.2674
13068TIP3    H260620   2.238   1.200  15.865  1.7513 -0.5960  0.6494
13069TIP3   OH260621   2.628   5.000  14.206 -0.0196  0.1456  0.1944
13069TIP3    H160622   2.695   5.050  14.251  0.2893 -1.3716  1.5170
13069TIP3    H260623   2.599   5.056  14.134  1.2393  1.6247  0.8092
13070TIP3   OH260624   2.989   0.340   1.615  0.4429  0.2786 -0.2429
13070TIP3    H160625   3.044   0.417   1.597  0.4911  0.7287  1.6426
13070TIP3    H260626   3.015   0.313   1.703 -0.0242 -1.5402 -0.6410
13071TIP3   OH260627   6.467   4.400   3.241  0.3052  0.1335 -0.0595
13071TIP3    H160628   6.417   4.337   3.293  1.3809 -1.2009 -0.5795
13071TIP3    H260629   6.558   4.374   3.254  0.9918  2.8210  1.2897
13072TIP3   OH260630   0.103   2.217   2.167  0.0644 -0.4733 -0.3857
13072TIP3    H160631   0.065   2.304   2.152  0.5854 -0.2450 -0.4056
13072TIP3    H260632   0.177   2.233   2.226  1.0613 -0.6873 -1.5210
13073TIP3   OH260633   3.637   5.598  14.864 -0.8424 -0.1356 -0.2790
13073TIP3    H160634   3.679   5.517  14.892 -0.0689 -0.2319 -1.6659
13073TIP3    H260635   3.563   5.607  14.925  0.0771 -0.9208  1.0302
13074TIP3   OH260636   1.646   2.194   3.728  0.3174  0.2637 -0.0637
13074TIP3    H160637   1.586   2.162   3.795 -0.5874  1.1620 -0.4236
13074TIP3    H260638   1.693   2.266   3.770  1.2100 -0.4721  0.2353
13075TIP3   OH260639   3.301   3.829  11.849 -0.8294 -0.4443  0.6732
13075TIP3    H160640   3.255   3.772  11.910  0.1381 -2.1705 -0.1274
13075TIP3    H260641   3.381   3.781  11.828 -0.3125  0.9108 -0.6065
13076TIP3   OH260642   2.819   5.172  14.981 -0.6558  0.0661  0.0171
13076TIP3    H160643   2.794   5.178  14.889  2.1026 -3.0730 -1.0979
13076TIP3    H260644   2.898   5.224  14.988 -1.1528  0.7432  0.8069
13077TIP3   OH260645   6.662   1.494  14.155  0.0417 -0.1432  0.6977
13077TIP3    H160646   6.661   1.588  14.139  0.7371 -0.2333  0.0865
13077TIP3    H260647   6.674   1.454  14.069 -1.1470 -0.8367  0.8331
13078TIP3   OH260648   0.109   5.666   5.057 -0.7667 -0.0565 -0.0620
13078TIP3    H160649   0.142   5.754   5.042 -0.3164  0.0394  1.2990
13078TIP3    H260650   0.181   5.609   5.031 -0.8058  0.0051 -0.3072
13079TIP3   OH260651   1.030   4.927   3.783 -0.1463 -0.0270 -0.6140
13079TIP3    H160652   1.022   4.951   3.876 -0.6757 -1.4493 -0.2673
13079TIP3    H260653   0.994   5.002   3.736 -0.9882  0.2283  0.3852
13080TIP3   OH260654   1.954   0.766  16.923 -0.6502  0.0201  0.2058
13080TIP3    H160655   2.023   0.728  16.869 -1.2896  0.2474 -0.7851
13080TIP3    H260656   1.913   0.691  16.966  0.5041 -0.0810  1.1764
13081TIP3   OH260657   0.590   0.532  11.869  0.1459 -0.1697 -0.2875
13081TIP3    H160658   0.538   0.474  11.924 -0.0846  0.2870 -0.0252
13081TIP3    H260659   0.559   0.514  11.780 -1.7379  1.3652  0.0119
13082TIP3   OH260660   1.601   1.628   5.604  0.0551  0.2545  0.3386
13082TIP3    H160661   1.647   1.556   5.647 -0.8147 -1.2014 -1.0672
13082TIP3    H260662   1.558   1.675   5.676 -0.8295 -1.7115  1.1785
13083TIP3   OH260663   5.065   2.822  11.914 -0.3221  0.3478  0.0133
13083TIP3    H160664   5.008   2.778  11.850  1.0811 -0.8196 -0.4972
13083TIP3    H260665   5.081   2.908  11.875  0.7618 -0.4540 -1.4245
13084TIP3   OH260666   6.718   3.965  14.793 -0.8013 -0.2966 -0.0473
13084TIP3    H160667   6.802   4.008  14.779 -1.3998  1.2372  0.9154
13084TIP3    H260668   6.705   3.967  14.888 -1.1276 -2.1208 -0.0124
13085TIP3   OH260669   0.216   4.001   2.813  0.1488 -0.6381 -0.4103
13085TIP3    H160670   0.298   3.964   2.780  1.1976  1.2784 -0.1408
13085TIP3    H260671   0.206   4.083   2.764 -1.3993 -0.6293 -0.1298
13086TIP3   OH260672   6.240   4.045  12.510 -0.5599  0.7354  0.0991
13086TIP3    H160673   6.204   4.116  12.562 -1.5473  0.5455 -0.3083
13086TIP3    H260674   6.200   3.966  12.546  0.6236  0.3572  0.6324
13087TIP3   OH260675   6.791   5.641   2.127  0.3695  0.0249 -0.1072
13087TIP3    H160676   6.886   5.624   2.126  0.2715 -0.7202  0.8165
13087TIP3    H260677   6.784   5.736   2.132  1.1466  0.0332  2.1059
13088TIP3   OH260678   0.180   2.166   3.132  0.1004  0.1471 -0.3646
13088TIP3    H160679   0.130   2.085   3.143 -0.2928  0.3179 -0.8716
13088TIP3    H260680   0.177   2.208   3.218 -0.2465 -0.0589 -0.2748
13089TIP3   OH260681   3.190   2.058  13.535  1.3427  0.6978 -0.0009
13089TIP3    H160682   3.126   2.047  13.606  1.4508  0.1470  0.0139
13089TIP3    H260683   3.271   2.023  13.571  1.2203 -0.3092 -0.6659
13090TIP3   OH260684   1.711   0.398  12.346  0.2106  0.0215 -0.1577
13090TIP3    H160685   1.641   0.335  12.333 -0.0010  0.4271 -1.0753
13090TIP3    H260686   1.754   0.370  12.426 -0.9465 -0.2787  0.3749
13091TIP3   OH260687   4.353   0.105  11.698  0.5964 -0.2832 -0.2966
13091TIP3    H160688   4.302   0.159  11.638 -1.5303 -1.0942  0.6887
13091TIP3    H260689   4.389   0.036  11.643 -0.4011 -0.3898 -0.8281
13092TIP3   OH260690   1.410   2.194  11.103 -0.4493  0.7420 -0.2390
13092TIP3    H160691   1.438   2.258  11.037 -0.3949  0.4529 -0.4976
13092TIP3    H260692   1.413   2.110  11.058  0.1349  0.4670  0.2964
13093TIP3   OH260693   3.608   5.087   5.206  0.2346  0.0470 -0.0009
13093TIP3    H160694   3.560   5.056   5.129 -1.8374  0.9335  0.8434
13093TIP3    H260695   3.561   5.166   5.233 -0.1302 -1.0579  3.0303
13094TIP3   OH260696   3.936   0.007   3.746 -0.5086 -0.2520  0.0975
13094TIP3    H160697   3.846   0.023   3.774 -2.2768 -0.7236 -4.5019
13094TIP3    H260698   3.945  -0.089   3.746 -0.7914 -0.3004 -1.3547
13095TIP3   OH260699   2.579   4.009   2.981 -0.0513 -0.1227  0.5623
13095TIP3    H160700   2.521   3.952   3.032 -1.0079  1.6064  1.4843
13095TIP3    H260701   2.666   3.969   2.992 -0.6201 -1.1869  1.4921
13096TIP3   OH260702   6.719   2.071   1.579  0.2609  0.0950  0.3128
13096TIP3    H160703   6.742   2.024   1.499 -0.2959 -0.1599  0.2964
13096TIP3    H260704   6.770   2.029   1.648 -0.7454 -1.0052  0.4126
13097TIP3   OH260705   3.403   3.544   2.739 -0.2887  0.0986 -0.3686
13097TIP3    H160706   3.434   3.629   2.772  0.9003  0.0926 -1.3876
13097TIP3    H260707   3.366   3.564   2.653  1.3326 -0.5682 -1.2789
13098TIP3   OH260708   2.077   6.001  14.961 -0.2382 -0.2175 -0.1322
13098TIP3    H160709   2.133   6.078  14.974 -2.6171  1.4393  0.9909
13098TIP3    H260710   2.081   5.984  14.867  0.7769  0.8966 -0.3228
13099TIP3   OH260711   3.259   2.770  12.198  0.1683 -0.0182  0.3975
13099TIP3    H160712   3.265   2.864  12.213  1.1255  0.0993 -0.6290
13099TIP3    H260713   3.185   2.759  12.138  0.5279  0.1593 -0.0819
13100TIP3   OH260714   5.648   5.157  12.722  0.0959 -0.3492 -0.0556
13100TIP3    H160715   5.587   5.188  12.655 -0.2371  0.4919  0.6187
13100TIP3    H260716   5.628   5.064  12.732 -2.9972  0.3759  2.0502
13101TIP3   OH260717   0.339   5.722   1.946  0.3296  0.1983 -0.1133
13101TIP3    H160718   0.257   5.702   1.902  0.6556 -0.9629 -0.2255
13101TIP3    H260719   0.366   5.639   1.986  0.8420  0.8476  0.9391
13102TIP3   OH260720   1.307   2.380   3.272  0.0259 -0.2499 -0.3276
13102TIP3    H160721   1.377   2.331   3.228  1.5775  1.5515  0.0069
13102TIP3    H260722   1.280   2.446   3.208  0.1053  0.3879  0.2855
13103TIP3   OH260723   3.493   5.967  12.892 -0.1182 -0.4262 -0.5516
13103TIP3    H160724   3.449   6.028  12.832 -0.0281  0.9675  0.7451
13103TIP3    H260725   3.554   5.918  12.836  1.2960  2.0964 -1.3788
13104TIP3   OH260726   0.212   5.424  14.546 -0.0074  0.2332 -0.5208
13104TIP3    H160727   0.246   5.512  14.529 -0.2180  0.5066  0.4283
13104TIP3    H260728   0.263   5.392  14.620  0.2179 -0.5415 -0.9991
13105TIP3   OH260729   5.468   5.281   4.903 -0.7003 -0.1895  0.0497
13105TIP3    H160730   5.400   5.338   4.866 -1.2195 -0.9057 -0.1096
13105TIP3    H260731   5.464   5.298   4.997 -2.6114 -1.7859  0.3272
13106TIP3   OH260732   2.291   3.690   4.304  0.0056 -0.6472 -0.0611
13106TIP3    H160733   2.258   3.612   4.348  2.7724 -0.8410  1.8970
13106TIP3    H260734   2.249   3.688   4.217 -2.1664 -2.6972  0.9231
13107TIP3   OH260735   1.732   1.974  16.852  0.0298  0.2022  0.5757
13107TIP3    H160736   1.772   1.929  16.925  0.2034 -0.6484 -0.0279
13107TIP3    H260737   1.752   1.920  16.776 -1.8242  0.0057  0.1769
13108TIP3   OH260738   6.776   0.123   2.982 -0.2683  0.2747 -1.2122
13108TIP3    H160739   6.682   0.109   2.980 -0.0755 -1.4395 -0.2967
13108TIP3    H260740   6.812   0.055   2.924  0.4274  0.6277 -1.2083
13109TIP3   OH260741   2.291   5.994  16.225 -0.0243 -0.6813 -0.5063
13109TIP3    H160742   2.307   5.995  16.319 -0.4987 -3.2530 -0.3120
13109TIP3    H260743   2.351   6.060  16.189 -0.3155  0.8264  1.6250
13110TIP3   OH260744   2.229   0.619  15.725 -0.2793 -0.1159 -0.1799
13110TIP3    H160745   2.237   0.711  15.699  0.4053 -0.2647 -0.5135
13110TIP3    H260746   2.166   0.620  15.797 -1.7990  0.3795 -1.4574
13111TIP3   OH260747   4.877   0.208  16.426  0.4744 -0.1918  0.4843
13111TIP3    H160748   4.784   0.229  16.435  0.7051  0.0630  2.6084
13111TIP3    H260749   4.898   0.235  16.336 -1.0085  1.7479  0.6426
13112TIP3   OH260750   6.554   0.224   0.074 -0.1043  0.0875  0.0859
13112TIP3    H160751   6.561   0.315   0.046  0.2061 -0.2489 -0.9983
13112TIP3    H260752   6.475   0.192   0.030 -1.4681  0.3977  2.1746
13113TIP3   OH260753   2.141   5.333  15.410 -0.2746 -0.0889  0.5538
13113TIP3    H160754   2.201   5.320  15.484 -1.0606 -1.9097  0.9049
13113TIP3    H260755   2.155   5.257  15.354 -1.0967  0.2913 -0.1856
13114TIP3   OH260756   6.323   4.928  13.195  0.0331  0.1082  0.1018
13114TIP3    H160757   6.321   4.888  13.108  1.7604  0.8515 -0.3403
13114TIP3    H260758   6.401   4.891  13.237 -0.9525 -0.4912  1.4945
13115TIP3   OH260759   5.006   0.566   3.462  0.1896  0.2870  0.1715
13115TIP3    H160760   4.985   0.608   3.545 -0.2064  0.8183 -0.1889
13115TIP3    H260761   4.997   0.635   3.397  0.2600 -0.1767 -0.3419
13116TIP3   OH260762   2.673   1.794  14.723  0.5357  0.6466 -0.4240
13116TIP3    H160763   2.631   1.850  14.789 -1.1594 -0.5777 -0.4103
13116TIP3    H260764   2.661   1.705  14.756  2.9031  0.1970 -0.6039
13117TIP3   OH260765   5.436   2.476   4.309 -0.4309 -0.1995 -0.2186
13117TIP3    H160766   5.346   2.454   4.335 -0.8704  0.7791 -0.8374
13117TIP3    H260767   5.444   2.569   4.329  0.2412 -0.1399 -0.7275
13118TIP3   OH260768   4.531   0.481   3.092  0.3734 -0.1952 -0.2233
13118TIP3    H160769   4.530   0.497   2.998  1.3808 -0.4564 -0.2921
13118TIP3    H260770   4.618   0.444   3.109 -0.4226 -1.8476  0.5203
13119TIP3   OH260771   1.018   1.665  11.341 -0.0289  0.4981  0.4538
13119TIP3    H160772   1.078   1.721  11.390  0.1966  0.9031 -0.2640
13119TIP3    H260773   1.070   1.633  11.267 -0.9326  1.6700 -0.7551
13120TIP3   OH260774   5.278   0.347   5.471  0.1061  0.5306  0.0245
13120TIP3    H160775   5.344   0.369   5.537 -0.5552 -0.2780  0.9859
13120TIP3    H260776   5.318   0.276   5.420 -0.1601 -0.2273  0.8539
13121TIP3   OH260777   4.870   0.075  15.070 -0.3578 -0.5775  0.1652
13121TIP3    H160778   4.862   0.131  14.993 -1.5111 -0.5177  0.3087
13121TIP3    H260779   4.851  -0.013  15.038 -2.5437 -0.3455  0.6395
13122TIP3   OH260780   4.421   3.183  16.405 -1.0384 -0.5696  0.2824
13122TIP3    H160781   4.480   3.189  16.329 -1.4742 -1.6230 -0.1594
13122TIP3    H260782   4.392   3.273  16.420 -0.2009 -0.2043 -0.1974
13123TIP3   OH260783   0.667   2.206   5.752  0.8143  0.4473  0.1458
13123TIP3    H160784   0.738   2.224   5.814  1.6567  0.5868 -0.8294
13123TIP3    H260785   0.687   2.119   5.717  1.0160  0.8489 -0.7782
13124TIP3   OH260786   6.070   3.913   4.297  0.3036  0.2325  0.9019
13124TIP3    H160787   6.124   3.837   4.315  0.3744  0.1915  0.5225
13124TIP3    H260788   6.127   3.988   4.315  1.0412  0.1963 -1.0637
13125TIP3   OH260789   3.744   0.134  11.479  0.3087 -0.1776  0.4342
13125TIP3    H160790   3.827   0.100  11.446  0.3197  0.8225 -0.6479
13125TIP3    H260791   3.677   0.076  11.441  0.5235 -1.5047  1.9918
13126TIP3   OH260792   3.826   3.357  14.876  0.3930  0.3510  0.4975
13126TIP3    H160793   3.786   3.413  14.810 -0.3539 -0.7868 -0.0481
13126TIP3    H260794   3.913   3.395  14.890  0.7358  0.3851 -1.4592
13127TIP3   OH260795   3.411   3.285   5.868  0.1512 -0.0892 -0.6859
13127TIP3    H160796   3.475   3.239   5.922 -0.1494 -0.1448 -0.3761
13127TIP3    H260797   3.447   3.373   5.856 -0.7548  0.6066  1.3379
13128TIP3   OH260798   5.867   1.271  14.049  0.5040 -0.4795 -0.2728
13128TIP3    H160799   5.843   1.363  14.034 -0.3598 -0.6485  0.0723
13128TIP3    H260800   5.963   1.273  14.056  0.5641  0.2713 -1.1121
13129TIP3   OH260801   4.451   3.973   3.695  0.2133 -0.5176 -0.5049
13129TIP3    H160802   4.373   3.963   3.749 -0.8828  1.2785 -1.6443
13129TIP3    H260803   4.438   4.056   3.649  1.9068 -1.0992 -2.1726
13130TIP3   OH260804   0.455   2.802  12.793 -0.1470  0.3923  0.2799
13130TIP3    H160805   0.536   2.778  12.748 -0.4631  0.3683 -0.2844
13130TIP3    H260806   0.484   2.838  12.877  0.4195 -0.2666  0.3815
13131TIP3   OH260807   0.450   5.906   2.562  0.5697 -0.7258  0.1814
13131TIP3    H160808   0.498   5.850   2.501 -0.4638 -1.8117  0.3337
13131TIP3    H260809   0.358   5.885   2.547  0.1520  0.9679  0.2326
13132TIP3   OH260810   6.526   1.360  11.402 -0.4854 -0.3672 -0.0589
13132TIP3    H160811   6.436   1.389  11.389 -0.5302 -0.7682 -0.6809
13132TIP3    H260812   6.562   1.422  11.465 -1.4473 -0.7138  0.8639
13133TIP3   OH260813   3.847   3.274  11.077 -0.0727 -0.3226  0.5542
13133TIP3    H160814   3.922   3.313  11.031 -1.5181  1.8383 -0.1458
13133TIP3    H260815   3.773   3.290  11.019 -1.2873 -1.2832  1.7870
13134TIP3   OH260816   3.316   3.118  13.632  0.0678  0.0260  0.1055
13134TIP3    H160817   3.269   3.179  13.575  2.0581  3.5602  1.8684
13134TIP3    H260818   3.253   3.099  13.702 -0.2293  1.0694  0.1454
13135TIP3   OH260819   5.881   3.388   3.610  0.3233  0.5061 -0.1469
13135TIP3    H160820   5.871   3.334   3.531  0.0719  2.9246 -1.8833
13135TIP3    H260821   5.941   3.338   3.665  1.6570 -0.6762 -2.4925
13136TIP3   OH260822   3.344   6.556   0.505  0.0040 -0.1951 -0.2297
13136TIP3    H160823   3.362   6.479   0.560  1.4215  1.0867  1.2187
13136TIP3    H260824   3.264   6.593   0.542 -0.7833 -1.0422 -1.0451
13137TIP3   OH260825   1.650   0.531   2.452 -0.3972 -1.0635 -0.3349
13137TIP3    H160826   1.697   0.563   2.375  0.7533 -1.2769  0.2428
13137TIP3    H260827   1.608   0.450   2.424 -2.0565  0.0969 -1.3899
13138TIP3   OH260828   2.452   0.307  15.802 -0.6645 -0.0343  0.5677
13138TIP3    H160829   2.453   0.333  15.710 -0.3534 -1.1730  0.2411
13138TIP3    H260830   2.519   0.362  15.843 -1.0333  0.7134  0.1922
13139TIP3   OH260831   4.087   4.413   5.770 -0.0539 -0.0808  0.6786
13139TIP3    H160832   4.100   4.494   5.720 -1.2429 -1.0670 -1.3587
13139TIP3    H260833   4.126   4.431   5.855  0.5994  2.2831 -0.0430
13140TIP3   OH260834   6.695   3.526   1.401 -0.7899 -0.1727  0.0993
13140TIP3    H160835   6.740   3.445   1.376  0.0960  0.0125  1.0339
13140TIP3    H260836   6.699   3.580   1.323  3.7515  1.2227  0.9608
13141TIP3   OH260837   1.117   1.246  15.676 -0.8633  0.3093 -0.2718
13141TIP3    H160838   1.116   1.195  15.595  0.0234 -1.0543  0.5223
13141TIP3    H260839   1.035   1.222  15.720  0.0557 -1.3986  0.6169
13142TIP3   OH260840   1.459   4.872  14.719  0.2109  0.4607  0.0340
13142TIP3    H160841   1.491   4.787  14.748 -1.8909 -0.2968  0.3073
13142TIP3    H260842   1.485   4.879  14.627  1.6901  0.2081  0.4221
13143TIP3   OH260843   2.401   6.478   3.449  0.7631  0.4427 -0.3316
13143TIP3    H160844   2.490   6.458   3.476  0.5556  1.4675  1.3104
13143TIP3    H260845   2.381   6.561   3.493 -1.1144  0.0468 -0.3510
13144TIP3   OH260846   5.019   0.386  13.068 -0.2807 -0.1380  0.0824
13144TIP3    H160847   5.110   0.398  13.093  0.4265 -0.3348 -2.1871
13144TIP3    H260848   4.990   0.473  13.039 -0.6931 -0.1666  0.3934
13145TIP3   OH260849   3.203   1.618  16.373 -0.6420 -0.0234 -0.1360
13145TIP3    H160850   3.129   1.640  16.317  0.2160  1.2729 -0.7909
13145TIP3    H260851   3.171   1.633  16.462 -1.6265 -0.9383 -0.3096
13146TIP3   OH260852   3.103   4.395  13.988 -0.0188 -0.4467  0.1225
13146TIP3    H160853   3.112   4.432  13.900 -1.6202 -1.3877 -0.4734
13146TIP3    H260854   3.149   4.311  13.983  1.5678  0.3418  0.7863
13147TIP3   OH260855   5.437   4.710   5.695  0.3290 -0.2965  0.5520
13147TIP3    H160856   5.380   4.652   5.644 -0.1408  0.4999  0.1438
13147TIP3    H260857   5.406   4.701   5.785 -0.9567  0.6915  0.2303
13148TIP3   OH260858   1.466   5.776   3.470 -0.1655  0.1625 -0.0754
13148TIP3    H160859   1.519   5.814   3.400 -1.5476 -0.1316 -1.3416
13148TIP3    H260860   1.466   5.842   3.539  0.2883  0.9581 -0.8127
13149TIP3   OH260861   1.156   6.313   6.169 -0.5501 -0.2005 -0.2378
13149TIP3    H160862   1.139   6.249   6.237 -0.2747 -1.3172 -1.1849
13149TIP3    H260863   1.170   6.261   6.090 -1.1783  1.0573 -1.2213
13150TIP3   OH260864   2.107   2.613   5.786  0.4096 -0.0219  0.0016
13150TIP3    H160865   2.021   2.652   5.797  0.6601  0.2270  1.1917
13150TIP3    H260866   2.131   2.632   5.695 -0.3140  0.8801 -0.0116
13151TIP3   OH260867   2.897   6.428  10.812  0.3990 -0.0697  0.8101
13151TIP3    H160868   2.811   6.457  10.844 -0.0761  0.3870 -0.7423
13151TIP3    H260869   2.930   6.504  10.763  1.1346 -0.6736  0.3556
13152TIP3   OH260870   5.533   5.591  13.313 -0.3910  0.4130 -0.6174
13152TIP3    H160871   5.471   5.617  13.244  0.0524  3.1794 -0.0877
13152TIP3    H260872   5.602   5.658  13.309  1.8709 -1.7373 -0.2256
13153TIP3   OH260873   5.809   0.901  15.475 -0.7836  0.5521  0.0607
13153TIP3    H160874   5.883   0.958  15.499 -0.8130  1.2048 -1.3094
13153TIP3    H260875   5.807   0.835  15.544  0.6340  0.9389  0.5159
13154TIP3   OH260876   6.468   6.775  15.558  0.2587  0.5487 -0.0890
13154TIP3    H160877   6.415   6.777  15.637  0.4685 -0.2573  0.0815
13154TIP3    H260878   6.407   6.800  15.488 -0.9111 -2.2044 -0.1747
13155TIP3   OH260879   1.067   1.031  12.371  0.2059  0.1275  0.2919
13155TIP3    H160880   1.042   0.939  12.381  0.6538  0.0456  0.7331
13155TIP3    H260881   1.119   1.050  12.450 -0.3789  0.9235  0.4980
13156TIP3   OH260882   0.299   2.906   5.913 -0.0372 -0.1347 -0.0481
13156TIP3    H160883   0.315   2.930   6.005 -2.1136  2.3476 -0.2077
13156TIP3    H260884   0.225   2.846   5.918  1.0450 -1.4891 -0.0216
13157TIP3   OH260885   4.730   4.406   1.525  0.1467  0.4172 -0.2948
13157TIP3    H160886   4.696   4.327   1.567  2.3787 -0.3708  0.2004
13157TIP3    H260887   4.653   4.456   1.500 -1.4808 -2.9005 -2.5928
13158TIP3   OH260888   4.104   6.559   0.424  0.2767  0.0499 -0.0596
13158TIP3    H160889   4.103   6.503   0.502 -1.6868 -1.1674 -0.8841
13158TIP3    H260890   4.098   6.648   0.457 -0.7061 -0.4597  1.1800
13159TIP3   OH260891   1.297   5.093  10.816 -0.2926 -0.1040  0.2214
13159TIP3    H160892   1.373   5.041  10.842  0.0661  0.0808 -0.4381
13159TIP3    H260893   1.272   5.140  10.896 -0.4163 -1.0205  0.7382
13160TIP3   OH260894   2.836   0.927   3.194 -0.0832 -0.8186  0.4852
13160TIP3    H160895   2.902   0.858   3.202 -0.0751 -1.1740 -1.9005
13160TIP3    H260896   2.855   0.969   3.110 -1.7921  0.2432  0.5776
13161TIP3   OH260897   3.215   6.746  15.283 -0.1460 -0.0105 -0.4374
13161TIP3    H160898   3.275   6.675  15.305 -0.6081 -0.2865 -0.0364
13161TIP3    H260899   3.211   6.800  15.361  0.0370  0.3377 -0.6669
13162TIP3   OH260900   6.015   3.208   5.475 -0.2700  0.0211 -0.2639
13162TIP3    H160901   5.992   3.173   5.561  0.8688 -0.0794  0.0259
13162TIP3    H260902   5.947   3.272   5.455 -1.2628 -0.8969  0.1212
13163TIP3   OH260903   0.618   5.301   3.929  0.1974  0.1955 -0.3061
13163TIP3    H160904   0.599   5.212   3.900  2.0552 -0.9111  1.6223
13163TIP3    H260905   0.674   5.338   3.860  0.1148 -0.4264 -0.7086
13164TIP3   OH260906   4.614   6.650  16.908 -0.3416  0.5565 -0.3479
13164TIP3    H160907   4.641   6.608  16.827 -0.1518 -1.5205  0.7212
13164TIP3    H260908   4.682   6.715  16.925  0.9143 -0.6198 -0.6856
13165TIP3   OH260909   2.394   3.002  15.915  0.4439  0.2481 -0.2605
13165TIP3    H160910   2.360   3.036  15.832  1.0660 -0.4388 -0.8150
13165TIP3    H260911   2.336   3.039  15.982 -2.8800 -2.5269 -1.2678
13166TIP3   OH260912   2.470   2.562  10.306 -0.1630  0.1745 -0.1429
13166TIP3    H160913   2.484   2.511  10.227  1.5667 -0.3250  0.4408
13166TIP3    H260914   2.518   2.515  10.374 -0.3619  1.3944  0.8822
13167TIP3   OH260915   1.052   5.182   1.032 -0.3712  0.5838 -0.4527
13167TIP3    H160916   1.094   5.265   1.054 -0.0003  0.4663 -0.7186
13167TIP3    H260917   1.120   5.131   0.988 -0.1865 -0.3960  0.9159
13168TIP3   OH260918   1.588   1.319   4.494 -0.0701  0.4161  0.1268
13168TIP3    H160919   1.549   1.393   4.448  0.7203  0.3093 -0.7594
13168TIP3    H260920   1.619   1.261   4.424 -0.4547 -0.6431  0.7996
13169TIP3   OH260921   1.950   1.779  13.920 -0.1285 -0.2784  0.2229
13169TIP3    H160922   2.021   1.842  13.908 -1.3527  1.4238  1.4673
13169TIP3    H260923   1.942   1.736  13.835  1.4548  0.4924 -0.3487
13170TIP3   OH260924   3.520   4.187   2.314  0.1847 -0.1358  0.2473
13170TIP3    H160925   3.474   4.114   2.271  1.1855 -1.3588  1.1982
13170TIP3    H260926   3.595   4.205   2.257 -0.5657  0.8086 -0.4769
13171TIP3   OH260927   1.845   0.516   0.056  0.4067  0.0444  0.3549
13171TIP3    H160928   1.925   0.474   0.025 -0.1570 -0.5019 -0.4012
13171TIP3    H260929   1.775   0.472   0.008 -0.1556  2.9226 -1.7067
13172TIP3   OH260930   0.680   6.042  13.209 -0.1067 -0.4959 -0.4870
13172TIP3    H160931   0.618   6.099  13.163 -1.9852 -0.6064  1.7074
13172TIP3    H260932   0.749   6.101  13.238 -0.6121  0.1782 -0.6176
13173TIP3   OH260933   5.304   4.221   0.802 -0.7819 -0.5853  0.0709
13173TIP3    H160934   5.229   4.274   0.775 -1.3969  0.1277  2.8258
13173TIP3    H260935   5.265   4.141   0.838 -0.1275 -0.8426  0.2227
13174TIP3   OH260936   6.052   1.558  15.080 -0.0470 -0.2001 -0.8046
13174TIP3    H160937   6.080   1.493  15.144 -0.8490  1.3515  1.2361
13174TIP3    H260938   6.118   1.554  15.011  0.3776 -2.5396 -0.3497
13175TIP3   OH260939   2.532   2.088   1.694 -0.7239 -0.1078 -0.0250
13175TIP3    H160940   2.494   2.137   1.621  0.7155  1.3750  0.1610
13175TIP3    H260941   2.540   2.152   1.765  1.8631 -0.3464  0.0049
13176TIP3   OH260942   1.883   2.021  16.601  0.0407  0.7283  0.5572
13176TIP3    H160943   1.913   2.077  16.673  0.5497  1.5502 -0.2660
13176TIP3    H260944   1.800   2.060  16.573  0.2348  0.8869  0.1939
13177TIP3   OH260945   0.669   3.857  12.482 -0.4788 -0.3196 -0.3890
13177TIP3    H160946   0.736   3.790  12.467 -0.1924  0.1654 -1.3805
13177TIP3    H260947   0.598   3.834  12.421  0.3201  1.1862 -1.9766
13178TIP3   OH260948   1.755   5.912   0.568 -0.2333  0.2099 -0.4343
13178TIP3    H160949   1.741   5.998   0.529 -0.4392  0.4399  0.1291
13178TIP3    H260950   1.675   5.863   0.547 -1.1333  0.9020  1.1486
13179TIP3   OH260951   5.442   1.933   1.511 -0.1145 -0.2519 -0.5448
13179TIP3    H160952   5.395   1.850   1.516  0.7118 -0.7058 -0.2547
13179TIP3    H260953   5.377   1.998   1.540  0.0006 -1.0995  1.8200
13180TIP3   OH260954   2.420   3.734  11.156 -0.2529  0.1347  0.7575
13180TIP3    H160955   2.479   3.663  11.180 -1.1211 -0.5049  1.0268
13180TIP3    H260956   2.428   3.739  11.060 -0.3798 -0.4958  0.7084
13181TIP3   OH260957   3.382   3.298  15.634  0.3375 -0.3034 -0.4381
13181TIP3    H160958   3.320   3.281  15.563 -4.0541 -2.6728  3.3898
13181TIP3    H260959   3.370   3.390  15.656  0.0546 -0.1339 -1.2848
13182TIP3   OH260960   3.731   5.207  13.737  0.0423 -0.0018  0.9313
13182TIP3    H160961   3.665   5.187  13.803 -0.2172 -0.5348  0.5207
13182TIP3    H260962   3.695   5.281  13.688 -2.2213 -2.6419 -1.8594
13183TIP3   OH260963   0.100   5.095   2.570 -0.4066 -0.5093  0.3311
13183TIP3    H160964   0.040   5.020   2.574 -0.8040 -0.2114  0.1318
13183TIP3    H260965   0.068   5.147   2.496 -1.6067  1.0660  1.8657
13184TIP3   OH260966   2.798   5.158  12.204  0.1982  0.4765 -0.3390
13184TIP3    H160967   2.750   5.207  12.138  0.5633  0.8633 -0.3282
13184TIP3    H260968   2.790   5.066  12.178 -2.2781  0.2952  0.7845
13185TIP3   OH260969   1.916   3.329  13.001 -0.1118 -0.3045 -0.3355
13185TIP3    H160970   1.943   3.385  12.928  1.4995 -1.4931 -0.7205
13185TIP3    H260971   1.835   3.288  12.970 -2.1711  2.7475  0.5223
13186TIP3   OH260972   6.726   4.900   3.011 -0.0404 -0.2792  0.4672
13186TIP3    H160973   6.683   4.924   3.093  0.5315 -0.6722  0.8851
13186TIP3    H260974   6.695   4.812   2.992 -0.9828  0.1915 -0.2964
13187TIP3   OH260975   5.506   0.021   2.342 -0.0544 -0.3409 -0.2297
13187TIP3    H160976   5.462   0.090   2.292  2.0268  0.7809 -0.5965
13187TIP3    H260977   5.541  -0.038   2.275  1.9817  0.6899 -0.1339
13188TIP3   OH260978   5.063   5.226   5.798  0.0696  0.6622 -0.0161
13188TIP3    H160979   5.126   5.232   5.870  1.5475 -0.1661 -1.1632
13188TIP3    H260980   5.029   5.314   5.787  1.3021  1.2131  0.4462
13189TIP3   OH260981   5.089   5.659   1.620  0.1909  0.4352  0.3268
13189TIP3    H160982   5.146   5.629   1.548  0.4982  1.2662  0.2162
13189TIP3    H260983   5.092   5.754   1.615 -0.4093  0.4945  0.9657
13190TIP3   OH260984   5.820   1.566  13.438  0.3722  0.1146 -0.0963
13190TIP3    H160985   5.755   1.603  13.378  0.3218 -1.8063 -1.3301
13190TIP3    H260986   5.777   1.567  13.523 -0.8735 -0.1448 -0.7012
13191TIP3   OH260987   1.971   6.039  12.205  0.1752 -0.3699 -0.3197
13191TIP3    H160988   2.057   6.021  12.166  1.5952  0.6516  2.0701
13191TIP3    H260989   1.950   5.960  12.255 -0.0891 -0.4562 -0.5622
13192TIP3   OH260990   3.307   2.878  11.035  0.0254  0.1273  0.2562
13192TIP3    H160991   3.241   2.819  11.070  0.0918 -1.0603 -1.4937
13192TIP3    H260992   3.257   2.944  10.986  0.0458  0.5466  0.7856
13193TIP3   OH260993   5.783   5.991   6.600 -0.2974 -0.0648 -0.4636
13193TIP3    H160994   5.863   6.030   6.635 -0.1043 -0.2216 -0.7250
13193TIP3    H260995   5.801   5.979   6.506 -1.4394  2.0222 -1.0189
13194TIP3   OH260996   4.030   5.817   2.439 -0.2558  0.4051 -0.7527
13194TIP3    H160997   4.041   5.724   2.460  1.4386  0.2791 -2.0378
13194TIP3    H260998   3.964   5.847   2.502 -1.2214 -1.7542 -0.6196
13195TIP3   OH260999   4.167   6.530   2.291  0.2525  0.0207  0.0251
13195TIP3    H161000   4.193   6.532   2.383 -0.9786  0.7484  0.3806
13195TIP3    H261001   4.249   6.534   2.242  0.8704  0.6571  1.0888
13196TIP3   OH261002   2.705   4.692  13.466  0.0234  0.2867  0.2176
13196TIP3    H161003   2.800   4.699  13.479 -0.1353  0.5034  1.3206
13196TIP3    H261004   2.669   4.772  13.505 -0.5467  0.7330 -1.1426
13197TIP3   OH261005   1.714   5.627   0.311  0.0044  0.4461 -0.2075
13197TIP3    H161006   1.707   5.588   0.398  2.0985  3.0114  1.2899
13197TIP3    H261007   1.721   5.553   0.251  1.6928 -1.4934  2.1913
13198TIP3   OH261008   5.151   6.220  13.481  0.0079 -0.1965 -0.0365
13198TIP3    H161009   5.151   6.128  13.509  2.5861 -0.9890 -2.2093
13198TIP3    H261010   5.066   6.231  13.438 -0.3760 -1.5211  0.3235
13199TIP3   OH261011   3.496   5.466  11.977  0.1110 -0.3365 -0.1812
13199TIP3    H161012   3.504   5.526  12.051 -0.1528 -1.6820  0.9873
13199TIP3    H261013   3.586   5.447  11.951  0.2569 -0.7566  0.5855
13200TIP3   OH261014   5.429   2.500   0.774  0.1012 -0.2917 -0.0404
13200TIP3    H161015   5.474   2.584   0.782  0.9470 -0.6236 -1.1593
13200TIP3    H261016   5.363   2.502   0.844  0.7114  0.9102  0.5322
13201TIP3   OH261017   4.174   6.144  15.413  0.0496 -0.3127 -0.7322
13201TIP3    H161018   4.221   6.211  15.365 -2.3051  1.2329 -1.0463
13201TIP3    H261019   4.102   6.118  15.355 -1.4495 -0.1480  0.9571
13202TIP3   OH261020   0.117   4.109  14.443 -0.1276  0.4457  0.9602
13202TIP3    H161021   0.163   4.149  14.369 -1.7127  0.0769 -0.2681
13202TIP3    H261022   0.029   4.093  14.411 -0.2575 -1.7604  2.2205
13203TIP3   OH261023   3.540   4.106   0.213  0.5405 -0.4266 -0.1931
13203TIP3    H161024   3.516   4.035   0.154  0.6324 -0.7667  0.1763
13203TIP3    H261025   3.518   4.186   0.164  1.3349 -0.6862 -0.9980
13204TIP3   OH261026   0.966   2.136  12.167 -0.4698 -0.1303  0.8450
13204TIP3    H161027   0.974   2.067  12.102 -1.7392  0.4158  0.0747
13204TIP3    H261028   0.980   2.217  12.117 -0.2540  0.2300  1.4854
13205TIP3   OH261029   6.021   0.848   0.398 -0.3011  0.0586 -0.2500
13205TIP3    H161030   6.011   0.767   0.449 -0.0474 -0.6442 -1.2721
13205TIP3    H261031   6.057   0.818   0.314  0.1995  1.2949 -0.4862
13206TIP3   OH261032   2.505   4.315   0.681 -0.4387  0.3195 -0.5472
13206TIP3    H161033   2.417   4.282   0.700 -0.1791 -1.5704 -2.2549
13206TIP3    H261034   2.525   4.283   0.593  2.5997 -0.8289  0.3952
13207TIP3   OH261035   3.686   5.840  15.103  0.3213  0.0043  0.0628
13207TIP3    H161036   3.773   5.864  15.071  0.6970 -1.0852  0.2270
13207TIP3    H261037   3.665   5.758  15.058  0.4093 -0.9999  1.7768
13208TIP3   OH261038   5.189   1.936   5.867 -0.3148 -0.0198 -0.3636
13208TIP3    H161039   5.177   1.868   5.801 -0.3335  0.4794 -0.8887
13208TIP3    H261040   5.266   1.908   5.917  0.4785  0.2114 -1.4100
13209TIP3   OH261041   1.938   1.465  10.745 -0.1522  0.6593 -0.3755
13209TIP3    H161042   1.880   1.418  10.686  1.9752  1.4358 -3.2862
13209TIP3    H261043   2.007   1.403  10.767 -0.7900  0.4567  1.1799
13210TIP3   OH261044   0.740   2.359   4.481  0.3277 -0.2831 -0.1783
13210TIP3    H161045   0.818   2.391   4.437  0.5833 -0.5409  0.0802
13210TIP3    H261046   0.723   2.274   4.442 -0.1200 -0.0130 -0.5857
13211TIP3   OH261047   3.791   1.443  15.810 -0.2455  0.4933  0.6434
13211TIP3    H161048   3.773   1.407  15.724 -1.2247 -0.3948  1.2047
13211TIP3    H261049   3.819   1.533  15.793 -2.8041  1.1531 -0.4675
13212TIP3   OH261050   2.083   4.968  13.324 -0.2196 -0.2461 -0.2355
13212TIP3    H161051   2.072   5.043  13.265  2.5132  1.0603  0.7204
13212TIP3    H261052   2.040   4.995  13.405  2.8035  1.5426  0.9530
13213TIP3   OH261053   4.924   1.682   4.013 -0.2304 -0.3585  0.0338
13213TIP3    H161054   5.015   1.680   4.041  0.2378 -2.3849 -1.4841
13213TIP3    H261055   4.874   1.668   4.093  0.8376 -0.6020  0.6717
13214TIP3   OH261056   3.286   4.313   2.613  0.6222  0.4652 -0.3550
13214TIP3    H161057   3.352   4.356   2.558  3.2363 -3.4644 -0.7600
13214TIP3    H261058   3.243   4.251   2.554 -0.4876  0.0336  0.8589
13215TIP3   OH261059   6.161   4.364   5.340  0.0781  0.0224  0.0669
13215TIP3    H161060   6.170   4.458   5.330  0.9975 -0.0736 -0.1614
13215TIP3    H261061   6.075   4.343   5.304  0.7389  0.4917 -1.9130
13216TIP3   OH261062   0.531   3.930   5.664  0.2186 -0.5606 -0.4395
13216TIP3    H161063   0.533   3.923   5.759 -0.1143  2.6704 -0.1073
13216TIP3    H261064   0.619   3.906   5.636  1.1266  0.9955  0.9468
13217TIP3   OH261065   3.187   5.343   3.650 -0.2535  0.3968 -0.0316
13217TIP3    H161066   3.202   5.372   3.740 -1.8717  0.6105  0.1955
13217TIP3    H261067   3.111   5.394   3.621 -0.5636 -0.6207 -1.0572
13218TIP3   OH261068   4.440   1.946  14.517  0.0274 -0.1064 -0.8160
13218TIP3    H161069   4.519   1.899  14.492  0.0572 -0.3270 -0.3073
13218TIP3    H261070   4.420   2.001  14.441 -0.3634 -1.3932 -1.6846
13219TIP3   OH261071   1.702   6.247  15.914  0.0352 -0.3662 -0.4428
13219TIP3    H161072   1.760   6.231  15.839 -0.8491  0.5411 -1.3551
13219TIP3    H261073   1.733   6.329  15.951 -0.3633 -0.1035 -0.6713
13220TIP3   OH261074   1.653   3.759   3.081  0.3863 -0.4980 -0.2489
13220TIP3    H161075   1.606   3.703   3.143 -0.6657  0.8282  0.2251
13220TIP3    H261076   1.740   3.720   3.074  0.5543 -0.7135  2.0832
13221TIP3   OH261077   4.741   6.431  16.436  0.1601  0.1499  0.5192
13221TIP3    H161078   4.715   6.410  16.346  1.4666 -1.5377  0.4757
13221TIP3    H261079   4.829   6.466  16.428  0.6915 -0.9711  1.1920
13222TIP3   OH261080   1.583   2.084   5.140 -0.6070  0.2585  0.4470
13222TIP3    H161081   1.656   2.135   5.105 -1.3534  0.8625 -0.2535
13222TIP3    H261082   1.591   1.998   5.098 -0.0652  0.1741  0.7026
13223TIP3   OH261083   1.517   4.237   3.409 -0.3171 -0.2813  0.4922
13223TIP3    H161084   1.532   4.296   3.334  0.9534  1.6051  2.1241
13223TIP3    H261085   1.428   4.257   3.438 -0.0124  0.6405  0.8300
13224TIP3   OH261086   2.131   3.672   2.817 -0.3928 -0.0876 -0.0790
13224TIP3    H161087   2.204   3.662   2.756 -1.4454 -0.2038 -1.3582
13224TIP3    H261088   2.165   3.640   2.900  0.7355 -0.9999 -0.8624
13225TIP3   OH261089   1.869   2.386   0.947 -0.0685 -0.0687 -0.3733
13225TIP3    H161090   1.807   2.426   0.886  2.0961  0.6546 -2.1947
13225TIP3    H261091   1.815   2.325   0.998 -2.2675  0.5010 -1.8709
13226TIP3   OH261092   2.156   1.319  11.929 -0.0615  0.0546  0.5665
13226TIP3    H161093   2.197   1.277  11.853  0.2607 -1.2036  1.4031
13226TIP3    H261094   2.228   1.364  11.972 -0.5111  2.0582 -0.6540
13227TIP3   OH261095   1.383   6.048  12.366 -0.2815 -0.4137 -0.2221
13227TIP3    H161096   1.431   6.126  12.394  2.1944 -1.5350 -1.0465
13227TIP3    H261097   1.303   6.082  12.328  0.2923  1.6656  0.2907
13228TIP3   OH261098   6.497   1.881   0.476 -0.0495  0.2033 -0.0015
13228TIP3    H161099   6.592   1.894   0.471 -0.2168  1.8907  0.5566
13228TIP3    H261100   6.470   1.934   0.552 -1.5560  0.5174 -0.7213
13229TIP3   OH261101   3.643   2.180   5.058  0.3767  0.3651 -0.8875
13229TIP3    H161102   3.585   2.211   5.128 -1.3784 -2.6958 -0.8072
13229TIP3    H261103   3.640   2.250   4.993 -0.9104  1.6876  0.4903
13230TIP3   OH261104   6.767   3.001   5.919 -0.6766 -0.2704 -0.1831
13230TIP3    H161105   6.738   3.036   5.834  0.3278  1.2652  0.0643
13230TIP3    H261106   6.689   2.960   5.955 -1.7166  0.9511 -0.9219
13231TIP3   OH261107   0.823   0.278   2.170  0.0844 -0.4177 -0.2755
13231TIP3    H161108   0.809   0.371   2.189 -0.3611 -0.5178 -0.0721
13231TIP3    H261109   0.876   0.247   2.244  1.8652  0.0749 -1.3052
13232TIP3   OH261110   1.057   1.686   3.346 -0.6689 -0.2070  0.1668
13232TIP3    H161111   1.124   1.715   3.284 -1.4908 -1.7978 -1.5530
13232TIP3    H261112   0.974   1.700   3.300 -1.3490 -0.7375  1.2009
13233TIP3   OH261113   2.373   3.432   1.057 -0.3810 -0.2193  0.1430
13233TIP3    H161114   2.377   3.410   1.151 -0.7093  1.4102  0.5704
13233TIP3    H261115   2.384   3.527   1.055  0.4161 -0.3269 -1.5480
13234TIP3   OH261116   1.337   0.212  14.256  0.0857 -0.3277  0.1519
13234TIP3    H161117   1.411   0.269  14.232 -0.6966  0.3486 -0.7294
13234TIP3    H261118   1.265   0.273  14.273 -0.2045 -0.9594  1.3132
13235TIP3   OH261119   5.949   4.934  16.979  0.0478 -0.3008  0.2162
13235TIP3    H161120   6.037   4.913  16.948  0.4066  0.7419  0.4638
13235TIP3    H261121   5.890   4.886  16.920  0.7678 -0.2959 -0.5246
13236TIP3   OH261122   0.855   4.809  11.494 -0.5013 -0.0927  0.3686
13236TIP3    H161123   0.923   4.877  11.499  0.8571 -1.4489  1.2145
13236TIP3    H261124   0.862   4.776  11.404 -0.1519 -0.1003  0.3952
13237TIP3   OH261125   1.006   4.031   0.553 -0.0820  0.3380  0.1605
13237TIP3    H161126   0.939   4.030   0.621 -0.4569  0.8515 -0.1916
13237TIP3    H261127   1.089   4.033   0.600 -0.2805 -1.0226  0.6081
13238TIP3   OH261128   0.165   5.970  12.272  0.1936  0.3586  0.3856
13238TIP3    H161129   0.146   6.020  12.351  0.1611 -0.1444  0.6992
13238TIP3    H261130   0.203   5.888  12.303  2.0574  0.9654 -0.1960
13239TIP3   OH261131   2.963   0.348   2.568 -0.2478 -0.0216 -0.6848
13239TIP3    H161132   3.002   0.390   2.492 -1.1916  1.7474 -0.2660
13239TIP3    H261133   2.890   0.297   2.533  0.3147 -0.5456 -1.1109
13240TIP3   OH261134   1.285   5.527  16.535 -0.4405 -0.4493 -0.1942
13240TIP3    H161135   1.308   5.587  16.465  1.3857  0.3598  1.0330
13240TIP3    H261136   1.264   5.583  16.610 -0.4148 -1.2988  0.4776
13241TIP3   OH261137   3.854   3.777   4.380 -0.1056 -0.1920  0.1383
13241TIP3    H161138   3.876   3.743   4.293  0.8982  1.6255 -0.3659
13241TIP3    H261139   3.937   3.778   4.428 -0.3896  0.1211  0.6439
13242TIP3   OH261140   1.382   3.110   4.305 -0.2281  0.4332  0.6108
13242TIP3    H161141   1.477   3.106   4.292 -0.1215  1.4895  0.9505
13242TIP3    H261142   1.346   3.099   4.217  0.1881 -0.4170  0.5410
13243TIP3   OH261143   1.949   2.790  12.359  0.0373  0.0031 -0.2588
13243TIP3    H161144   1.890   2.729  12.403 -0.4886  1.2301  0.8015
13243TIP3    H261145   1.959   2.754  12.270  0.4137 -2.0345  0.5572
13244TIP3   OH261146   0.630   6.794   0.958 -0.1116  0.5504 -0.4472
13244TIP3    H161147   0.675   6.831   0.882 -0.5098  0.1271 -0.8962
13244TIP3    H261148   0.691   6.729   0.993 -1.0766 -1.4493 -2.2178
13245TIP3   OH261149   2.622   4.392  14.324 -0.6743  0.3962 -0.0538
13245TIP3    H161150   2.634   4.432  14.238 -1.1500  1.9293  0.5472
13245TIP3    H261151   2.644   4.462  14.386  2.4557 -1.4450  1.1590
13246TIP3   OH261152   1.370   4.614  14.102 -0.0811  0.1053  0.0384
13246TIP3    H161153   1.331   4.690  14.059 -0.6859  0.3544  1.0137
13246TIP3    H261154   1.325   4.539  14.062 -1.7299  0.3932  1.2635
13247TIP3   OH261155   5.757   6.779   2.930 -0.3090 -0.3531 -0.2126
13247TIP3    H161156   5.684   6.721   2.951  1.4654 -3.6871 -2.4073
13247TIP3    H261157   5.835   6.734   2.963  1.1570  1.0131 -1.5755
13248TIP3   OH261158   3.057   2.428   4.401  0.4998 -0.2729  0.0948
13248TIP3    H161159   3.112   2.351   4.416  0.5632 -0.0517  1.0174
13248TIP3    H261160   2.985   2.419   4.463  1.7445  1.6016  1.9609
13249TIP3   OH261161   0.673   4.556  13.989  0.1593 -0.1829 -0.5114
13249TIP3    H161162   0.709   4.546  13.901  1.3600 -0.3071 -0.0323
13249TIP3    H261163   0.747   4.588  14.041 -1.0915  2.0708 -0.0060
13250TIP3   OH261164   2.841   2.716  11.852  0.3378 -0.4516  0.0034
13250TIP3    H161165   2.850   2.625  11.824  0.5642 -0.1230 -1.0526
13250TIP3    H261166   2.747   2.729  11.865  0.4298 -1.2659  1.7438
13251TIP3   OH261167   1.504   2.260  12.810 -0.2837  0.4981 -0.1231
13251TIP3    H161168   1.593   2.229  12.793 -0.1701  1.1695 -0.7562
13251TIP3    H261169   1.450   2.214  12.745  0.3223  4.0931 -3.5528
13252TIP3   OH261170   2.823   5.138  12.816 -0.1630 -0.1264  0.1903
13252TIP3    H161171   2.862   5.085  12.885 -0.3203 -1.0793 -0.4329
13252TIP3    H261172   2.747   5.087  12.787  0.1502  0.0389 -0.9824
13253TIP3   OH261173   5.956   0.719  16.313 -1.1516  0.0219  0.5683
13253TIP3    H161174   5.988   0.734  16.401  0.1507 -1.3798  0.3809
13253TIP3    H261175   5.863   0.701  16.324 -1.6398  2.6240  1.3033
13254TIP3   OH261176   2.516   1.613  15.599  0.5539 -0.0683 -0.2074
13254TIP3    H161177   2.465   1.600  15.519  0.3588 -1.3797  0.1136
13254TIP3    H261178   2.607   1.601  15.571  0.5807  0.7028 -0.4682
13255TIP3   OH261179   6.347   6.177   0.494  0.2911 -0.6231  0.1432
13255TIP3    H161180   6.287   6.249   0.473  1.8507  0.7704  0.3225
13255TIP3    H261181   6.380   6.148   0.409  1.0433  0.1170  0.1721
13256TIP3   OH261182   1.579   5.762   1.449 -0.0509 -0.2255 -0.3418
13256TIP3    H161183   1.548   5.683   1.494 -0.5838 -0.0791 -0.4491
13256TIP3    H261184   1.539   5.834   1.497  1.0714  0.0245  0.2507
13257TIP3   OH261185   3.075   4.705   2.414  0.3304 -0.3876 -0.3439
13257TIP3    H161186   3.114   4.789   2.391  0.6831 -0.7182 -0.9645
13257TIP3    H261187   2.984   4.726   2.436  1.0514  0.5269  2.0555
13258TIP3   OH261188   3.388   0.267   2.869 -0.2017 -0.4557  0.1927
13258TIP3    H161189   3.326   0.230   2.806  0.3947  0.1873 -0.7875
13258TIP3    H261190   3.347   0.251   2.954 -1.3486 -0.7337 -0.3879
13259TIP3   OH261191   3.544   5.042  12.089 -0.0441  0.0865 -0.2937
13259TIP3    H161192   3.470   5.088  12.128 -0.4252  0.2404 -1.1846
13259TIP3    H261193   3.614   5.051  12.154 -0.3779  1.1585 -0.0623
13260TIP3   OH261194   4.652   5.152  16.849 -0.5712  0.1580  0.3018
13260TIP3    H161195   4.584   5.130  16.913 -0.7199 -1.2746 -0.3178
13260TIP3    H261196   4.609   5.141  16.764  0.3697 -0.5586 -0.0943
13261TIP3   OH261197   5.248   3.021   0.808  0.1521  0.1846 -0.0789
13261TIP3    H161198   5.178   3.081   0.833  0.3091  0.2863  0.1232
13261TIP3    H261199   5.206   2.935   0.804  0.2143  0.0888  1.0004
13262TIP3   OH261200   2.238   5.293   1.408 -0.0982 -0.0042  0.0045
13262TIP3    H161201   2.297   5.230   1.366 -0.0472 -0.6697  1.0538
13262TIP3    H261202   2.278   5.378   1.391 -0.5542 -0.1377 -2.0871
13263TIP3   OH261203   5.843   3.434   0.405  0.1725 -0.1961  0.2308
13263TIP3    H161204   5.850   3.520   0.445 -1.3091  0.0985 -0.0729
13263TIP3    H261205   5.904   3.379   0.455  0.0373  0.6814  1.4043
13264TIP3   OH261206   3.479   2.501  13.563 -0.3111 -0.2880  0.4757
13264TIP3    H161207   3.434   2.507  13.648 -0.9002  0.9245  0.1009
13264TIP3    H261208   3.441   2.572  13.511  0.4172 -0.6938 -0.6337
13265TIP3   OH261209   0.936   4.196  17.040  0.5155 -0.4016  0.7958
13265TIP3    H161210   0.930   4.164  17.130  0.9046  1.8147  1.6794
13265TIP3    H261211   0.902   4.285  17.044 -0.4628 -0.6056 -1.5001
13266TIP3   OH261212   6.751   3.659  11.626  0.1197 -0.3791  0.3066
13266TIP3    H161213   6.804   3.691  11.553  1.3447 -0.8925  0.9560
13266TIP3    H261214   6.773   3.567  11.633  0.1024 -0.3062  1.4083
13267TIP3   OH261215   5.914   2.569   5.105 -0.5751  0.1009  0.0923
13267TIP3    H161216   5.862   2.556   5.184 -0.8212 -0.0260 -0.0886
13267TIP3    H261217   5.885   2.499   5.045  1.7936 -1.8066  0.9878
13268TIP3   OH261218   4.510   4.635   4.905  0.1317  0.1752 -0.1495
13268TIP3    H161219   4.533   4.691   4.980 -1.6093  1.1750 -0.3056
13268TIP3    H261220   4.420   4.659   4.884  0.6423  0.1068 -2.7528
13269TIP3   OH261221   3.521   0.697   3.349 -0.4124 -0.6063 -0.1068
13269TIP3    H161222   3.603   0.742   3.332 -0.2077 -1.4363 -1.4811
13269TIP3    H261223   3.454   0.752   3.309 -0.4172 -0.4402  0.1266
13270TIP3   OH261224   2.387   2.404  10.807 -0.8434 -0.1168 -0.3898
13270TIP3    H161225   2.308   2.352  10.799  0.6400 -2.3852 -1.2849
13270TIP3    H261226   2.414   2.394  10.898 -1.9365  1.3049  0.1276
13271TIP3   OH261227   4.957   6.520   4.333 -0.2438 -0.4566  0.3544
13271TIP3    H161228   5.022   6.455   4.309 -0.4070 -0.5642  0.2043
13271TIP3    H261229   4.983   6.549   4.420  0.5659  0.1993 -0.0909
13272TIP3   OH261230   0.964   0.153  11.362  0.3066  0.5280  0.2568
13272TIP3    H161231   0.910   0.170  11.285 -1.1819  0.7355  1.2884
13272TIP3    H261232   1.009   0.236  11.379  1.5370  0.1498 -1.0197
13273TIP3   OH261233   5.041   4.095   5.246 -0.1364 -0.5205  0.1307
13273TIP3    H161234   4.947   4.100   5.227  0.1072  1.0021 -0.8873
13273TIP3    H261235   5.080   4.165   5.193  1.3047  0.3116  2.1338
13274TIP3   OH261236   0.955   4.056  15.272  0.1587 -0.0738  0.2460
13274TIP3    H161237   1.049   4.066  15.288  0.4215 -0.3030 -1.0973
13274TIP3    H261238   0.946   3.971  15.230 -0.4238  0.7209 -1.2968
13275TIP3   OH261239   5.592   2.349  11.901  0.5248 -0.3927 -0.2681
13275TIP3    H161240   5.573   2.427  11.953  0.6644 -1.3095  1.2438
13275TIP3    H261241   5.516   2.338  11.845  0.3804  0.6650 -0.2884
13276TIP3   OH261242   0.579   4.221   4.957  0.2858  0.2082  0.4163
13276TIP3    H161243   0.500   4.223   5.010 -0.6523 -2.4265 -0.6932
13276TIP3    H261244   0.635   4.155   4.999  0.5494 -0.1713 -0.4872
13277TIP3   OH261245   1.045   3.895   4.427  0.0717  0.0620 -0.3234
13277TIP3    H161246   1.080   3.875   4.340  1.1663  1.0594 -0.1344
13277TIP3    H261247   0.984   3.823   4.445  1.1080 -1.0860 -1.2013
13278TIP3   OH261248   0.254   5.244   3.176 -0.3757  0.3347 -0.0620
13278TIP3    H161249   0.169   5.287   3.167 -0.7388  0.0397  1.5417
13278TIP3    H261250   0.247   5.165   3.123 -1.0760  0.3501 -0.0008
13279TIP3   OH261251   1.352   6.529  13.279  0.3489 -0.1913  0.5086
13279TIP3    H161252   1.389   6.536  13.367  1.8337 -1.5821  0.0494
13279TIP3    H261253   1.258   6.514  13.293 -0.0695  2.8521  1.7340
13280TIP3   OH261254   1.282   6.449  16.288 -0.2550 -0.0606 -0.1661
13280TIP3    H161255   1.203   6.397  16.275  0.6388 -1.7604  0.9287
13280TIP3    H261256   1.315   6.422  16.374 -0.4701  3.3439  1.1543
13281TIP3   OH261257   6.164   0.187  15.400 -0.2336  0.2893  0.0958
13281TIP3    H161258   6.167   0.270  15.353  0.4651  1.2334  1.7408
13281TIP3    H261259   6.075   0.184  15.437 -0.3331  0.1845 -0.1471
13282TIP3   OH261260   4.992   4.489   1.519  0.0386  0.7361 -0.8415
13282TIP3    H161261   4.998   4.477   1.424 -0.6512 -0.6147 -0.7409
13282TIP3    H261262   4.912   4.443   1.544  0.0684  1.2944  0.3729
13283TIP3   OH261263   2.016   1.920   2.869 -0.3882  0.4767  0.3123
13283TIP3    H161264   1.980   2.007   2.886 -1.2601  0.5814 -1.7606
13283TIP3    H261265   1.973   1.891   2.788 -1.3479 -2.5962  1.7613
13284TIP3   OH261266   1.819   3.374   6.147  0.2197 -0.4312 -0.4428
13284TIP3    H161267   1.802   3.465   6.169  0.6954 -0.5572  0.5015
13284TIP3    H261268   1.761   3.356   6.073 -0.4403  0.4100 -0.1460
13285TIP3   OH261269   2.034   0.041  14.189  0.5982 -0.3580 -0.4597
13285TIP3    H161270   2.120   0.077  14.211 -0.0913  0.6429  0.7080
13285TIP3    H261271   1.990   0.030  14.273 -0.8000  0.1150 -1.0978
13286TIP3   OH261272   4.992   2.819  17.055  0.4776  0.3777 -0.6392
13286TIP3    H161273   5.009   2.744  16.998  1.7908  1.2165 -1.4003
13286TIP3    H261274   4.917   2.863  17.015 -1.3055 -1.3175  0.6695
13287TIP3   OH261275   0.172   2.485   5.540  0.1335 -0.0246  0.0816
13287TIP3    H161276   0.266   2.490   5.560  0.5943  0.3603 -1.9096
13287TIP3    H261277   0.163   2.534   5.458 -1.3046 -2.4552 -1.3272
13288TIP3   OH261278   2.696   3.281   1.951  0.2107  0.1227  0.8022
13288TIP3    H161279   2.639   3.227   2.006  2.3401  0.4757  3.5809
13288TIP3    H261280   2.739   3.218   1.894 -2.2524 -0.2321 -0.8416
13289TIP3   OH261281   4.846   4.917  12.966 -0.0816 -0.1149  0.0278
13289TIP3    H161282   4.831   4.839  12.913  2.1459 -1.5572  1.3787
13289TIP3    H261283   4.893   4.977  12.907 -0.8312 -0.1932 -0.6790
13290TIP3   OH261284   6.280   5.801  13.425 -0.1249 -0.4087 -0.4144
13290TIP3    H161285   6.202   5.771  13.472 -0.8301 -0.7065 -1.7381
13290TIP3    H261286   6.282   5.896  13.441  0.5140 -0.6992  1.4431
13291TIP3   OH261287   2.058   2.815  14.928 -0.5352 -0.8268  0.0731
13291TIP3    H161288   2.071   2.730  14.885  0.4217 -1.1237  0.9305
13291TIP3    H261289   2.064   2.796  15.021  0.7539  0.3434  0.2534
13292TIP3   OH261290   4.876   3.229   6.157  0.5021  0.7180  0.2756
13292TIP3    H161291   4.876   3.324   6.169  0.8960  0.5228  2.1685
13292TIP3    H261292   4.957   3.211   6.108  1.2689  1.2398  1.3088
13293TIP3   OH261293   2.940   2.653   3.988 -0.3817 -0.2559 -0.5771
13293TIP3    H161294   2.961   2.727   3.931 -3.0364 -0.2237 -1.6876
13293TIP3    H261295   2.987   2.671   4.069  0.8200  1.4754 -1.5923
13294TIP3   OH261296   4.421   1.358  12.085  0.4501 -0.2070 -0.5775
13294TIP3    H161297   4.366   1.425  12.125 -0.0543 -1.4649  0.9757
13294TIP3    H261298   4.399   1.361  11.992 -0.2288  1.1417 -0.3969
13295TIP3   OH261299   3.886   5.503   3.695  0.0437  0.5144 -0.4307
13295TIP3    H161300   3.835   5.515   3.615 -0.8780  0.8663  0.1902
13295TIP3    H261301   3.880   5.410   3.713  1.0274  0.2715 -1.2539
13296TIP3   OH261302   5.481   2.913  15.790 -0.5058 -0.7864  0.3544
13296TIP3    H161303   5.497   2.969  15.866  1.1565  1.5234 -1.5274
13296TIP3    H261304   5.527   2.831  15.810  1.0692  0.2828  1.2990
13297TIP3   OH261305   0.034   4.805  12.024  0.4518  0.3511  0.3349
13297TIP3    H161306  -0.055   4.823  12.054  0.3847  0.4662  0.0717
13297TIP3    H261307   0.083   4.884  12.045  0.1800  0.8217 -0.7282
13298TIP3   OH261308   4.340   1.479   5.449 -0.2488 -0.0747 -0.1008
13298TIP3    H161309   4.333   1.402   5.506 -0.3825 -0.9476 -1.2712
13298TIP3    H261310   4.421   1.522   5.477  0.5464 -1.3899 -0.3344
13299TIP3   OH261311   5.330   2.303   5.252  0.1348 -0.3782 -0.1238
13299TIP3    H161312   5.245   2.313   5.294 -1.4109  0.6754 -3.1407
13299TIP3    H261313   5.350   2.210   5.258 -1.7229 -0.8142 -0.1159
13300TIP3   OH261314   6.532   3.359  12.079  0.1806  0.1082  0.0398
13300TIP3    H161315   6.513   3.289  12.142 -0.2772 -0.5151 -0.7734
13300TIP3    H261316   6.447   3.399  12.061  0.3453  0.4372 -0.0123
13301TIP3   OH261317   3.310   3.436   2.469 -0.8579 -0.0056 -0.2415
13301TIP3    H161318   3.385   3.490   2.445 -1.2813  0.2929 -0.9075
13301TIP3    H261319   3.311   3.363   2.407 -1.2568  0.1267 -0.4080
13302TIP3   OH261320   4.848   4.293  10.800 -0.1397  0.5618 -0.1726
13302TIP3    H161321   4.779   4.324  10.741  0.3026  0.0502 -0.9822
13302TIP3    H261322   4.846   4.354  10.874 -1.3192  0.6763 -0.2726
13303TIP3   OH261323   2.821   6.355  13.815  0.1173 -0.4444  0.2978
13303TIP3    H161324   2.729   6.330  13.826 -0.7012  2.1647  0.0001
13303TIP3    H261325   2.825   6.446  13.842  2.1957  0.1262 -1.6063
13304TIP3   OH261326   3.107   0.358   2.275 -0.6427  0.2459  0.0399
13304TIP3    H161327   3.133   0.438   2.230 -0.0215  0.7221  1.2207
13304TIP3    H261328   3.183   0.301   2.269 -0.5162  0.3573  0.5965
13305TIP3   OH261329   4.743   1.145   4.362 -0.0048  0.4112 -0.2446
13305TIP3    H161330   4.826   1.166   4.405  1.3729 -1.7988 -1.6401
13305TIP3    H261331   4.746   1.050   4.351 -2.4921  0.3546 -0.8613
13306TIP3   OH261332   5.262   5.072   1.362 -0.4167 -0.0862 -0.3554
13306TIP3    H161333   5.187   5.055   1.420  1.5503 -0.2096  2.3620
13306TIP3    H261334   5.283   4.987   1.325 -0.0369 -0.6315  1.0235
13307TIP3   OH261335   6.037   0.811   2.618 -0.1890 -0.6614  0.4555
13307TIP3    H161336   6.055   0.905   2.613  0.9589 -0.8981 -0.2805
13307TIP3    H261337   5.967   0.797   2.554  2.1693 -0.8381 -2.2818
13308TIP3   OH261338   0.231   0.330   5.650 -0.2973 -0.1388 -0.6659
13308TIP3    H161339   0.269   0.246   5.625 -1.6413 -0.6287 -1.1277
13308TIP3    H261340   0.269   0.348   5.736 -2.1635 -2.6702  0.8250
13309TIP3   OH261341   2.728   4.164  16.856  0.4065 -0.1970  0.1213
13309TIP3    H161342   2.700   4.086  16.808 -0.0629 -0.0179  0.0908
13309TIP3    H261343   2.730   4.234  16.790 -0.1798  0.0354  0.3336
13310TIP3   OH261344   4.585   6.436  14.940 -0.1477 -0.0315 -0.3211
13310TIP3    H161345   4.624   6.349  14.932  0.0688 -0.2322  2.1126
13310TIP3    H261346   4.560   6.459  14.851  3.7903 -0.6795 -1.8157
13311TIP3   OH261347   5.177   5.248  14.010 -0.0929 -0.5810 -0.3656
13311TIP3    H161348   5.221   5.260  14.094 -2.5283  0.2897  0.8859
13311TIP3    H261349   5.223   5.175  13.969  1.1035 -1.1180  1.7775
13312TIP3   OH261350   6.180   3.710  14.803  0.4371 -0.0112 -0.6385
13312TIP3    H161351   6.146   3.793  14.838  0.4136  1.1778 -3.2241
13312TIP3    H261352   6.199   3.657  14.881 -1.2328  1.7214  1.0671
13313TIP3   OH261353   1.205   1.143  12.145  0.4500  0.5952  0.2318
13313TIP3    H161354   1.292   1.178  12.163  0.2845  1.0530  0.1629
13313TIP3    H261355   1.177   1.106  12.229  1.0529 -0.3216  0.0332
13314TIP3   OH261356   3.564   4.630  11.953  0.3865  0.1944 -0.0839
13314TIP3    H161357   3.532   4.669  12.035 -0.6074  0.1377 -0.4304
13314TIP3    H261358   3.587   4.705  11.898  0.5012  0.2449  0.0326
13315TIP3   OH261359   3.234   1.398  11.847 -0.6656  0.1287  0.1965
13315TIP3    H161360   3.322   1.421  11.878 -0.4671 -0.6661  0.2474
13315TIP3    H261361   3.175   1.452  11.899 -0.3097 -0.7702  1.5829
13316TIP3   OH261362   5.194   4.663   0.421 -0.2774 -0.9009 -0.3482
13316TIP3    H161363   5.134   4.732   0.449 -1.4520 -1.6168 -0.9874
13316TIP3    H261364   5.186   4.662   0.325  1.8394 -0.0903 -0.5983
13317TIP3   OH261365   2.402   2.538   1.559  0.4409 -0.0564  0.3012
13317TIP3    H161366   2.357   2.523   1.641 -1.2855  0.7119 -0.4566
13317TIP3    H261367   2.376   2.464   1.503  2.2993 -1.0565  0.6679
13318TIP3   OH261368   3.157   0.622   4.664 -0.3763  0.2826  0.0774
13318TIP3    H161369   3.234   0.662   4.706 -0.3173 -0.0054  0.2424
13318TIP3    H261370   3.194   0.570   4.593 -0.3951 -0.0885  0.3365
13319TIP3   OH261371   1.270   2.019  11.902  0.5011 -0.5370  0.0660
13319TIP3    H161372   1.317   2.087  11.854  0.5112 -1.4954 -1.3578
13319TIP3    H261373   1.178   2.044  11.894  0.6400  1.6397  3.3190
13320TIP3   OH261374   4.923   0.101  13.690 -0.5369  0.5116 -0.2470
13320TIP3    H161375   4.983   0.142  13.628  1.4385  0.5502  1.5654
13320TIP3    H261376   4.934   0.007  13.676  0.3538  0.5045  0.3700
13321TIP3   OH261377   3.583   2.254  12.594 -0.6619 -0.0064 -0.9099
13321TIP3    H161378   3.500   2.279  12.555 -1.6002 -1.0114  0.3775
13321TIP3    H261379   3.565   2.247  12.688  0.1964 -2.7421 -0.8577
13322TIP3   OH261380   6.683   5.094  14.285 -0.3245  0.1028 -0.4764
13322TIP3    H161381   6.603   5.137  14.254  0.0994  0.1262 -1.5998
13322TIP3    H261382   6.659   5.001  14.289  0.1356 -0.1939 -2.8530
13323TIP3   OH261383   5.772   6.490  16.889  0.3843 -0.6532  0.1023
13323TIP3    H161384   5.776   6.574  16.843 -0.4782 -0.5115  0.2661
13323TIP3    H261385   5.820   6.429  16.833  2.9045  0.4045  1.0155
13324TIP3   OH261386   0.829   4.817  17.064  0.4468 -0.1893 -0.3170
13324TIP3    H161387   0.841   4.791  16.973  1.7096 -2.2134  0.3542
13324TIP3    H261388   0.837   4.735  17.113 -2.4189  0.5052  1.4864
13325TIP3   OH261389   1.667   0.567  14.542  0.1486  0.1416  0.3853
13325TIP3    H161390   1.601   0.558  14.611  1.5009 -0.9859  1.5737
13325TIP3    H261391   1.663   0.484  14.494 -0.4262  0.7208 -0.6152
13326TIP3   OH261392   1.237   1.052  16.153 -0.0564  0.0422  0.7541
13326TIP3    H161393   1.307   1.077  16.214  0.4754 -0.9486  0.5755
13326TIP3    H261394   1.157   1.058  16.205 -0.0688  2.6119  0.5745
13327TIP3   OH261395   4.173   0.735  13.174 -0.1230 -0.3422 -0.1330
13327TIP3    H161396   4.224   0.700  13.247  1.6702  0.3068 -0.9920
13327TIP3    H261397   4.098   0.677  13.167  1.3417 -2.4068  0.1920
13328TIP3   OH261398   5.713   5.785  13.547  0.7628 -0.7328 -0.3723
13328TIP3    H161399   5.666   5.864  13.571  2.6234  0.2479  0.2101
13328TIP3    H261400   5.721   5.789  13.452 -1.1106 -1.4226 -0.6066
13329TIP3   OH261401   3.539   5.056  11.280 -0.4853 -0.0502 -0.4159
13329TIP3    H161402   3.512   5.148  11.290  1.9641  0.6354  0.7137
13329TIP3    H261403   3.614   5.060  11.221  2.6784 -0.5892  3.1886
13330TIP3   OH261404   3.947   0.760   2.640  1.1220 -0.1610  0.2659
13330TIP3    H161405   3.989   0.691   2.692  2.2559  0.5953  0.3921
13330TIP3    H261406   3.969   0.841   2.686  0.7403  0.3852 -0.4963
13331TIP3   OH261407   2.786   3.627  14.980  0.0745  0.4679 -0.2478
13331TIP3    H161408   2.844   3.599  15.051  0.8591  1.8484 -0.2955
13331TIP3    H261409   2.786   3.554  14.919  0.6396 -0.1230  0.4337
13332TIP3   OH261410   3.640   0.588  14.783 -0.0399  0.0000 -0.1675
13332TIP3    H161411   3.680   0.543  14.857 -1.4218  1.8470  1.8310
13332TIP3    H261412   3.552   0.551  14.777  0.2221 -0.4945 -1.2652
13333TIP3   OH261413   5.282   5.796  14.698  0.2769 -0.2991  0.3576
13333TIP3    H161414   5.253   5.848  14.623  0.6858  1.1907  1.2019
13333TIP3    H261415   5.377   5.800  14.695  0.2936  0.3323  1.3193
13334TIP3   OH261416   3.450   5.065  17.017  0.3688 -0.2901 -0.7604
13334TIP3    H161417   3.387   5.059  16.945 -1.8840  0.2950  1.0715
13334TIP3    H261418   3.398   5.059  17.096  2.5384  1.0314  0.8959
13335TIP3   OH261419   0.043   5.289  15.807 -0.1209  0.3259 -0.4823
13335TIP3    H161420   0.052   5.360  15.871  2.6201 -0.9887  0.7812
13335TIP3    H261421   0.037   5.333  15.722  3.5453  2.1896  0.0211
13336TIP3   OH261422   4.767   1.305   3.517  0.5518 -0.1246 -0.0049
13336TIP3    H161423   4.765   1.352   3.434  1.4386  1.0434  0.5985
13336TIP3    H261424   4.677   1.277   3.531  0.0586  1.0882 -0.5756
13337TIP3   OH261425   6.380   3.113   3.516  0.3000 -0.2786  0.0816
13337TIP3    H161426   6.429   3.045   3.562  0.1219 -1.2525 -1.1062
13337TIP3    H261427   6.339   3.164   3.585 -0.5216 -2.1220  1.0189
13338TIP3   OH261428   4.119   5.138   2.869 -0.2998 -0.0481 -0.0344
13338TIP3    H161429   4.189   5.203   2.868  0.4026 -0.7659  0.5526
13338TIP3    H261430   4.073   5.154   2.952 -0.3081 -0.1090 -0.0270
13339TIP3   OH261431   4.476   3.066   4.148 -0.7220  0.4699  0.2957
13339TIP3    H161432   4.479   3.157   4.176 -1.0596  0.4067  0.5432
13339TIP3    H261433   4.448   3.018   4.226 -2.4623  0.3915 -0.3222
13340TIP3   OH261434   1.726   0.369   4.377  0.3272  0.2852  0.2197
13340TIP3    H161435   1.792   0.299   4.381  0.5112  0.2831 -1.9681
13340TIP3    H261436   1.643   0.322   4.376  0.4000  0.1550  0.1663
13341TIP3   OH261437   3.489   2.169  13.899 -0.3606 -0.1084  0.1602
13341TIP3    H161438   3.478   2.125  13.815 -1.4571  0.7077 -0.1499
13341TIP3    H261439   3.552   2.239  13.882 -1.3048  0.6699 -0.2518
13342TIP3   OH261440   0.411   4.588  12.970  0.2148  1.0593  0.0605
13342TIP3    H161441   0.372   4.665  13.011 -2.0392  0.2662 -0.4334
13342TIP3    H261442   0.336   4.537  12.940  1.3783 -3.0031  3.2549
13343TIP3   OH261443   4.273   2.829  11.357  0.2634 -0.6121  0.1368
13343TIP3    H161444   4.328   2.763  11.315 -1.2474 -1.3529 -0.7468
13343TIP3    H261445   4.335   2.892  11.394  1.7823  0.7649 -4.1671
13344TIP3   OH261446   2.258   3.431   3.851  0.1607  1.0681 -0.1058
13344TIP3    H161447   2.308   3.439   3.933  2.0341 -0.8906 -0.9504
13344TIP3    H261448   2.289   3.505   3.798 -0.4343  1.8572  0.6184
13345TIP3   OH261449   1.377   3.328   3.487 -0.4084 -0.3146  0.0690
13345TIP3    H161450   1.458   3.367   3.456  1.6936 -2.6353  2.1852
13345TIP3    H261451   1.355   3.262   3.421 -0.6266  0.3381 -0.5208
13346TIP3   OH261452   6.193   2.299  16.251 -0.3588  0.6412  0.1404
13346TIP3    H161453   6.201   2.394  16.250 -1.8842  0.8124  1.5542
13346TIP3    H261454   6.115   2.280  16.198  0.0548  0.1340 -0.3127
13347TIP3   OH261455   2.351   1.158  15.194  0.2281 -0.0951  0.2381
13347TIP3    H161456   2.372   1.069  15.221 -1.7593 -0.6990 -0.0602
13347TIP3    H261457   2.357   1.210  15.274 -0.0782 -0.7769  0.7075
13348TIP3   OH261458   0.197   5.931   3.531  1.0800  0.0795 -0.7073
13348TIP3    H161459   0.102   5.924   3.541  1.0501 -0.9710 -1.5986
13348TIP3    H261460   0.217   6.020   3.560 -0.0779  0.0895  0.1459
13349TIP3   OH261461   4.073   3.191   0.914 -0.3968 -0.0835  0.0532
13349TIP3    H161462   4.135   3.173   0.984  1.2328  1.6883 -0.8248
13349TIP3    H261463   4.105   3.139   0.840 -0.1976  0.4974 -0.2754
13350TIP3   OH261464   6.341   1.594  14.655 -0.2371 -0.1026  0.0173
13350TIP3    H161465   6.420   1.588  14.600  0.1465  0.8035  0.4478
13350TIP3    H261466   6.317   1.686  14.651 -0.2895 -0.0541  1.2458
13351TIP3   OH261467   5.356   4.447   6.335 -0.3166  0.2301 -0.6564
13351TIP3    H161468   5.376   4.539   6.317  1.6923  0.0676  0.4630
13351TIP3    H261469   5.394   4.430   6.421 -0.8765 -1.5866 -0.7146
13352TIP3   OH261470   0.716   1.993  16.050 -0.4616  0.5982 -0.1276
13352TIP3    H161471   0.701   1.898  16.053 -0.7575  0.6287 -0.5689
13352TIP3    H261472   0.734   2.017  16.141  0.2280  0.0222 -0.1017
13353TIP3   OH261473   4.049   5.564  16.398  0.1378  0.9362 -1.0357
13353TIP3    H161474   4.105   5.492  16.371 -1.2311  0.1266 -1.8685
13353TIP3    H261475   4.109   5.633  16.427  1.4841 -0.2972 -0.8271
13354TIP3   OH261476   6.656   5.453  15.200  0.6888 -0.4577 -0.1327
13354TIP3    H161477   6.737   5.405  15.218  0.9050  0.2426  0.8111
13354TIP3    H261478   6.606   5.395  15.143  1.0675 -1.7013  0.7593
13355TIP3   OH261479   2.406   4.082   1.455 -0.1062 -0.3149 -0.0611
13355TIP3    H161480   2.453   4.158   1.422  0.6247 -0.1686  1.2360
13355TIP3    H261481   2.388   4.029   1.378  1.4767  0.0397 -0.6985
13356TIP3   OH261482   6.022   4.067  15.355 -0.0226 -0.2029  0.2661
13356TIP3    H161483   6.056   4.156  15.357 -0.2724 -0.1021  2.0155
13356TIP3    H261484   5.927   4.077  15.366 -0.0166 -0.6853  0.7947
13357TIP3   OH261485   2.104   4.837   3.407  0.3260 -0.7224  0.7017
13357TIP3    H161486   2.165   4.907   3.429 -0.7875 -0.2313  2.4076
13357TIP3    H261487   2.143   4.758   3.446  0.4839 -0.6363  0.7175
13358TIP3   OH261488   5.943   1.905   4.721  0.0051 -0.3114 -0.8893
13358TIP3    H161489   5.901   1.927   4.638  0.1645 -0.0238 -0.8967
13358TIP3    H261490   5.982   1.819   4.706  1.3701  0.3981 -1.6328
13359TIP3   OH261491   5.603   0.379  16.450 -0.6128  0.2620 -0.2087
13359TIP3    H161492   5.658   0.350  16.377  1.0244  0.2277  1.0030
13359TIP3    H261493   5.582   0.298  16.497 -0.0419  0.4836  0.4424
13360TIP3   OH261494   2.012   1.579  12.900  0.4176 -0.5409 -0.3220
13360TIP3    H161495   1.986   1.622  12.982 -1.6388 -1.2351 -0.5565
13360TIP3    H261496   2.103   1.605  12.888  0.0002  1.7240  0.8235
13361TIP3   OH261497   1.702   4.652   6.686 -0.0965 -0.1641 -0.1658
13361TIP3    H161498   1.636   4.720   6.698  0.6841  0.7008 -0.6793
13361TIP3    H261499   1.743   4.672   6.602 -0.1238 -1.5118 -0.5334
13362TIP3   OH261500   1.505   2.505  13.559 -0.2439  0.2547  0.0365
13362TIP3    H161501   1.570   2.473  13.496 -1.1644  0.7843 -1.2204
13362TIP3    H261502   1.431   2.531  13.505 -1.3878 -0.0429  1.4215
13363TIP3   OH261503   1.461   1.463  15.541  0.0097 -1.0643  0.4393
13363TIP3    H161504   1.548   1.436  15.513 -0.0276 -1.1628  0.4171
13363TIP3    H261505   1.406   1.454  15.463  0.1931 -0.0261  0.1849
13364TIP3   OH261506   5.444   5.187  13.190  0.1872 -0.0192  0.7048
13364TIP3    H161507   5.393   5.133  13.130  1.3258 -1.3485  0.8925
13364TIP3    H261508   5.531   5.149  13.189  0.4263  0.3750  2.6424
13365TIP3   OH261509   1.857   6.180  15.690  0.0122 -0.4687 -0.6661
13365TIP3    H161510   1.946   6.163  15.721 -1.0001 -1.1866  2.1798
13365TIP3    H261511   1.849   6.127  15.610  2.0017 -0.6855 -0.7772
13366TIP3   OH261512   2.900   1.920   3.404 -0.4561 -0.4027  0.1894
13366TIP3    H161513   2.933   1.952   3.320 -1.1228 -2.2742 -0.8469
13366TIP3    H261514   2.971   1.938   3.466  0.0585  0.9878 -0.7573
13367TIP3   OH261515   4.608   3.056  15.512  0.5543  0.2863  0.3436
13367TIP3    H161516   4.647   3.142  15.527 -1.1845  1.2470 -0.2821
13367TIP3    H261517   4.598   3.051  15.417 -0.0904 -0.2472  0.4336
13368TIP3   OH261518   3.691   4.736   2.198 -0.5642  0.3783 -0.0510
13368TIP3    H161519   3.725   4.801   2.261 -0.4338  0.5171 -0.2605
13368TIP3    H261520   3.717   4.771   2.113 -0.8140  0.2339 -0.1867
13369TIP3   OH261521   6.119   5.056   3.434 -0.2059 -0.3300 -0.5101
13369TIP3    H161522   6.129   5.101   3.518  0.7865  0.0153 -0.8007
13369TIP3    H261523   6.048   4.994   3.449 -0.1994 -0.1137  0.5207
13370TIP3   OH261524   5.261   2.595  14.147  0.9465  0.3431 -0.4776
13370TIP3    H161525   5.246   2.583  14.053  0.9216 -0.4867 -0.3713
13370TIP3    H261526   5.302   2.682  14.153 -1.2331  1.4692 -1.0158
13371TIP3   OH261527   1.254   6.180   1.846  0.7110 -0.0655 -0.6575
13371TIP3    H161528   1.235   6.133   1.764 -0.2208 -0.7111 -0.0917
13371TIP3    H261529   1.198   6.138   1.911 -0.4089  2.0544 -0.1776
13372TIP3   OH261530   5.968   3.998   1.175  0.0949 -0.7548 -0.2354
13372TIP3    H161531   5.886   4.045   1.161  0.8234  1.7284  2.6202
13372TIP3    H261532   6.008   3.993   1.089 -1.2932  1.5491 -1.1017
13373TIP3   OH261533   6.175   6.065   0.710  0.1117  0.1319  0.6663
13373TIP3    H161534   6.177   6.104   0.797 -1.3286  0.0984  0.7359
13373TIP3    H261535   6.239   6.115   0.659  1.2348 -0.0936  1.8299
13374TIP3   OH261536   0.888   5.611   0.588  0.1308 -0.1124 -0.7556
13374TIP3    H161537   0.942   5.532   0.593  0.4959  0.1593 -0.3354
13374TIP3    H261538   0.816   5.586   0.530  0.4584 -0.6241 -0.9592
13375TIP3   OH261539   6.625   3.649  12.829 -0.1191 -0.0447 -0.0844
13375TIP3    H161540   6.586   3.572  12.787 -0.5371  0.3209 -0.3656
13375TIP3    H261541   6.716   3.649  12.799 -0.1252 -0.4021 -0.1157
13376TIP3   OH261542   4.627   3.699  16.418  0.2134 -0.1860  0.2526
13376TIP3    H161543   4.576   3.768  16.377 -0.3132  0.4446  1.8957
13376TIP3    H261544   4.617   3.714  16.512  1.4626 -1.4968  0.6328
13377TIP3   OH261545   5.735   3.124  10.972  0.0774  0.4111 -0.2098
13377TIP3    H161546   5.684   3.043  10.963  0.7506 -0.0093 -0.3605
13377TIP3    H261547   5.670   3.191  10.994 -0.5344 -0.1095 -0.3808
13378TIP3   OH261548   2.806   5.100   4.125  0.3354  0.2793 -0.0636
13378TIP3    H161549   2.868   5.031   4.102  0.6178  0.1975  0.8613
13378TIP3    H261550   2.799   5.094   4.221 -0.3142  0.9556 -0.0607
13379TIP3   OH261551   5.825   5.806  12.226 -0.8750  0.2434  0.3167
13379TIP3    H161552   5.831   5.897  12.197  1.0206  0.3453  0.8844
13379TIP3    H261553   5.731   5.786  12.226 -1.2026  1.3958 -2.2174
13380TIP3   OH261554   1.338   2.599  13.348  0.2576 -0.1163 -0.1318
13380TIP3    H161555   1.387   2.663  13.296 -0.0130  0.8584  0.7766
13380TIP3    H261556   1.319   2.528  13.287  1.0154  0.4375 -1.0312
13381TIP3   OH261557   2.041   3.792  16.428 -0.1237  0.0522 -0.1428
13381TIP3    H161558   2.104   3.720  16.430 -0.8013 -0.7104 -2.7322
13381TIP3    H261559   2.086   3.864  16.472  2.6667 -0.4101 -1.9645
13382TIP3   OH261560   4.441   2.249   3.307 -0.2215  0.2755 -0.2364
13382TIP3    H161561   4.425   2.201   3.388 -1.2400 -1.3889 -1.3674
13382TIP3    H261562   4.536   2.245   3.295 -0.2868 -1.7356 -0.4205
13383TIP3   OH261563   3.356   5.478  16.160 -0.1987  0.0259  0.3395
13383TIP3    H161564   3.362   5.469  16.255 -0.9405  1.3046  0.5279
13383TIP3    H261565   3.276   5.529  16.145 -0.5144 -0.8154 -1.0187
13384TIP3   OH261566   6.444   1.917  16.004  0.4541  0.9186 -0.1057
13384TIP3    H161567   6.503   1.980  16.045  0.9152  0.3425  0.1355
13384TIP3    H261568   6.501   1.850  15.968 -0.0374 -1.4101  2.9636
13385TIP3   OH261569   5.854   3.036  13.028  0.6055 -0.1244 -0.3306
13385TIP3    H161570   5.892   2.990  13.102  0.3473 -0.5326 -0.4503
13385TIP3    H261571   5.769   3.068  13.060  0.9936  0.7086 -0.0915
13386TIP3   OH261572   1.037   4.161  12.338 -0.0359  0.0659 -0.6622
13386TIP3    H161573   1.125   4.147  12.372 -0.9562 -2.5535  0.9354
13386TIP3    H261574   1.030   4.099  12.265 -1.4500 -2.1075  1.1676
13387TIP3   OH261575   3.780   1.244   1.468  0.0383 -0.6014 -0.3481
13387TIP3    H161576   3.760   1.298   1.391 -0.5720  1.4522  1.1538
13387TIP3    H261577   3.735   1.161   1.453 -1.5338  0.4030 -1.4235
13388TIP3   OH261578   5.488   3.289  11.356 -0.4423  0.0404  0.4656
13388TIP3    H161579   5.461   3.236  11.282 -1.9203  0.2551  0.8302
13388TIP3    H261580   5.423   3.359  11.362 -2.1541 -1.5652  3.6655
13389TIP3   OH261581   4.007   6.624   6.060 -0.6482 -0.2438  0.0271
13389TIP3    H161582   4.056   6.599   6.138  1.6292  1.0249 -0.9005
13389TIP3    H261583   3.949   6.693   6.090  1.1841  1.2080  0.4031
13390TIP3   OH261584   4.456   2.759  12.983 -0.4788 -0.3819 -0.3710
13390TIP3    H161585   4.542   2.764  12.940 -0.2323 -2.3665 -0.1861
13390TIP3    H261586   4.424   2.849  12.981  1.0364  0.1899 -1.5996
13391TIP3   OH261587   1.538   6.759  13.273  0.3307  0.5748  0.2776
13391TIP3    H161588   1.620   6.754  13.321 -0.1675 -0.6301  1.0523
13391TIP3    H261589   1.505   6.669  13.271  0.2356  0.6033 -2.2061
13392TIP3   OH261590   5.440   4.748   1.659 -0.0418  0.1303  0.7279
13392TIP3    H161591   5.443   4.821   1.721 -1.9234  0.4486  0.5008
13392TIP3    H261592   5.454   4.789   1.574 -1.2365  0.2562  0.5870
13393TIP3   OH261593   3.170   0.440  15.764  0.2681  0.1595 -0.0377
13393TIP3    H161594   3.198   0.528  15.787  1.3084 -0.3469  0.7559
13393TIP3    H261595   3.252   0.392  15.750 -0.2080 -1.1091  1.2516
13394TIP3   OH261596   1.369   4.653  14.377  0.0421  0.3912  0.6882
13394TIP3    H161597   1.294   4.616  14.423  0.1514  1.0972  1.4569
13394TIP3    H261598   1.349   4.642  14.284  0.6766 -2.7942  0.8360
13395TIP3   OH261599   5.399   1.006   2.740  0.0113  0.8301 -0.2414
13395TIP3    H161600   5.489   0.985   2.763 -0.3628  0.2271  0.7352
13395TIP3    H261601   5.366   1.055   2.816 -1.5046 -1.8994  0.9852
13396TIP3   OH261602   4.138   5.122   3.713 -0.0351 -0.2291 -0.2735
13396TIP3    H161603   4.194   5.140   3.788 -1.4212 -1.5203  1.1616
13396TIP3    H261604   4.052   5.155   3.739 -0.9413 -2.2034 -0.5209
13397TIP3   OH261605   3.062   0.521   3.030 -0.2413  0.2526 -0.6534
13397TIP3    H161606   3.001   0.516   2.957 -0.9733  0.0018 -0.0413
13397TIP3    H261607   3.072   0.615   3.046  1.5534  0.4194 -2.3744
13398TIP3   OH261608   4.198   4.659   0.742 -0.0376 -0.0389 -0.6309
13398TIP3    H161609   4.144   4.586   0.774  0.5339 -0.0812  0.2709
13398TIP3    H261610   4.148   4.737   0.764 -0.6042 -0.1382 -1.5064
13399TIP3   OH261611   4.751   2.729  15.781  0.7202  0.6702 -0.4484
13399TIP3    H161612   4.841   2.719  15.748 -0.0145 -1.7245 -1.9828
13399TIP3    H261613   4.717   2.639  15.785 -1.4545  1.4760  0.5819
13400TIP3   OH261614   2.749   0.703   1.700 -0.0110  0.3081  0.0518
13400TIP3    H161615   2.682   0.663   1.755  1.0615 -1.7802 -0.0573
13400TIP3    H261616   2.722   0.685   1.610 -0.3385  1.3061 -0.0701
13401TIP3   OH261617   0.324   4.960  11.890  0.0856  0.3927 -0.1302
13401TIP3    H161618   0.417   4.977  11.875 -0.2974  1.9030 -1.0488
13401TIP3    H261619   0.292   4.929  11.806 -0.1360 -0.6828  0.3455
13402TIP3   OH261620   5.791   5.920  16.191  0.2401 -0.0623 -0.1243
13402TIP3    H161621   5.718   5.980  16.211 -0.7716 -1.2886 -0.0455
13402TIP3    H261622   5.773   5.843  16.244  0.0487 -1.5146 -2.2081
13403TIP3   OH261623   4.030   3.528  16.328  0.3229  0.0007  0.2075
13403TIP3    H161624   4.010   3.486  16.412  1.2512 -0.3510  0.2658
13403TIP3    H261625   3.979   3.478  16.264 -0.2640  0.1673  0.5352
13404TIP3   OH261626   3.452   5.941  14.603 -0.0960 -0.5310  0.3339
13404TIP3    H161627   3.436   5.940  14.698 -0.0633 -0.8271  0.3391
13404TIP3    H261628   3.365   5.935  14.564 -0.0765 -1.0149  0.3532
13405TIP3   OH261629   2.424   0.543  12.677  0.1111  0.0003  0.5960
13405TIP3    H161630   2.366   0.596  12.622 -0.2685 -1.6513 -0.6986
13405TIP3    H261631   2.372   0.466  12.698  1.4660 -1.0387  0.2801
13406TIP3   OH261632   3.846   2.934   0.284 -0.0074  0.4469 -0.4886
13406TIP3    H161633   3.793   2.864   0.323 -1.9426  1.9192 -0.3047
13406TIP3    H261634   3.912   2.955   0.350 -2.1190  1.6757  1.3779
13407TIP3   OH261635   5.945   1.979  13.369 -0.2683  0.6875  0.1630
13407TIP3    H161636   5.958   1.898  13.321  1.4124  0.9466  0.1135
13407TIP3    H261637   5.931   1.952  13.460 -0.5853  0.3201  0.0048
13408TIP3   OH261638   2.090   5.787   3.468  0.0011 -0.0249 -0.2113
13408TIP3    H161639   2.105   5.877   3.440  0.6067 -0.9115 -3.0261
13408TIP3    H261640   2.105   5.788   3.563 -1.4602  3.0822  0.0710
13409TIP3   OH261641   2.287   5.019   0.205 -0.1788 -0.2910 -0.5305
13409TIP3    H161642   2.262   5.071   0.128 -0.5217  1.6498  0.8239
13409TIP3    H261643   2.295   5.083   0.275  0.2936 -1.9953  1.0342
13410TIP3   OH261644   3.522   4.680   6.027 -0.4781  0.1348 -0.2006
13410TIP3    H161645   3.611   4.650   6.044 -0.5826  0.3870  0.8169
13410TIP3    H261646   3.476   4.668   6.110 -1.3221  0.2717 -0.6364
13411TIP3   OH261647   5.500   5.794  14.178  0.2932 -0.1348 -0.4216
13411TIP3    H161648   5.535   5.734  14.112 -0.0476  0.8586 -1.5487
13411TIP3    H261649   5.412   5.762  14.195  0.4626 -0.5285 -0.2680
13412TIP3   OH261650   0.189   4.386   3.790  0.3967 -0.2571  0.1657
13412TIP3    H161651   0.190   4.479   3.768  1.1354 -0.0795  0.8920
13412TIP3    H261652   0.197   4.384   3.885 -2.2217 -1.0133  0.4427
13413TIP3   OH261653   0.594   4.489   3.733  0.0248  0.2820 -0.1205
13413TIP3    H161654   0.557   4.572   3.761  0.0403 -0.3096  1.7846
13413TIP3    H261655   0.567   4.426   3.801  1.8012 -0.8197 -0.3759
13414TIP3   OH261656   6.478   1.865   1.798  0.2739 -0.2699  0.0888
13414TIP3    H161657   6.418   1.810   1.849  0.1019 -0.5701 -0.4290
13414TIP3    H261658   6.519   1.923   1.862  0.6763 -1.2052  0.6898
13415TIP3   OH261659   4.933   1.380  17.087  0.0009 -0.4067 -0.4834
13415TIP3    H161660   5.024   1.381  17.117  0.4290  0.6950 -1.7207
13415TIP3    H261661   4.920   1.467  17.049 -1.7552 -0.3606  0.1755
13416TIP3   OH261662   3.612   4.761   0.796 -0.3679  0.1902  0.3472
13416TIP3    H161663   3.677   4.690   0.795 -0.4718  0.0943  0.0064
13416TIP3    H261664   3.529   4.717   0.778 -0.5974  0.2503  1.2278
13417TIP3   OH261665   2.955   5.419  13.050  0.6816 -0.1108  0.1333
13417TIP3    H161666   2.893   5.412  12.977  1.8516  1.6456 -1.0906
13417TIP3    H261667   2.907   5.382  13.125 -1.4777  0.2750 -0.9668
13418TIP3   OH261668   4.604   2.635  16.835  0.3244  0.0368 -0.1244
13418TIP3    H161669   4.526   2.637  16.890 -1.5014  0.8810 -2.5827
13418TIP3    H261670   4.659   2.706  16.868 -2.6553  3.4637 -1.8461
13419TIP3   OH261671   2.560   5.186  13.981 -0.0489 -0.2174 -0.1176
13419TIP3    H161672   2.474   5.183  14.023 -0.6738 -0.9921 -1.3707
13419TIP3    H261673   2.558   5.265  13.928  0.4639  0.3755  0.7295
13420TIP3   OH261674   0.484   4.304   2.704 -0.1602 -0.2139  0.6281
13420TIP3    H161675   0.578   4.322   2.703  0.2077 -1.9303 -0.5229
13420TIP3    H261676   0.474   4.237   2.773 -0.5814  0.1488  0.9220
13421TIP3   OH261677   1.008   5.479  11.219 -0.4358 -0.0564 -0.2068
13421TIP3    H161678   1.030   5.471  11.126 -1.0923 -1.8476 -0.2426
13421TIP3    H261679   1.090   5.461  11.265 -0.4227 -0.5597 -0.4236
13422TIP3   OH261680   6.102   3.390  13.994  0.1027  0.2006 -0.1260
13422TIP3    H161681   6.017   3.433  13.986 -0.5977 -0.9857  0.6762
13422TIP3    H261682   6.158   3.436  13.931 -1.5523 -0.0068 -1.8468
13423TIP3   OH261683   4.572   0.614   0.777  0.0304  0.1131  0.1780
13423TIP3    H161684   4.613   0.627   0.863  1.2181 -0.9744 -0.1906
13423TIP3    H261685   4.491   0.568   0.796 -0.6641  1.5447  0.8554
13424TIP3   OH261686   2.921   3.223  12.554 -0.0179 -0.5397 -0.4147
13424TIP3    H161687   2.832   3.208  12.586  0.0850 -0.1041  0.0948
13424TIP3    H261688   2.970   3.145  12.581  0.0143 -0.2767  0.3063
13425TIP3   OH261689   0.277   5.118  13.210 -0.2971  0.7844 -0.4805
13425TIP3    H161690   0.341   5.189  13.218  1.3145 -0.6062 -0.5040
13425TIP3    H261691   0.199   5.151  13.256  1.5536  1.2601  2.6045
13426TIP3   OH261692   4.316   2.999  12.850  0.4263  0.2552 -0.1163
13426TIP3    H161693   4.354   3.082  12.880  0.6186 -0.0771  0.5826
13426TIP3    H261694   4.335   2.997  12.756  2.0853  0.1517  0.1855
13427TIP3   OH261695   2.743   1.781  13.623  0.7610 -1.0312  0.0746
13427TIP3    H161696   2.704   1.774  13.536  1.0665  2.1107 -0.4161
13427TIP3    H261697   2.668   1.777  13.683  0.3332 -1.0804 -0.4548
13428TIP3   OH261698   2.526   0.679  13.633 -0.2504 -0.3612 -0.2644
13428TIP3    H161699   2.495   0.621  13.564  0.4272  0.4233 -1.2550
13428TIP3    H261700   2.563   0.754  13.587 -0.7474  0.6876  0.9783
13429TIP3   OH261701   0.556   5.081  15.250 -0.0070 -0.0712  0.2497
13429TIP3    H161702   0.513   5.107  15.169  0.4974 -0.0356 -0.0032
13429TIP3    H261703   0.484   5.048  15.305 -0.1575 -1.4512 -0.7332
13430TIP3   OH261704   1.010   1.136  15.126  0.1010  0.2503  0.1768
13430TIP3    H161705   0.997   1.225  15.093 -0.1348  0.1500 -0.0027
13430TIP3    H261706   0.922   1.100  15.135  0.2250 -0.3901 -0.9264
13431TIP3   OH261707   5.483   5.125  14.735 -0.2621 -0.3453  0.0321
13431TIP3    H161708   5.487   5.059  14.666  1.4119  0.8685 -1.1217
13431TIP3    H261709   5.530   5.085  14.808  0.3098 -0.6197 -0.4768
13432TIP3   OH261710   6.596   1.950  11.632 -0.2430  0.0017  0.5425
13432TIP3    H161711   6.526   2.015  11.637 -1.2003 -0.7639 -1.4797
13432TIP3    H261712   6.571   1.895  11.558  1.8070 -1.1647  0.6558
13433TIP3   OH261713   2.847   3.907  14.416  0.3637 -0.5416 -0.0502
13433TIP3    H161714   2.940   3.884  14.419  0.8069  1.0048 -0.8252
13433TIP3    H261715   2.832   3.956  14.497  0.3885 -0.2155 -0.2432
13434TIP3   OH261716   4.141   2.366  11.216 -0.1215 -0.4190  0.8866
13434TIP3    H161717   4.131   2.460  11.203  0.5353 -0.2314  1.6611
13434TIP3    H261718   4.123   2.328  11.130 -0.3097  0.4148  0.5460
13435TIP3   OH261719   6.323   5.384   3.562  0.5165 -0.2964  0.0675
13435TIP3    H161720   6.405   5.343   3.589  0.0147 -1.6730 -0.4633
13435TIP3    H261721   6.327   5.386   3.467 -0.0300 -0.2991  0.0416
13436TIP3   OH261722   0.769   5.440  11.324 -0.5862  0.2420  0.5142
13436TIP3    H161723   0.721   5.405  11.249 -1.2968  0.0461  1.0429
13436TIP3    H261724   0.861   5.430  11.301 -0.7913  1.2027 -0.7835
13437TIP3   OH261725   3.870   2.817   5.781  0.2771 -0.0635 -0.7424
13437TIP3    H161726   3.802   2.754   5.805 -0.6471  1.3572  0.5572
13437TIP3    H261727   3.939   2.805   5.847 -0.1469  0.6376 -0.1611
13438TIP3   OH261728   2.999   1.086   1.482 -0.3712  0.4513 -0.3957
13438TIP3    H161729   3.084   1.112   1.448 -0.9030  1.9207 -0.6818
13438TIP3    H261730   3.003   1.107   1.576 -0.7985  1.6538 -0.6255
13439TIP3   OH261731   6.051   6.103  12.213  0.4717  0.8549  0.7603
13439TIP3    H161732   6.125   6.076  12.158 -0.4546  0.0825 -0.1270
13439TIP3    H261733   6.088   6.105  12.302  1.9234  1.9305  0.1630
13440TIP3   OH261734   2.112   3.030   4.934 -0.2938 -0.1430 -0.1382
13440TIP3    H161735   2.119   3.055   4.842  0.9214 -0.5951 -0.1867
13440TIP3    H261736   2.190   2.976   4.950 -1.5980 -1.9085  0.5718
13441TIP3   OH261737   0.244   4.812   5.457  0.2524 -0.6670 -0.0169
13441TIP3    H161738   0.318   4.763   5.493  0.8300 -0.1241 -0.4529
13441TIP3    H261739   0.223   4.877   5.524 -0.7409 -1.6945  0.7203
13442TIP3   OH261740   4.152   1.974  14.246 -0.1998 -0.0882  0.1285
13442TIP3    H161741   4.140   2.065  14.272  0.4105 -0.1467  0.6484
13442TIP3    H261742   4.242   1.970  14.213  0.1023 -0.6841  0.9755
13443TIP3   OH261743   0.392   0.970   5.039  0.5316 -0.2866 -0.2720
13443TIP3    H161744   0.445   0.952   4.962  3.1480  0.5175  1.2394
13443TIP3    H261745   0.378   1.064   5.038 -2.0668 -0.5836 -1.2790
13444TIP3   OH261746   1.264   4.674   0.025  0.8826 -0.7283  0.4277
13444TIP3    H161747   1.352   4.641   0.045  1.5477  1.1446  0.8266
13444TIP3    H261748   1.222   4.604  -0.025  2.9192 -1.2977 -0.5619
13445TIP3   OH261749   4.244   5.949   0.050  0.1012 -0.6036 -0.3799
13445TIP3    H161750   4.306   5.975  -0.018  0.0229 -1.4735 -0.7955
13445TIP3    H261751   4.297   5.942   0.129  0.7068 -1.9913 -0.8623
13446TIP3   OH261752   1.496   4.185   0.482  0.6948 -0.6378 -0.3437
13446TIP3    H161753   1.447   4.194   0.564 -0.5990  1.7386 -1.2826
13446TIP3    H261754   1.473   4.097   0.450 -0.5920 -0.7255  0.7134
13447TIP3   OH261755   5.041   0.864   2.852 -0.1058 -0.0140 -0.4344
13447TIP3    H161756   4.984   0.884   2.777  1.1154  0.4472 -1.2714
13447TIP3    H261757   5.014   0.927   2.919  1.1040  2.0128 -1.7203
13448TIP3   OH261758   2.420   1.042   6.227 -0.1117  0.7097  0.1785
13448TIP3    H161759   2.347   1.088   6.269 -0.6162 -1.2602  1.6162
13448TIP3    H261760   2.497   1.096   6.248 -1.0752  2.9970 -1.6440
13449TIP3   OH261761   1.987   6.193  16.066  0.2207 -0.2351 -0.0239
13449TIP3    H161762   1.944   6.276  16.045 -0.0957 -0.3874  0.0182
13449TIP3    H261763   2.001   6.197  16.160  1.0694  0.1769 -0.1555
13450TIP3   OH261764   4.086   3.781  10.620 -0.4420 -0.0834  0.3612
13450TIP3    H161765   4.115   3.872  10.613 -0.2830 -0.2200 -1.3878
13450TIP3    H261766   4.040   3.765  10.537  0.7891 -1.9961 -0.0241
13451TIP3   OH261767   0.157   2.043   0.267  0.1291 -0.5870 -0.4959
13451TIP3    H161768   0.190   2.133   0.267  0.8841 -0.8514 -1.1508
13451TIP3    H261769   0.228   1.992   0.306 -0.7906 -0.7375  1.0124
13452TIP3   OH261770   2.795   3.533  11.415  0.3720  0.1760  0.6331
13452TIP3    H161771   2.859   3.531  11.486  0.5437 -1.4431  0.4836
13452TIP3    H261772   2.790   3.442  11.386 -2.2406  0.1934  0.8441
13453TIP3   OH261773   3.874   2.616   3.207  0.2543 -0.6781  0.3474
13453TIP3    H161774   3.890   2.526   3.178  0.3096 -0.1010 -1.4853
13453TIP3    H261775   3.915   2.620   3.294  3.9988 -1.2880 -1.1787
13454TIP3   OH261776   3.900   4.278  14.129 -0.0994 -0.2914 -0.3212
13454TIP3    H161777   3.848   4.305  14.205 -0.7331 -0.2140 -0.7818
13454TIP3    H261778   3.929   4.189  14.151  1.3344  0.4067  0.8471
13455TIP3   OH261779   4.268   1.285   0.352 -0.0291 -0.4938 -0.4577
13455TIP3    H161780   4.311   1.325   0.276  2.6570 -0.2236  1.0964
13455TIP3    H261781   4.331   1.221   0.384 -1.0846 -0.5847  1.5625
13456TIP3   OH261782   6.771   0.531  13.980  0.5350 -0.4205 -0.8161
13456TIP3    H161783   6.863   0.503  13.980  0.9117  0.5961  1.6254
13456TIP3    H261784   6.772   0.617  14.022 -1.4461  0.0563 -1.6405
13457TIP3   OH261785   2.334   4.469   4.303 -0.0148 -0.0801  0.3099
13457TIP3    H161786   2.273   4.531   4.264  0.5899 -0.5377 -1.4770
13457TIP3    H261787   2.414   4.480   4.251  0.4103 -1.6569  0.5997
13458TIP3   OH261788   2.271   5.601  14.424 -0.0354  0.0911 -0.0608
13458TIP3    H161789   2.293   5.635  14.337  3.5725 -0.1153  0.6315
13458TIP3    H261790   2.209   5.530  14.407  1.8315 -1.0531 -2.6951
13459TIP3   OH261791   6.350   5.319  16.830  0.2681 -0.2538 -0.6994
13459TIP3    H161792   6.417   5.264  16.790  4.1383 -0.2039  4.5390
13459TIP3    H261793   6.383   5.408  16.819 -0.6437  0.0882 -0.7232
13460TIP3   OH261794   0.122   3.654   4.247  0.8421  0.6557 -0.3818
13460TIP3    H161795   0.142   3.584   4.185  1.0855  0.5425 -0.1799
13460TIP3    H261796   0.143   3.617   4.333 -1.9630 -0.1101  0.0572
13461TIP3   OH261797   0.697   4.009   5.362  0.2033 -0.2456  0.1974
13461TIP3    H161798   0.788   4.017   5.332  0.6385  1.8326  1.8718
13461TIP3    H261799   0.703   3.961   5.444 -0.3884 -1.1308 -0.2554
13462TIP3   OH261800   4.839   0.423  13.562 -0.5917  0.0264 -0.5979
13462TIP3    H161801   4.857   0.421  13.656  0.8157  0.8053 -0.8296
13462TIP3    H261802   4.909   0.371  13.523 -0.0184  1.3300 -1.3608
13463TIP3   OH261803   3.162   0.281  15.061  0.1113 -0.1423 -0.7737
13463TIP3    H161804   3.120   0.274  15.146 -0.4789 -0.9333 -1.1076
13463TIP3    H261805   3.113   0.219  15.006  2.4834 -2.0540 -0.8787
13464TIP3   OH261806   4.342   1.241  11.207  0.4017  0.5173 -0.4889
13464TIP3    H161807   4.259   1.247  11.161  0.7864 -0.7022 -1.3887
13464TIP3    H261808   4.408   1.266  11.142  0.7572  1.6398  0.2589
13465TIP3   OH261809   4.758   2.858  11.192  0.5550  0.2836  0.6549
13465TIP3    H161810   4.833   2.917  11.185 -0.0580  1.0500  0.4334
13465TIP3    H261811   4.777   2.788  11.130  1.4407  0.0720  1.1430
13466TIP3   OH261812   0.972   5.329  13.088 -0.4655 -0.0915  0.2441
13466TIP3    H161813   0.960   5.336  13.183  0.0821  2.7026  0.1831
13466TIP3    H261814   0.883   5.328  13.053 -0.7077  1.4069  0.7195
13467TIP3   OH261815   0.416   3.523  14.261 -0.7662  0.1876 -0.0453
13467TIP3    H161816   0.433   3.577  14.184  1.2461  4.2539  2.8872
13467TIP3    H261817   0.463   3.441  14.244 -0.8625  0.6610 -3.2574
13468TIP3   OH261818   6.256   4.761  16.564 -0.4689 -0.4237 -0.2511
13468TIP3    H161819   6.252   4.670  16.593 -0.9496  0.1723  1.7283
13468TIP3    H261820   6.164   4.789  16.561 -0.2766  0.2762  0.1795
13469TIP3   OH261821   2.616   6.672  11.099 -0.2804  0.0249  0.0698
13469TIP3    H161822   2.708   6.693  11.082 -0.3835 -0.2363 -0.8742
13469TIP3    H261823   2.610   6.577  11.088 -0.9898  0.2230 -1.6577
13470TIP3   OH261824   4.757   1.594  14.092 -0.0242 -0.2687  0.1337
13470TIP3    H161825   4.758   1.500  14.110  0.5099 -0.3150 -0.1396
13470TIP3    H261826   4.846   1.615  14.065  0.2091  0.5580  1.4253
13471TIP3   OH261827   5.379   4.315  11.463 -0.0117  0.0580  0.2676
13471TIP3    H161828   5.449   4.317  11.529  0.2487  1.0809 -0.0268
13471TIP3    H261829   5.396   4.235  11.413 -0.0694 -0.5988  1.2796
13472TIP3   OH261830   3.419   5.341  16.781 -0.2327  0.2836 -0.4658
13472TIP3    H161831   3.492   5.284  16.756 -1.0776 -1.0288 -0.0533
13472TIP3    H261832   3.459   5.408  16.837  0.3349 -1.8805  1.9230
13473TIP3   OH261833   4.341   0.877   1.226 -0.2347 -0.7030 -0.2364
13473TIP3    H161834   4.272   0.831   1.177  0.9675 -2.7447 -0.1104
13473TIP3    H261835   4.419   0.823   1.214  0.9851  0.7208  0.9204
13474TIP3   OH261836   0.186   4.222  15.608  0.3163  0.4220 -0.7564
13474TIP3    H161837   0.091   4.213  15.597  0.1339  0.9099  0.3529
13474TIP3    H261838   0.218   4.131  15.612 -0.0869  0.2543 -1.1569
13475TIP3   OH261839   4.392   4.355   5.188  0.3582 -0.4993  0.5807
13475TIP3    H161840   4.428   4.441   5.212  0.5199 -0.3503 -0.1876
13475TIP3    H261841   4.407   4.301   5.266 -0.0575  0.2564  1.1970
13476TIP3   OH261842   3.056   2.322  14.224  0.0365  0.5173 -0.1672
13476TIP3    H161843   3.130   2.306  14.166 -1.7179 -0.3746 -2.3010
13476TIP3    H261844   3.044   2.240  14.272 -1.0390 -0.2374 -1.6549
13477TIP3   OH261845   1.492   6.498   2.187 -0.5452 -0.5613 -0.4910
13477TIP3    H161846   1.465   6.478   2.097 -0.8756  0.2105 -0.5749
13477TIP3    H261847   1.571   6.550   2.178 -2.1791  2.1180 -0.5055
13478TIP3   OH261848   6.396   1.185   0.378  0.0358  0.6905  0.3015
13478TIP3    H161849   6.356   1.107   0.415  0.2036  0.0386 -0.8477
13478TIP3    H261850   6.366   1.257   0.435 -0.2878 -0.1631  1.2428
13479TIP3   OH261851   5.246   2.555  12.032 -0.0134 -0.0467 -0.2307
13479TIP3    H161852   5.190   2.587  11.961 -1.3338  1.0186  1.2094
13479TIP3    H261853   5.184   2.525  12.099  1.1953 -1.5264  0.2904
13480TIP3   OH261854   5.105   4.939  16.194  0.1198 -0.1146 -0.9227
13480TIP3    H161855   5.085   5.015  16.139  0.0748  0.5890  0.0447
13480TIP3    H261856   5.163   4.973  16.262 -0.5437 -0.7675 -0.0073
13481TIP3   OH261857   3.356   5.694  12.824  0.1165 -0.7786  0.1544
13481TIP3    H161858   3.354   5.726  12.914  0.3857 -0.0390 -0.0947
13481TIP3    H261859   3.356   5.598  12.832 -1.8094 -0.7551  0.8837
13482TIP3   OH261860   0.695   5.303   4.453  0.1193  0.1463 -0.1372
13482TIP3    H161861   0.603   5.293   4.474  0.6303 -1.3959  1.5833
13482TIP3    H261862   0.722   5.219   4.417  0.6955  0.8449 -1.4340
13483TIP3   OH261863   1.549   3.289   5.638 -0.6105  0.0199 -0.0916
13483TIP3    H161864   1.525   3.352   5.570 -1.3384  0.3892  0.4945
13483TIP3    H261865   1.570   3.343   5.714 -1.5149 -0.4434  0.5030
13484TIP3   OH261866   6.222   3.537   5.672  0.1834  0.0041 -0.0729
13484TIP3    H161867   6.241   3.448   5.701  0.4803  0.0285 -0.1894
13484TIP3    H261868   6.198   3.584   5.752  0.5994 -0.0321  0.0748
13485TIP3   OH261869   5.697   5.657  16.865 -0.2097  0.0885 -0.2872
13485TIP3    H161870   5.649   5.590  16.817  0.9111 -0.6056 -0.4813
13485TIP3    H261871   5.746   5.609  16.932  2.2874  0.3827 -1.7581
13486TIP3   OH261872   2.198   6.140  11.652  0.2630 -0.2081  0.2768
13486TIP3    H161873   2.120   6.143  11.706 -0.7046 -0.0138 -1.0762
13486TIP3    H261874   2.185   6.210  11.587  1.0040 -0.9352 -0.6883
13487TIP3   OH261875   3.893   3.907  11.143 -0.4111  0.9342 -0.1687
13487TIP3    H161876   3.875   3.918  11.050  0.6366 -0.2756 -0.5417
13487TIP3    H261877   3.824   3.849  11.175  0.7430 -0.8429 -0.8126
13488TIP3   OH261878   2.414   5.279  13.419  0.2597 -0.0100 -0.1549
13488TIP3    H161879   2.438   5.371  13.430 -0.2640  0.0949  0.1924
13488TIP3    H261880   2.319   5.278  13.432  0.5742 -1.0253  3.0513
13489TIP3   OH261881   2.127   4.659  12.916  0.4830 -0.4216  0.5372
13489TIP3    H161882   2.219   4.665  12.938  0.5278  0.1181  0.2167
13489TIP3    H261883   2.108   4.565  12.918  1.2918 -0.6283 -0.4011
13490TIP3   OH261884   4.560   4.877  14.846  0.2242 -0.1392  0.4068
13490TIP3    H161885   4.652   4.905  14.843  0.0383  0.4157 -1.2471
13490TIP3    H261886   4.542   4.846  14.757 -1.5104  0.8531  0.3774
13491TIP3   OH261887   0.774   3.844   5.587 -0.1840  0.3536  0.1678
13491TIP3    H161888   0.768   3.750   5.568 -0.1193 -0.0174  1.7978
13491TIP3    H261889   0.850   3.851   5.646 -0.7939  1.2768  0.8683
13492TIP3   OH261890   4.779   0.133  10.958 -0.1016  0.1735  0.9974
13492TIP3    H161891   4.749   0.166  10.873 -0.4497  0.4442  1.2245
13492TIP3    H261892   4.700   0.096  10.998  0.1524 -0.3453  1.0235
13493TIP3   OH261893   6.731   2.707  11.565  0.3086 -0.1654  0.5374
13493TIP3    H161894   6.747   2.629  11.619  0.6927  0.2430  1.0220
13493TIP3    H261895   6.801   2.705  11.500 -0.0757 -0.5846  0.1288
13494TIP3   OH261896   1.156   6.650  12.281 -0.9003  0.4743 -0.4504
13494TIP3    H161897   1.080   6.707  12.279  0.7378  2.7854 -0.1427
13494TIP3    H261898   1.230   6.707  12.262  1.0273 -1.2027  1.4469
13495TIP3   OH261899   2.833   6.436  11.193 -0.1504 -0.5359 -0.2858
13495TIP3    H161900   2.839   6.509  11.132  1.7743  1.7542  2.3677
13495TIP3    H261901   2.881   6.364  11.151  0.3503  0.6493 -1.8063
13496TIP3   OH261902   2.413   0.808   3.707 -0.1290  0.5085 -0.0571
13496TIP3    H161903   2.435   0.779   3.618  1.0611  1.2748 -0.0294
13496TIP3    H261904   2.466   0.752   3.764 -0.5497  0.3270  0.1638
13497TIP3   OH261905   6.116   4.742  15.138  0.4563 -0.0482  0.3372
13497TIP3    H161906   6.054   4.815  15.141 -0.2415 -0.3672 -2.6468
13497TIP3    H261907   6.202   4.784  15.126  0.4804  0.3075  1.6003
13498TIP3   OH261908   1.735   6.519   5.733  0.7273 -0.0983 -0.3770
13498TIP3    H161909   1.695   6.438   5.701  0.8775 -0.1233 -0.5038
13498TIP3    H261910   1.828   6.500   5.738  0.8297  0.2243 -0.9057
13499TIP3   OH261911   1.948   1.132  12.350 -0.0705 -0.1594 -0.6420
13499TIP3    H161912   1.910   1.218  12.367  1.4103  0.3059  0.5513
13499TIP3    H261913   1.896   1.072  12.405 -0.3460  0.1516 -0.5589
13500TIP3   OH261914   4.783   5.749   6.229  0.7828  0.1006 -0.3539
13500TIP3    H161915   4.703   5.697   6.225  0.0374  1.2072 -0.5096
13500TIP3    H261916   4.799   5.762   6.323  0.3280  0.5084 -0.3243
13501TIP3   OH261917   3.878   0.147  11.745  0.0692  0.6068  0.3992
13501TIP3    H161918   3.833   0.131  11.662 -0.2097 -1.0914  0.8345
13501TIP3    H261919   3.895   0.241  11.745 -1.0600  0.8547 -0.9954
13502TIP3   OH261920   4.144   3.856   5.069 -0.0726 -0.1721  0.1727
13502TIP3    H161921   4.087   3.868   5.144  0.7477 -1.2838  1.0134
13502TIP3    H261922   4.087   3.866   4.993 -0.9756  0.6674  0.9430
13503TIP3   OH261923   0.614   5.299  15.440  0.3151  0.2486  0.1070
13503TIP3    H161924   0.591   5.221  15.389 -0.0733  1.5872 -1.8801
13503TIP3    H261925   0.698   5.277  15.481  0.4367 -1.0577 -0.7664
13504TIP3   OH261926   2.104   0.923  14.037  0.2533  0.1028 -0.0394
13504TIP3    H161927   2.064   0.986  14.097 -2.9510 -1.0565 -0.7726
13504TIP3    H261928   2.110   0.842  14.087 -0.6046 -0.3626 -0.6830
13505TIP3   OH261929   1.540   0.269   5.580  0.2465 -0.4593  0.4969
13505TIP3    H161930   1.615   0.268   5.520  1.1537  1.3276  1.5001
13505TIP3    H261931   1.580   0.273   5.667 -1.0110  0.5403  1.0595
13506TIP3   OH261932   4.568   6.313  15.212 -0.0146 -0.0818 -0.1127
13506TIP3    H161933   4.659   6.286  15.228  0.3670  0.2525 -1.5801
13506TIP3    H261934   4.569   6.350  15.124 -1.3311  1.1120  0.3388
13507TIP3   OH261935   5.498   6.745  12.684  0.8003 -0.3651  0.2008
13507TIP3    H161936   5.477   6.803  12.757 -0.4334 -1.0792  0.4425
13507TIP3    H261937   5.589   6.720  12.698  1.6165  2.0892 -0.3360
13508TIP3   OH261938   2.968   0.550   1.372 -0.0926  0.5352  0.0700
13508TIP3    H161939   3.041   0.601   1.407 -1.1021  1.2175  1.2640
13508TIP3    H261940   2.950   0.484   1.440 -0.4540  0.2479 -0.2976
13509TIP3   OH261941   4.005   1.938   2.084 -0.0819 -0.2108 -0.1210
13509TIP3    H161942   3.994   1.909   2.175  2.3414 -0.5949  0.1360
13509TIP3    H261943   3.961   1.871   2.032  0.4713 -1.2691  0.7234
13510TIP3   OH261944   3.463   5.635  15.077 -0.6081  0.3195 -0.0929
13510TIP3    H161945   3.451   5.579  15.153 -4.3579 -0.5788 -1.1426
13510TIP3    H261946   3.473   5.723  15.114  1.0750 -0.4631  1.4519
13511TIP3   OH261947   0.542   4.503  16.245 -0.0635  0.1713  0.7713
13511TIP3    H161948   0.624   4.455  16.231 -0.8568 -0.6438 -1.4723
13511TIP3    H261949   0.492   4.448  16.306 -0.5068 -1.3574 -0.9038
13512TIP3   OH261950   4.818   6.181   2.504  0.1461 -0.2467 -0.7500
13512TIP3    H161951   4.729   6.152   2.488 -0.7048  1.3143  0.8209
13512TIP3    H261952   4.829   6.257   2.447 -0.2078  0.6698  0.3647
13513TIP3   OH261953   5.938   6.675  10.981  0.0224  0.2078  0.4586
13513TIP3    H161954   5.868   6.731  11.014 -0.0642 -0.1509  0.8964
13513TIP3    H261955   6.017   6.729  10.988  0.4006 -0.5814  3.4070
13514TIP3   OH261956   0.662   1.301   1.025  0.1488  0.2778  0.4896
13514TIP3    H161957   0.586   1.246   1.042  0.7729 -0.5721  0.5868
13514TIP3    H261958   0.647   1.380   1.077 -1.9926  1.3803 -1.6227
13515TIP3   OH261959   2.996   2.757   2.186 -0.6586 -0.6207  0.0192
13515TIP3    H161960   2.934   2.720   2.123  0.0380 -1.7893  0.0003
13515TIP3    H261961   2.950   2.832   2.223 -1.6472 -0.7980 -0.8077
13516TIP3   OH261962   5.325   3.312  11.663 -0.3106  0.1886  0.0477
13516TIP3    H161963   5.366   3.248  11.720  0.0466 -0.3645 -0.8085
13516TIP3    H261964   5.384   3.388  11.664  0.0790 -0.1099 -0.1676
13517TIP3   OH261965   0.639   4.632   5.173  0.2419 -0.2050 -0.1069
13517TIP3    H161966   0.687   4.605   5.252  0.6819 -0.3660 -0.4261
13517TIP3    H261967   0.707   4.664   5.113 -0.0580 -0.3377 -0.5218
13518TIP3   OH261968   3.024   5.298   5.035  0.3638 -0.5473 -0.1946
13518TIP3    H161969   3.067   5.378   5.066 -0.3424 -0.4727  0.6189
13518TIP3    H261970   2.967   5.328   4.963  1.0596 -0.5257 -0.7456
13519TIP3   OH261971   2.671   2.026   4.154  0.2582 -0.6163 -0.1051
13519TIP3    H161972   2.726   2.075   4.216  0.9741  0.3879 -1.4596
13519TIP3    H261973   2.684   1.935   4.177 -0.5955 -0.2315  2.0986
13520TIP3   OH261974   0.825   2.082   3.446 -0.0420  0.2146  0.1299
13520TIP3    H161975   0.749   2.088   3.388 -0.3136  2.1945  0.6028
13520TIP3    H261976   0.900   2.097   3.389 -0.3767  3.4108  0.3496
13521TIP3   OH261977   5.421   4.869   4.251  0.7402  0.1234 -0.3571
13521TIP3    H161978   5.415   4.781   4.289  0.5805 -0.0147 -0.6947
13521TIP3    H261979   5.495   4.865   4.191 -0.0131 -0.1420 -1.2916
13522TIP3   OH261980   1.348   4.041  13.773  0.3014 -0.0560 -0.2485
13522TIP3    H161981   1.334   4.030  13.679  0.1512 -2.7128 -0.0095
13522TIP3    H261982   1.347   3.951  13.807  1.9998  0.7182  2.0609
13523TIP3   OH261983   3.282   4.267   5.549 -0.0812 -0.2469 -0.2522
13523TIP3    H161984   3.207   4.326   5.539  0.6163  0.8590  0.6846
13523TIP3    H261985   3.251   4.200   5.611  0.5716  1.9733  2.7332
13524TIP3   OH261986   2.603   5.017   1.635  0.1434 -0.0942  0.4167
13524TIP3    H161987   2.566   5.104   1.621  2.2550  0.6535 -1.1094
13524TIP3    H261988   2.629   4.987   1.548 -1.1305 -2.5903  0.8003
13525TIP3   OH261989   5.006   6.198  13.087  0.8452  0.2663  0.1076
13525TIP3    H161990   5.078   6.253  13.054  0.4350  0.4612 -0.4802
13525TIP3    H261991   5.006   6.213  13.182  1.2925  0.6090  0.0591
13526TIP3   OH261992   6.625   2.071  15.755 -0.2137  0.0610  0.6017
13526TIP3    H161993   6.634   1.984  15.794  2.7882 -0.1824 -0.3978
13526TIP3    H261994   6.648   2.131  15.826 -1.5558  0.0556  1.0755
13527TIP3   OH261995   3.059   6.580  15.969 -0.2172  0.3869  0.0728
13527TIP3    H161996   2.966   6.578  15.948 -0.2693 -1.6142  0.2567
13527TIP3    H261997   3.065   6.536  16.054  1.0874 -1.7222 -1.0282
13528TIP3   OH261998   3.990   0.957  11.998  0.5693  0.4740 -0.1916
13528TIP3    H161999   4.042   1.004  11.932 -0.0791  1.0315 -0.3194
13528TIP3    H262000   3.915   1.015  12.015 -0.8542 -0.9719 -1.1661
13529TIP3   OH262001   3.415   0.610  12.538 -0.1334 -0.1213  0.0423
13529TIP3    H162002   3.467   0.688  12.555  0.0036 -0.2904  0.4252
13529TIP3    H262003   3.478   0.538  12.543 -0.2441 -0.2474 -0.3897
13530TIP3   OH262004   2.819   3.341   3.333  0.4948 -0.3443  0.5787
13530TIP3    H162005   2.827   3.411   3.268  1.1643  2.1908  3.1975
13530TIP3    H262006   2.897   3.287   3.320  1.0532  0.6097 -0.1544
13531TIP3   OH262007   1.361   2.585  10.511 -0.4584  0.3095  0.1116
13531TIP3    H162008   1.446   2.592  10.556 -0.3471 -1.5002  0.2246
13531TIP3    H262009   1.379   2.618  10.422 -0.0117  1.2984  0.5483
13532TIP3   OH262010   4.558   4.774  16.004  0.7815  0.1007  0.0973
13532TIP3    H162011   4.581   4.684  15.983  0.0905  0.1170 -0.8055
13532TIP3    H262012   4.637   4.824  15.985  0.9894 -0.2477  0.0461
13533TIP3   OH262013   4.155   5.524  11.852 -0.1257 -0.1749 -0.0624
13533TIP3    H162014   4.249   5.531  11.868 -0.1641 -1.0557  0.6067
13533TIP3    H262015   4.116   5.592  11.907  0.0091 -0.8384  0.8640
13534TIP3   OH262016   1.033   0.808   2.193  0.0451  0.0831  0.0634
13534TIP3    H162017   0.976   0.831   2.120 -1.2326  0.8981  1.2692
13534TIP3    H262018   1.102   0.755   2.154 -0.9723 -0.0702 -1.6135
13535TIP3   OH262019   6.802   2.192  11.025 -0.4709 -0.2101 -0.3451
13535TIP3    H162020   6.808   2.106  11.066  0.4867 -0.5457 -1.1430
13535TIP3    H262021   6.893   2.223  11.021 -0.5172 -0.1746 -2.1010
13536TIP3   OH262022   1.296   5.102   2.273  0.0449 -0.3479  0.1518
13536TIP3    H162023   1.367   5.104   2.208  0.1939 -0.4301  0.3107
13536TIP3    H262024   1.226   5.154   2.234  0.0705 -0.5334 -0.1488
13537TIP3   OH262025   6.475   2.876   1.524  0.5842 -0.7724  0.0075
13537TIP3    H162026   6.531   2.925   1.584 -0.9242  2.0002 -0.7169
13537TIP3    H262027   6.441   2.803   1.577  0.4068  0.7633  2.1238
13538TIP3   OH262028   1.439   1.911  12.767 -0.7318 -0.0141  0.7297
13538TIP3    H162029   1.521   1.912  12.818 -0.5018  1.1821  0.3663
13538TIP3    H262030   1.444   1.990  12.713 -2.0185 -0.0639  0.5205
13539TIP3   OH262031   6.810   2.270   1.179  0.4778  0.4900  0.4598
13539TIP3    H162032   6.796   2.235   1.267  2.2790  0.1013  0.6257
13539TIP3    H262033   6.878   2.214   1.142 -1.0214 -0.0566 -1.6132
13540TIP3   OH262034   3.915   6.729   2.407  0.6800 -0.1295 -0.0973
13540TIP3    H162035   3.974   6.654   2.399  3.7222  1.9909  0.3380
13540TIP3    H262036   3.919   6.752   2.500 -1.9609 -0.6556  0.2097
13541TIP3   OH262037   1.021   6.751   2.044 -0.0548  0.1128  0.2058
13541TIP3    H162038   1.092   6.711   2.095  1.0845  0.2902 -1.1707
13541TIP3    H262039   0.968   6.677   2.014 -0.7193  0.0039  1.5682
13542TIP3   OH262040   0.088   3.925   3.705  0.2629 -0.2550  0.8313
13542TIP3    H162041   0.072   3.937   3.799 -0.4246 -0.4303  0.7424
13542TIP3    H262042   0.023   3.981   3.662  1.1987  0.5609  0.4559
13543TIP3   OH262043   5.253   2.995  16.446  0.2766 -0.1634 -0.2833
13543TIP3    H162044   5.272   2.951  16.529  0.5659  1.4389  0.5335
13543TIP3    H262045   5.263   3.088  16.465 -0.6886  0.3026 -1.8615
13544TIP3   OH262046   6.152   1.516  14.220  0.3471 -0.2883 -0.3850
13544TIP3    H162047   6.243   1.487  14.215  0.9457  1.3448  0.1430
13544TIP3    H262048   6.132   1.547  14.132 -1.0964 -4.2192 -1.6617
13545TIP3   OH262049   4.457   2.861  11.903  0.2567 -0.1149 -0.2361
13545TIP3    H162050   4.383   2.811  11.870  1.7881 -2.3052 -0.6402
13545TIP3    H262051   4.524   2.852  11.835  0.4209  3.2092 -0.6643
13546TIP3   OH262052   0.508   4.415  14.487 -0.0210  0.1386 -0.3641
13546TIP3    H162053   0.588   4.381  14.448 -0.4487 -1.0352 -0.2403
13546TIP3    H262054   0.445   4.415  14.415 -0.7932 -1.9651  0.2416
13547TIP3   OH262055   1.205   5.274  12.333  0.3409 -0.3090  0.1508
13547TIP3    H162056   1.152   5.344  12.372 -2.2684 -1.7729 -0.5024
13547TIP3    H262057   1.223   5.304  12.244 -1.6529 -0.8169 -0.4730
13548TIP3   OH262058   0.636   2.104   0.341  0.0910 -0.8848 -0.1470
13548TIP3    H162059   0.701   2.174   0.347 -0.9186  0.1609 -0.9573
13548TIP3    H262060   0.666   2.050   0.268  0.2668 -0.6300 -0.2666
13549TIP3   OH262061   5.587   1.564  16.836  0.5834 -0.2747  0.0603
13549TIP3    H162062   5.670   1.591  16.876  0.2970 -1.0923  1.2672
13549TIP3    H262063   5.568   1.479  16.876 -0.1416 -0.7586 -1.2437
13550TIP3   OH262064   5.653   0.248  10.432  0.3606  0.1628 -0.0094
13550TIP3    H162065   5.593   0.224  10.361  0.6939 -0.8728  0.0387
13550TIP3    H262066   5.635   0.341  10.448  0.7295  0.6022 -1.8721
13551TIP3   OH262067   6.144   0.531   4.572 -0.3052  0.5775 -0.0504
13551TIP3    H162068   6.062   0.557   4.614 -0.6470 -2.9031  1.8184
13551TIP3    H262069   6.211   0.547   4.639  0.1377  0.8748 -0.5581
13552TIP3   OH262070   0.760   1.820   0.988 -0.1790 -0.4774 -0.1954
13552TIP3    H162071   0.768   1.736   0.943  0.7337 -0.2239 -0.5262
13552TIP3    H262072   0.732   1.881   0.919  1.1128 -0.1118 -0.4147
13553TIP3   OH262073   3.631   2.300   2.303 -0.1321  0.4971  0.3282
13553TIP3    H162074   3.627   2.214   2.261  1.0000  1.7125 -2.5464
13553TIP3    H262075   3.541   2.321   2.325 -0.4804 -1.1897  0.6509
13554TIP3   OH262076   1.179   0.017   1.562  0.2213  0.3519  0.3240
13554TIP3    H162077   1.161   0.019   1.656  0.1054 -1.0270  0.3631
13554TIP3    H262078   1.110  -0.039   1.526  0.5262  0.5078 -0.5180
13555TIP3   OH262079   6.284   2.200  16.716  0.5289 -0.2734  0.4179
13555TIP3    H162080   6.256   2.197  16.625  2.1993 -0.6650 -0.1139
13555TIP3    H262081   6.297   2.108  16.740  1.0485 -0.1209  0.7365
13556TIP3   OH262082   2.157   1.878   4.778  0.9852 -0.2613 -0.2125
13556TIP3    H162083   2.140   1.806   4.717 -1.9094 -0.8950  1.1772
13556TIP3    H262084   2.131   1.844   4.864 -0.3092  2.3275  0.5293
13557TIP3   OH262085   0.712   0.671   0.134 -0.2896 -0.3890 -0.3696
13557TIP3    H162086   0.762   0.590   0.140 -0.6982 -0.7580 -1.6587
13557TIP3    H262087   0.640   0.651   0.074  0.4853  1.3498 -1.9943
13558TIP3   OH262088   4.729   5.707  11.680 -0.1496  0.3606 -0.7904
13558TIP3    H162089   4.709   5.632  11.735 -0.1086  1.6285  1.0380
13558TIP3    H262090   4.645   5.752  11.670 -0.3911 -0.3967 -2.7284
13559TIP3   OH262091   6.757   3.473   2.923  0.1391  0.7738 -0.0437
13559TIP3    H162092   6.813   3.407   2.882  0.1917  0.6513  0.2283
13559TIP3    H262093   6.781   3.471   3.015  0.4637  1.4853 -0.0998
13560TIP3   OH262094   6.719   6.664   6.426 -0.9308  0.2138  0.4093
13560TIP3    H162095   6.777   6.626   6.491  0.0400  0.1106 -0.4832
13560TIP3    H262096   6.684   6.589   6.378 -0.5007  0.3521 -0.1265
13561TIP3   OH262097   0.383   3.151  12.689 -0.3798 -0.6614  0.2750
13561TIP3    H162098   0.449   3.115  12.631 -1.1035  1.1200 -1.7693
13561TIP3    H262099   0.306   3.096  12.675 -0.4627 -0.4167 -0.2433
13562TIP3   OH262100   4.920   6.054   5.306 -0.2056 -0.1521  0.5230
13562TIP3    H162101   4.874   6.105   5.373 -0.8544 -0.5623  0.3995
13562TIP3    H262102   4.961   5.982   5.355  0.6759  0.4519  0.6917
13563TIP3   OH262103   2.774   0.456  12.008 -0.2402  0.2825  0.5612
13563TIP3    H162104   2.727   0.471  11.926 -1.3895  0.3206  1.2054
13563TIP3    H262105   2.777   0.361  12.016 -1.2467  0.2778  1.0742
13564TIP3   OH262106   4.613   4.124   1.616 -0.4508 -0.1178 -0.0595
13564TIP3    H162107   4.544   4.166   1.565  1.0064  1.4246 -0.8623
13564TIP3    H262108   4.677   4.094   1.552  1.5274  2.0554  0.7496
13565TIP3   OH262109   5.380   5.164  16.855  0.3849 -0.0589 -0.1713
13565TIP3    H162110   5.448   5.103  16.827 -1.0582 -2.1263  0.5882
13565TIP3    H262111   5.330   5.183  16.776  0.8713  0.1810 -0.4216
13566TIP3   OH262112   5.716   0.019  13.074  0.4441  0.3079 -0.3521
13566TIP3    H162113   5.734  -0.006  12.984  2.1264 -1.0878  0.3142
13566TIP3    H262114   5.786   0.080  13.098 -0.6510  1.5975 -0.3176
13567TIP3   OH262115   1.955   5.073  13.062 -0.5018  0.2751  0.0745
13567TIP3    H162116   1.883   5.015  13.086 -1.3161  1.5553  0.8900
13567TIP3    H262117   1.934   5.100  12.973 -1.0101  0.5754  0.2760
13568TIP3   OH262118   3.464   4.868  15.404  0.2858 -0.0127 -0.2483
13568TIP3    H162119   3.505   4.954  15.405  0.8454 -0.2836  0.6897
13568TIP3    H262120   3.531   4.809  15.369  0.6241 -0.4149  1.0489
13569TIP3   OH262121   5.856   4.993  12.533  0.0164  0.3040  0.4439
13569TIP3    H162122   5.827   5.047  12.459  0.4926  0.1439  0.1344
13569TIP3    H262123   5.777   4.946  12.561 -1.0190  2.8844  2.2597
13570TIP3   OH262124   2.546   5.469   5.856  0.0479 -0.0408 -0.0550
13570TIP3    H162125   2.618   5.451   5.916 -0.9883  0.7148  1.4888
13570TIP3    H262126   2.485   5.397   5.870 -0.0729 -0.0027 -0.3863
13571TIP3   OH262127   2.968   1.223  15.243 -0.2014 -0.0914  0.1684
13571TIP3    H162128   2.914   1.181  15.176  0.2059 -0.0979 -0.1551
13571TIP3    H262129   2.963   1.164  15.318 -1.5259  0.4416  0.5239
13572TIP3   OH262130   0.783   3.011   1.877 -0.2596 -0.3473  0.0209
13572TIP3    H162131   0.742   3.098   1.871  2.4948  1.1302  0.9350
13572TIP3    H262132   0.755   2.977   1.962  0.4628  0.7110  0.7070
13573TIP3   OH262133   4.670   2.316   1.737 -0.3570 -0.5543 -0.3763
13573TIP3    H162134   4.755   2.324   1.692 -0.5582 -0.3265 -0.7270
13573TIP3    H262135   4.651   2.223   1.736  0.2593 -0.6977  0.4057
13574TIP3   OH262136   2.138   4.917   1.364 -0.2938  0.6258 -0.8594
13574TIP3    H162137   2.095   4.849   1.312 -2.0996 -0.8245  2.2381
13574TIP3    H262138   2.232   4.900   1.353 -0.6707 -1.5656 -1.2550
13575TIP3   OH262139   3.923   4.070   0.260  0.2220 -0.2154 -0.4648
13575TIP3    H162140   3.915   4.140   0.195 -1.0405 -1.1060 -1.3078
13575TIP3    H262141   3.884   4.105   0.339 -0.9402 -0.1527 -1.0507
13576TIP3   OH262142   0.881   4.923  16.465  0.4734  0.5952  0.2427
13576TIP3    H162143   0.924   5.008  16.474 -0.4847  0.9172  2.3672
13576TIP3    H262144   0.950   4.859  16.483  0.9079  0.9432 -0.1452
13577TIP3   OH262145   0.218   4.729   0.224  0.2699  0.5666 -0.6788
13577TIP3    H162146   0.266   4.724   0.306  0.5058 -0.1963 -0.8597
13577TIP3    H262147   0.127   4.744   0.250 -0.0482 -1.8679 -0.1634
13578TIP3   OH262148   0.576   5.336   1.604  1.0948 -0.0146 -0.3449
13578TIP3    H162149   0.640   5.397   1.568  0.3626  1.1136  0.1978
13578TIP3    H262150   0.533   5.298   1.528  0.1412  1.7140 -0.7186
13579TIP3   OH262151   4.174   5.037   0.579 -1.0809  0.1549 -0.2887
13579TIP3    H162152   4.105   5.029   0.514 -2.0508  0.1354  0.7154
13579TIP3    H262153   4.235   4.966   0.559 -2.5255 -1.2699  0.1850
13580TIP3   OH262154   6.030   3.741   0.362 -0.4977 -0.3676 -0.3671
13580TIP3    H162155   5.979   3.820   0.344 -0.2942 -0.3292 -0.8097
13580TIP3    H262156   6.121   3.767   0.346 -0.4747 -0.8228 -1.0195
13581TIP3   OH262157   6.692   4.257   2.879  0.5033 -0.2932  0.5356
13581TIP3    H162158   6.736   4.225   2.958  1.8949 -2.2483 -0.9199
13581TIP3    H262159   6.600   4.230   2.890  0.6288 -0.3352  1.5756
13582TIP3   OH262160   1.200   2.023  17.066  0.0166 -0.0429 -0.5636
13582TIP3    H162161   1.125   1.979  17.026 -0.5912 -1.4655  1.9016
13582TIP3    H262162   1.161   2.097  17.113 -0.0933 -1.3154  1.4967
13583TIP3   OH262163   1.664   6.180   6.432  0.5357 -0.2612 -0.3272
13583TIP3    H162164   1.620   6.095   6.430  1.1195 -0.5564 -0.9839
13583TIP3    H262165   1.641   6.221   6.349 -0.0642  0.4014  0.1515
13584TIP3   OH262166   2.271   1.590  13.490  0.0675  0.2893  0.0031
13584TIP3    H162167   2.357   1.553  13.473  0.8112  0.8613  2.2350
13584TIP3    H262168   2.235   1.537  13.560 -1.0919  0.5504 -0.3739
13585TIP3   OH262169   3.014   5.749   0.888  0.4480 -0.5425  0.0947
13585TIP3    H162170   3.093   5.720   0.842  0.6284  0.1511 -0.0453
13585TIP3    H262171   2.957   5.782   0.818  1.1393  1.5020  0.4138
13586TIP3   OH262172   4.935   0.300   5.783 -0.5155 -0.5301 -0.9239
13586TIP3    H162173   4.878   0.359   5.832  1.3189  0.6852 -0.1769
13586TIP3    H262174   4.974   0.354   5.715  0.1030 -1.2212 -1.1323
13587TIP3   OH262175   4.276   5.343  12.636 -0.3980  0.0004 -0.1048
13587TIP3    H162176   4.331   5.320  12.562 -0.3439  0.5090 -0.2219
13587TIP3    H262177   4.276   5.265  12.691  0.5377  0.0379 -0.0397
13588TIP3   OH262178   0.255   4.197  14.197  0.2584 -0.6741 -0.0728
13588TIP3    H162179   0.226   4.176  14.108  1.2767 -0.4049 -0.4923
13588TIP3    H262180   0.336   4.146  14.208  0.1556 -0.6782  0.6898
13589TIP3   OH262181   6.376   6.307   1.992 -0.1819  0.0041 -0.1361
13589TIP3    H162182   6.392   6.215   2.009  1.2034  0.6088  2.1620
13589TIP3    H262183   6.462   6.348   1.996 -0.7579  1.4118 -1.2018
13590TIP3   OH262184   6.197   5.458  12.955  0.4151 -0.0988 -0.4728
13590TIP3    H162185   6.254   5.454  12.878 -1.3746  1.1505 -1.9477
13590TIP3    H262186   6.157   5.371  12.960 -3.0028  1.0405 -3.9320
13591TIP3   OH262187   2.221   0.754   1.458  0.4140 -0.0899  0.2166
13591TIP3    H162188   2.134   0.762   1.419  0.1974  0.7106  0.8471
13591TIP3    H262189   2.280   0.741   1.383  0.0395  1.6646 -0.4229
13592TIP3   OH262190   5.901   3.591  13.412 -0.1254 -0.3695 -0.2720
13592TIP3    H162191   5.839   3.578  13.340 -0.1469 -2.0317 -0.0016
13592TIP3    H262192   5.852   3.567  13.490  0.5559 -0.7887  0.0414
13593TIP3   OH262193   2.218   3.753  15.115  0.1886 -0.5752 -0.1899
13593TIP3    H162194   2.294   3.791  15.159  0.8289 -0.2711 -1.4892
13593TIP3    H262195   2.242   3.661  15.102  1.3921  0.0027 -2.6418
13594TIP3   OH262196   3.123   6.527  12.650 -0.2607  0.3393  0.0147
13594TIP3    H162197   3.139   6.528  12.556 -0.9282  1.2700 -0.0965
13594TIP3    H262198   3.179   6.457  12.683 -3.0156 -2.9771 -1.6245
13595TIP3   OH262199   1.522   0.678  15.563  0.2400 -0.6020  0.0179
13595TIP3    H162200   1.452   0.691  15.626  1.1267 -0.8318  1.0736
13595TIP3    H262201   1.551   0.767  15.540  0.5854 -0.5347  0.7052
13596TIP3   OH262202   0.801   1.090   3.467  0.2774  0.5131 -0.1976
13596TIP3    H162203   0.851   1.138   3.401  0.4852  1.1348  0.4044
13596TIP3    H262204   0.805   1.145   3.545 -0.6637  0.1845  0.0949
13597TIP3   OH262205   4.864   3.995  14.284  0.0900  0.5435  0.1309
13597TIP3    H162206   4.843   3.944  14.206  1.0390 -0.9492  0.8023
13597TIP3    H262207   4.953   4.027  14.269 -0.0303  0.9535  0.2612
13598TIP3   OH262208   3.621   1.176   0.259  0.2717 -0.6117 -0.3966
13598TIP3    H162209   3.629   1.255   0.313 -0.4858 -1.1179  0.4787
13598TIP3    H262210   3.611   1.210   0.170 -0.3026  0.2997 -0.0021
13599TIP3   OH262211   4.334   4.606  16.119 -0.3324  0.6571 -0.0584
13599TIP3    H162212   4.318   4.700  16.111 -2.7566  0.1449 -3.0407
13599TIP3    H262213   4.249   4.566  16.102  0.6790 -2.1093  0.9502
13600TIP3   OH262214   4.783   3.131   3.121 -0.2484  0.9976 -0.5780
13600TIP3    H162215   4.835   3.154   3.198 -0.9009 -1.2600  0.6423
13600TIP3    H262216   4.847   3.104   3.056  0.3382 -3.0056  1.3231
13601TIP3   OH262217   6.114   4.599   1.745 -0.2249 -0.2368 -0.0141
13601TIP3    H162218   6.111   4.551   1.828  0.8152 -0.9891 -0.3896
13601TIP3    H262219   6.093   4.534   1.679 -1.7240  0.5069 -0.3238
13602TIP3   OH262220   2.454   6.051  14.126 -0.7633  0.3495  0.9730
13602TIP3    H162221   2.408   5.982  14.077  1.7249  1.1265 -2.9039
13602TIP3    H262222   2.384   6.112  14.151 -2.2368  0.7345 -3.2836
13603TIP3   OH262223   5.464   1.270   0.156  0.2092  0.3819  0.6384
13603TIP3    H162224   5.425   1.316   0.230 -1.7786  1.5406 -1.0017
13603TIP3    H262225   5.443   1.178   0.170 -1.1616  0.7288  0.9628
13604TIP3   OH262226   3.788   3.514   2.292  0.5450 -0.1940  0.0482
13604TIP3    H162227   3.821   3.428   2.318 -1.0004 -0.5730  0.9162
13604TIP3    H262228   3.738   3.498   2.212  0.4356 -0.0699  0.0908
13605TIP3   OH262229   0.256   1.386   1.577 -0.0404 -0.4402 -0.0169
13605TIP3    H162230   0.323   1.324   1.606  0.3122 -1.4474 -2.6641
13605TIP3    H262231   0.218   1.345   1.499 -3.8542  0.0606  1.3686
13606TIP3   OH262232   2.295   3.233  13.340 -0.3442 -0.1669 -0.1414
13606TIP3    H162233   2.356   3.287  13.390 -1.3460  0.8607  0.0314
13606TIP3    H262234   2.349   3.165  13.301  1.2045  1.6096 -1.3052
13607TIP3   OH262235   2.921   5.936  11.424  0.2133  0.3332  0.1781
13607TIP3    H162236   2.843   5.885  11.402  0.5225 -0.7484  1.4546
13607TIP3    H262237   2.950   5.900  11.508  1.3384  1.5971  0.3567
13608TIP3   OH262238   0.524   4.481  15.179 -0.3221 -0.4501  0.6230
13608TIP3    H162239   0.613   4.511  15.159 -0.6376 -0.5598 -1.0989
13608TIP3    H262240   0.532   4.386  15.183  0.2751 -0.3738  4.0312
13609TIP3   OH262241   2.417   0.535   3.996 -0.1601  0.1906 -0.7197
13609TIP3    H162242   2.337   0.484   4.008 -1.4500  2.0231 -0.9670
13609TIP3    H262243   2.442   0.519   3.905 -1.4031  1.0952 -1.2518
13610TIP3   OH262244   3.219   5.375  11.551 -0.1043 -0.2632 -0.3155
13610TIP3    H162245   3.213   5.461  11.509 -0.0777  0.0119  0.2404
13610TIP3    H262246   3.140   5.369  11.605  0.0629 -0.4442 -0.0897
13611TIP3   OH262247   3.291   5.718   0.799 -0.2921 -0.4110  0.2459
13611TIP3    H162248   3.331   5.703   0.885 -0.3443  0.2478  0.3896
13611TIP3    H262249   3.313   5.809   0.778 -0.4651 -0.5033 -0.3397
13612TIP3   OH262250   4.384   2.780   1.547 -0.7175  0.1410 -0.1106
13612TIP3    H162251   4.430   2.697   1.538 -0.2594  0.5420 -1.8727
13612TIP3    H262252   4.434   2.828   1.613 -0.4215 -0.6043  0.2181
13613TIP3   OH262253   0.190   3.072  14.936  0.0943  0.5016  0.5307
13613TIP3    H162254   0.155   3.098  15.021  1.0604 -1.2496  1.5104
13613TIP3    H262255   0.278   3.108  14.934  0.1377  0.3876  0.3458
13614TIP3   OH262256   3.568   2.852   3.785 -0.1827 -0.4301  0.3844
13614TIP3    H162257   3.522   2.927   3.748 -1.4648 -1.5124 -0.3349
13614TIP3    H262258   3.581   2.874   3.877 -0.1557  0.8301  0.0945
13615TIP3   OH262259   3.696   5.653   2.584  0.1554 -0.4890 -0.0218
13615TIP3    H162260   3.770   5.602   2.553  0.5048  0.8531 -1.5511
13615TIP3    H262261   3.629   5.588   2.605  0.9225 -1.6127 -0.9284
13616TIP3   OH262262   3.253   5.785   5.022  0.4089 -0.0980  0.0947
13616TIP3    H162263   3.225   5.843   5.094  1.3070 -2.0560  2.1576
13616TIP3    H262264   3.172   5.758   4.980 -0.1177  1.4311  0.0846
13617TIP3   OH262265   1.527   4.191  14.424 -0.3163  0.2816  0.4965
13617TIP3    H162266   1.596   4.256  14.416 -0.1216  0.0793  0.5185
13617TIP3    H262267   1.518   4.177  14.519 -1.5321  1.5200  0.6025
13618TIP3   OH262268   3.839   1.927   6.341  0.4745  0.8392 -0.4121
13618TIP3    H162269   3.911   1.985   6.367 -0.9636  2.1542  0.8741
13618TIP3    H262270   3.878   1.867   6.278  2.8095  1.1906  0.5837
13619TIP3   OH262271   4.133   1.358  16.422  0.0155 -0.1038 -0.3231
13619TIP3    H162272   4.042   1.356  16.393  0.2701  1.7326 -1.3961
13619TIP3    H262273   4.170   1.435  16.379  2.1914 -1.0294 -0.2148
13620TIP3   OH262274   2.352   4.786  16.104  0.4552  0.2884 -0.3141
13620TIP3    H162275   2.313   4.729  16.038  1.6055 -0.5788 -0.2725
13620TIP3    H262276   2.431   4.740  16.133  1.0664  1.5924  0.2058
13621TIP3   OH262277   5.597   2.599   1.077 -0.2978  0.3634  0.3438
13621TIP3    H162278   5.612   2.670   1.014  1.4710 -0.2425  0.0225
13621TIP3    H262279   5.628   2.521   1.032 -0.7216 -0.3608  1.2912
13622TIP3   OH262280   4.154   4.766   4.618  0.0632  0.4716 -0.5266
13622TIP3    H162281   4.191   4.708   4.551 -0.6639 -0.4342 -0.1572
13622TIP3    H262282   4.125   4.844   4.568 -1.0755 -0.4650 -1.3928
13623TIP3   OH262283   4.046   5.475  12.868  0.4233  0.0242 -0.9928
13623TIP3    H162284   3.964   5.429  12.881 -0.0064  0.5701 -1.6874
13623TIP3    H262285   4.114   5.413  12.894 -0.1496 -0.9155 -1.7157
13624TIP3   OH262286   6.443   1.996   3.539 -0.2381 -0.8844  0.1131
13624TIP3    H162287   6.474   2.084   3.518 -1.2308 -0.4464  0.4242
13624TIP3    H262288   6.426   1.956   3.454  1.3231 -1.2195 -0.0838
13625TIP3   OH262289   4.281   1.163   3.794  0.6531 -0.6797 -0.4480
13625TIP3    H162290   4.297   1.070   3.811  1.5718 -0.5954 -0.8066
13625TIP3    H262291   4.215   1.188   3.859 -0.0069 -1.7036 -0.6877
13626TIP3   OH262292   2.930   3.142  15.567 -0.5747  0.7341  0.4811
13626TIP3    H162293   2.957   3.065  15.616 -1.2008 -0.2341 -0.6320
13626TIP3    H262294   2.834   3.135  15.563 -0.7384  2.1580  1.2785
13627TIP3   OH262295   1.174   1.030   1.526 -0.0093 -0.0969 -0.0214
13627TIP3    H162296   1.182   0.949   1.475 -2.2696 -1.0185  0.9682
13627TIP3    H262297   1.080   1.038   1.544  0.1809  2.6537  0.1083
13628TIP3   OH262298   5.134   2.478   4.736  0.3876 -0.3315  0.8654
13628TIP3    H162299   5.197   2.548   4.721  0.4096  0.2060  3.2016
13628TIP3    H262300   5.184   2.408   4.779 -0.0532 -1.0101  0.3089
13629TIP3   OH262301   3.346   6.514  13.468 -0.3170  0.0780 -0.3514
13629TIP3    H162302   3.278   6.581  13.456 -0.9019 -0.8391 -3.0614
13629TIP3    H262303   3.406   6.529  13.394  1.0347 -0.7184  0.5560
13630TIP3   OH262304   6.680   0.290  12.178 -0.4237 -0.3169 -0.4050
13630TIP3    H162305   6.643   0.254  12.098  0.4120  1.5883 -1.7143
13630TIP3    H262306   6.752   0.231  12.201 -0.2329 -0.4979 -1.4574
13631TIP3   OH262307   0.618   4.784   1.532 -0.2455  0.0825  0.1235
13631TIP3    H162308   0.636   4.698   1.571 -0.1793  0.5114  1.0439
13631TIP3    H262309   0.680   4.791   1.460 -0.6716 -0.9104 -0.3599
13632TIP3   OH262310   0.895   0.105  15.512 -0.4924 -0.2216  0.1860
13632TIP3    H162311   0.892   0.042  15.440 -1.6130 -1.7033  1.4708
13632TIP3    H262312   0.803   0.124  15.531 -0.2426  2.9644 -1.0635
13633TIP3   OH262313   1.591   2.463   4.398  0.3221 -0.0418  0.2732
13633TIP3    H162314   1.589   2.488   4.306 -0.9799 -0.3035  0.2093
13633TIP3    H262315   1.604   2.369   4.398 -0.5144 -0.1613  0.3243
13634TIP3   OH262316   1.071   5.082  15.610  0.3691  0.4574  0.6308
13634TIP3    H162317   1.115   5.107  15.528  1.7070 -0.6959  0.9671
13634TIP3    H262318   1.074   5.161  15.664  0.7895  0.7997  0.1166
13635TIP3   OH262319   5.267   5.162   5.997  0.1673  0.0535  0.3408
13635TIP3    H162320   5.186   5.157   6.048  0.0111  1.3639  0.2489
13635TIP3    H262321   5.337   5.159   6.063  0.1180 -1.8444  0.3781
13636TIP3   OH262322   6.709   5.127  11.820  0.2001 -0.4376  0.0249
13636TIP3    H162323   6.705   5.212  11.863  0.6445  0.4884 -1.6614
13636TIP3    H262324   6.630   5.081  11.850  0.1157  0.4370  1.2022
13637TIP3   OH262325   5.280   1.075   4.831 -0.1664 -0.4136 -0.1321
13637TIP3    H162326   5.320   0.994   4.861 -0.2566 -0.7781 -0.9692
13637TIP3    H262327   5.345   1.143   4.850  0.1918 -0.7778 -0.0529
13638TIP3   OH262328   5.809   0.868   1.427  0.1677 -0.0237 -0.2315
13638TIP3    H162329   5.791   0.939   1.488 -0.7342  0.2746 -0.8147
13638TIP3    H262330   5.774   0.899   1.343 -0.3368 -1.1833 -0.4803
13639TIP3   OH262331   4.032   6.160  13.712 -0.2308 -0.3955 -0.0471
13639TIP3    H162332   4.114   6.180  13.757 -0.2607 -0.3844  0.0023
13639TIP3    H262333   3.993   6.245  13.695  0.3528 -0.3384 -1.1665
13640TIP3   OH262334   3.375   6.218   4.426  0.4776 -0.6544  0.0010
13640TIP3    H162335   3.353   6.145   4.485  2.5144 -0.8745  0.5752
13640TIP3    H262336   3.291   6.261   4.409 -0.3611 -1.3480  2.0467
13641TIP3   OH262337   4.068   0.975   4.058 -0.2629  0.5022 -0.1651
13641TIP3    H162338   3.997   0.912   4.049  1.0489 -1.1639  0.6181
13641TIP3    H262339   4.038   1.052   4.010 -2.0071 -0.6382 -1.0029
13642TIP3   OH262340   5.642   5.105  14.387 -0.4330 -0.2255 -0.0489
13642TIP3    H162341   5.672   5.064  14.306  1.1695 -1.2497  0.9954
13642TIP3    H262342   5.697   5.183  14.396  0.7769 -1.1426  0.9641
13643TIP3   OH262343   6.002   2.322  12.200  0.0299 -0.0613  0.6792
13643TIP3    H162344   5.930   2.284  12.148 -0.2085 -0.1844  1.0976
13643TIP3    H262345   6.019   2.406  12.158 -0.6639  0.1695  0.8403
13644TIP3   OH262346   6.239   1.216   1.011  0.1456  0.7598  0.0114
13644TIP3    H162347   6.334   1.230   1.009  0.3070 -0.1047  0.9462
13644TIP3    H262348   6.202   1.304   1.008  0.9926  1.1364  0.2578
13645TIP3   OH262349   0.811   1.556   0.868 -0.1201 -0.1734 -0.8098
13645TIP3    H162350   0.777   1.472   0.898 -0.3885 -0.5792 -2.1910
13645TIP3    H262351   0.904   1.552   0.888  0.3105 -1.7285 -2.7349
13646TIP3   OH262352   1.972   6.327   5.257  0.1350  0.2045  0.0865
13646TIP3    H162353   2.047   6.376   5.290  0.0051  0.1837  0.4196
13646TIP3    H262354   1.910   6.395   5.230  0.4549  0.2259 -0.6315
13647TIP3   OH262355   1.257   6.559  16.740 -0.5078 -0.6787  0.0139
13647TIP3    H162356   1.255   6.623  16.810  2.2743 -1.0355  0.5210
13647TIP3    H262357   1.323   6.495  16.767  0.5426 -0.9341 -2.8167
13648TIP3   OH262358   5.826   5.125   6.125 -0.5605  0.4524  0.2648
13648TIP3    H162359   5.757   5.087   6.072 -1.3650  0.1794  1.4525
13648TIP3    H262360   5.786   5.137   6.212  1.6217 -2.4498  1.8623
13649TIP3   OH262361   5.400   5.579   4.154  0.1915 -0.5870 -0.3334
13649TIP3    H162362   5.418   5.561   4.246 -0.7106 -0.1623 -0.0587
13649TIP3    H262363   5.426   5.671   4.143 -1.4874 -0.0259  0.0191
13650TIP3   OH262364   1.890   2.434   6.078  0.4982  0.4556 -0.0327
13650TIP3    H162365   1.846   2.456   6.160  0.0229 -0.0984 -0.1293
13650TIP3    H262366   1.980   2.412   6.103 -0.0192 -1.1475  0.5471
13651TIP3   OH262367   6.224   4.346   0.710  0.2600  0.2364  0.2545
13651TIP3    H162368   6.207   4.434   0.677 -2.4453 -0.8209 -1.5462
13651TIP3    H262369   6.261   4.299   0.636 -0.4966 -0.7082  0.4551
13652TIP3   OH262370   2.968   3.921   6.075 -0.7225  0.0458  0.1482
13652TIP3    H162371   3.048   3.894   6.120  1.7399  3.5295 -1.6341
13652TIP3    H262372   2.916   3.966   6.142  0.1752  0.1877  0.7636
13653TIP3   OH262373   2.469   1.476   1.346 -0.0183 -0.0759  0.7218
13653TIP3    H162374   2.456   1.387   1.379 -0.2587 -0.4730 -0.4029
13653TIP3    H262375   2.396   1.490   1.286  1.5370 -0.2006 -1.2941
13654TIP3   OH262376   4.661   0.125  13.771 -0.1387 -0.0161  0.5505
13654TIP3    H162377   4.751   0.105  13.745  0.1843 -0.9328  2.2520
13654TIP3    H262378   4.662   0.219  13.791 -0.4872  0.8566 -2.8011
13655TIP3   OH262379   1.155   0.222  10.313 -0.7176 -0.5046 -0.0760
13655TIP3    H162380   1.234   0.221  10.366 -1.4168  0.3493  1.0378
13655TIP3    H262381   1.172   0.160  10.242  1.2263  0.2047 -0.2888
13656TIP3   OH262382   6.545   1.977   5.226 -0.4360  0.1864 -0.0205
13656TIP3    H162383   6.571   2.065   5.253  0.8030 -0.5302  1.2903
13656TIP3    H262384   6.454   1.986   5.196 -0.1995  1.9571 -0.2902
13657TIP3   OH262385   4.922   5.874  17.118 -0.2318  0.7162 -0.4981
13657TIP3    H162386   4.845   5.825  17.090  0.0673 -0.6467  0.9601
13657TIP3    H262387   4.990   5.850  17.055 -0.2516 -0.2971 -0.1475
13658TIP3   OH262388   0.244   1.054  15.669  0.1065 -0.1723  0.3327
13658TIP3    H162389   0.250   0.986  15.737  1.4930  0.4566  0.8803
13658TIP3    H262390   0.184   1.119  15.706  0.1536 -0.2682  0.5845
13659TIP3   OH262391   2.499   4.769  11.596  0.6596 -0.5812 -0.1483
13659TIP3    H162392   2.404   4.777  11.610  0.6016  1.2441 -1.2953
13659TIP3    H262393   2.518   4.678  11.619 -1.3455 -0.9676  0.2282
13660TIP3   OH262394   0.167   3.149  11.417  0.1420 -0.0375  0.3614
13660TIP3    H162395   0.106   3.191  11.356 -0.4529 -0.4001  0.6984
13660TIP3    H262396   0.235   3.214  11.432 -0.9533  0.9559  1.1590
13661TIP3   OH262397   4.199   4.626  11.538  0.2312 -0.0512 -0.2240
13661TIP3    H162398   4.241   4.582  11.612  1.7177  0.3246 -0.7900
13661TIP3    H262399   4.146   4.695  11.579 -2.0529 -2.2046  0.6575
13662TIP3   OH262400   0.125   5.221  16.831 -0.1524 -0.2312  0.4305
13662TIP3    H162401   0.189   5.153  16.855  2.3289  1.6982 -0.3359
13662TIP3    H262402   0.099   5.199  16.742  1.8130  0.5783 -0.3928
13663TIP3   OH262403   2.796   6.017  16.758  0.0356  0.1323 -0.0480
13663TIP3    H162404   2.890   5.995  16.757 -0.2691 -1.2691 -1.3114
13663TIP3    H262405   2.791   6.101  16.712  0.5099 -0.7299 -1.7739
13664TIP3   OH262406   4.225   4.964  16.682  0.1903  0.0662  0.2633
13664TIP3    H162407   4.263   4.904  16.618 -1.4486 -0.3095 -0.4095
13664TIP3    H262408   4.280   4.954  16.760  0.7557 -1.3003 -0.2786
13665TIP3   OH262409   6.657   5.904   3.889 -0.0152 -0.6773 -0.0704
13665TIP3    H162410   6.639   5.942   3.803 -0.7963 -1.3492 -0.2213
13665TIP3    H262411   6.632   5.971   3.951 -0.4206 -0.5658 -0.3524
13666TIP3   OH262412   6.781   2.573   3.066 -1.0708 -0.2590 -0.4009
13666TIP3    H162413   6.700   2.537   3.031 -1.5868 -0.2774  0.7459
13666TIP3    H262414   6.799   2.519   3.143 -0.1603 -0.0241 -0.4420
13667TIP3   OH262415   1.165   5.489   2.861 -0.0488  0.1446  0.8534
13667TIP3    H162416   1.221   5.544   2.915  0.1400  0.2806  0.5246
13667TIP3    H262417   1.205   5.492   2.774  0.0239 -0.5881  0.8510
13668TIP3   OH262418   0.959   3.271  16.704  0.2238 -0.0688  0.6518
13668TIP3    H162419   1.006   3.347  16.739 -2.6270  2.3746 -0.3512
13668TIP3    H262420   0.887   3.257  16.766 -2.0386  1.2209 -1.4855
13669TIP3   OH262421   2.539   4.214   3.168 -0.0123  0.3046  0.1863
13669TIP3    H162422   2.493   4.278   3.113  0.2658  0.5113  0.1905
13669TIP3    H262423   2.580   4.154   3.106 -2.8264 -1.7810  0.1459
13670TIP3   OH262424   6.627   3.339   3.526 -0.1216  0.6292 -0.3914
13670TIP3    H162425   6.592   3.414   3.574 -2.7492 -0.9843  0.4470
13670TIP3    H262426   6.675   3.289   3.592 -2.2948 -0.7141  0.2640
13671TIP3   OH262427   3.177   4.135  11.098  0.1489  0.0270 -0.4658
13671TIP3    H162428   3.207   4.126  11.188 -0.8325  0.4053 -0.0885
13671TIP3    H262429   3.083   4.116  11.102 -0.0159  0.6105 -1.2985
13672TIP3   OH262430   1.684   5.570   0.751 -0.5122 -0.2532  0.1950
13672TIP3    H162431   1.738   5.502   0.793  1.3558  0.4868 -0.9086
13672TIP3    H262432   1.603   5.572   0.803  0.1045 -2.0878  1.3114
13673TIP3   OH262433   2.986   4.625  13.699 -0.0290  0.0087 -0.0687
13673TIP3    H162434   3.016   4.650  13.787 -0.9637  3.1045 -0.5175
13673TIP3    H262435   2.891   4.615  13.708 -0.1705  0.6562 -0.7738
13674TIP3   OH262436   3.990   5.176   5.541  0.2035 -0.3411 -0.1458
13674TIP3    H162437   3.959   5.136   5.460 -0.2958  0.6392 -0.4617
13674TIP3    H262438   4.081   5.148   5.548  0.0535 -1.0020 -0.6748
13675TIP3   OH262439   1.540   3.570   2.340 -0.1662 -0.2008 -0.0321
13675TIP3    H162440   1.563   3.490   2.294 -0.0757  0.3023 -0.8969
13675TIP3    H262441   1.445   3.578   2.328 -0.2005 -0.2728  0.2009
13676TIP3   OH262442   5.564   1.057  13.723  0.1763 -0.2566  0.1201
13676TIP3    H162443   5.646   1.105  13.709 -0.3945  0.6658 -0.1438
13676TIP3    H262444   5.570   1.026  13.813  0.4871  0.4676  0.3591
13677TIP3   OH262445   4.146   6.630  11.195  0.6176  0.0964 -0.1911
13677TIP3    H162446   4.200   6.586  11.130  0.7384 -0.6166  0.3788
13677TIP3    H262447   4.063   6.582  11.194  1.0873 -0.8069  1.1252
13678TIP3   OH262448   2.726   5.438   6.058 -0.3747 -0.2895  0.3080
13678TIP3    H162449   2.812   5.403   6.082  0.2267  0.3120 -0.8749
13678TIP3    H262450   2.715   5.515   6.114  0.0979 -0.0728  0.1072
13679TIP3   OH262451   3.772   1.375  14.693 -0.3593 -0.0578  0.4714
13679TIP3    H162452   3.692   1.369  14.746 -1.4874  1.1839 -1.0016
13679TIP3    H262453   3.813   1.457  14.721  0.5311 -0.7814  1.3514
13680TIP3   OH262454   0.987   2.673  12.105  0.8676 -0.2193 -0.2007
13680TIP3    H162455   0.982   2.582  12.075 -0.3084 -1.0020  2.1667
13680TIP3    H262456   0.901   2.691  12.143  1.3950  1.5797  0.2315
13681TIP3   OH262457   2.046   6.552   3.097 -0.0487 -0.0797 -0.2621
13681TIP3    H162458   2.103   6.485   3.058  2.8912  1.2623  1.3966
13681TIP3    H262459   1.966   6.548   3.045  1.4500 -2.2370 -2.6777
13682TIP3   OH262460   6.699   5.839  12.030  0.6950 -0.3124  0.4741
13682TIP3    H162461   6.785   5.873  12.055  1.0423 -0.5112 -0.4097
13682TIP3    H262462   6.718   5.769  11.967 -0.1538  0.7711 -1.0547
13683TIP3   OH262463   4.454   1.367  12.622  0.1593  0.3252  0.7206
13683TIP3    H162464   4.541   1.369  12.582 -0.0605  0.0475  0.2254
13683TIP3    H262465   4.471   1.366  12.716  0.8515 -3.3703  0.7203
13684TIP3   OH262466   4.037   5.436   2.749  0.6031  0.1084 -0.2370
13684TIP3    H162467   4.116   5.417   2.698 -0.6808 -0.2762 -2.1460
13684TIP3    H262468   3.967   5.440   2.685 -0.7470  1.8192  1.2435
13685TIP3   OH262469   1.550   5.295   4.889 -0.0607  0.1059 -0.6378
13685TIP3    H162470   1.487   5.310   4.960  0.5640  0.8708 -0.2326
13685TIP3    H262471   1.622   5.247   4.930 -0.8216 -1.7277 -1.3325
13686TIP3   OH262472   1.914   2.907  15.558  0.3712  0.0819 -0.5837
13686TIP3    H162473   1.952   2.971  15.617 -0.2203  1.1054 -1.2831
13686TIP3    H262474   1.974   2.904  15.483 -0.5568  1.2576 -1.4165
13687TIP3   OH262475   6.223   0.882  15.692 -0.4871 -0.2392 -0.0434
13687TIP3    H162476   6.253   0.969  15.719  0.2111 -1.0766  2.0754
13687TIP3    H262477   6.293   0.848  15.637 -1.2026  0.8698 -1.7243
13688TIP3   OH262478   2.082   2.179   4.732 -0.0736  0.5828 -0.7060
13688TIP3    H162479   2.174   2.155   4.742  0.3223  2.0747 -0.4515
13688TIP3    H262480   2.034   2.096   4.737  1.0462 -0.0142  1.7286
13689TIP3   OH262481   1.172   4.937   4.593 -0.3904 -0.2482  0.6757
13689TIP3    H162482   1.177   4.912   4.686  0.3815 -0.5626  0.5599
13689TIP3    H262483   1.157   4.854   4.548  1.3460 -0.4148  0.3525
13690TIP3   OH262484   6.340   1.832  15.403 -0.7551  0.1827 -0.5531
13690TIP3    H162485   6.256   1.839  15.357 -0.6602 -0.6398 -0.8639
13690TIP3    H262486   6.322   1.777  15.479 -0.6734  0.6790 -0.1658
13691TIP3   OH262487   3.630   6.229   2.562 -0.0112  0.1926  0.6077
13691TIP3    H162488   3.652   6.295   2.496  1.8862  1.1352  2.0861
13691TIP3    H262489   3.701   6.165   2.558 -2.4808 -2.6858 -1.7391
13692TIP3   OH262490   5.961   0.540  14.787  0.5073 -0.4853  0.0411
13692TIP3    H162491   5.968   0.530  14.882 -2.2331  1.1777  0.5463
13692TIP3    H262492   5.874   0.505  14.766  1.7240 -2.4428 -2.2071
13693TIP3   OH262493   5.175   1.453  12.277 -0.2083  0.1782  0.0305
13693TIP3    H162494   5.179   1.392  12.203 -1.1208 -0.2393  0.3162
13693TIP3    H262495   5.094   1.503  12.262  0.7703  1.6683 -0.4638
13694TIP3   OH262496   0.594   0.147  16.802 -0.0553  0.1757 -0.7849
13694TIP3    H162497   0.611   0.064  16.758  1.7607  0.2137 -0.2220
13694TIP3    H262498   0.507   0.173  16.772 -0.1092 -1.2790 -1.9722
13695TIP3   OH262499   0.545   6.464   2.236 -0.2859  0.4546  0.2101
13695TIP3    H162500   0.504   6.379   2.253  0.9142 -0.6427 -1.9445
13695TIP3    H262501   0.639   6.444   2.232 -0.0001  1.8575 -0.4998
13696TIP3   OH262502   5.655   2.739  11.337 -0.1505 -0.6696 -0.4888
13696TIP3    H162503   5.648   2.704  11.425  0.1615 -0.8180 -0.5191
13696TIP3    H262504   5.584   2.697  11.288  0.9821 -2.2672 -0.8439
13697TIP3   OH262505   4.378   3.887  10.460  0.9688  0.0868 -0.0040
13697TIP3    H162506   4.414   3.976  10.462 -1.0391  0.9500  0.2186
13697TIP3    H262507   4.301   3.894  10.403  0.6635 -1.4743  0.1700
13698TIP3   OH262508   2.093   2.035  15.134  0.3849 -0.4894 -0.0975
13698TIP3    H162509   2.104   1.947  15.097  0.6781 -2.2887  3.6852
13698TIP3    H262510   2.019   2.026  15.195 -0.4584  2.3209 -0.5717
13699TIP3   OH262511   6.278   4.234   0.478  0.1211 -0.3011  0.3364
13699TIP3    H162512   6.217   4.172   0.438  1.5699 -1.7485  0.2804
13699TIP3    H262513   6.272   4.312   0.423 -1.3341 -0.5536  0.0853
13700TIP3   OH262514   2.291   1.925   0.073 -0.3264 -0.0279  0.1052
13700TIP3    H162515   2.245   2.003   0.104  3.6141  1.8516  1.9851
13700TIP3    H262516   2.307   1.942  -0.019  0.6905  1.6168  0.5375
13701TIP3   OH262517   3.335   2.654   4.849 -0.4445  0.2762  0.0460
13701TIP3    H162518   3.344   2.702   4.932  1.2061  1.2193 -0.6239
13701TIP3    H262519   3.254   2.604   4.859 -1.4758  2.0790  1.3694
13702TIP3   OH262520   2.058   4.990   2.821  0.5727 -0.3098 -0.0652
13702TIP3    H162521   2.117   4.925   2.858  0.7572 -1.3445 -2.0303
13702TIP3    H262522   2.095   5.010   2.735 -0.2575  1.3522 -0.0717
13703TIP3   OH262523   1.188   0.142  15.241 -0.8571  0.6327 -0.3905
13703TIP3    H162524   1.216   0.193  15.318  0.0672 -1.1801  0.5533
13703TIP3    H262525   1.269   0.128  15.192 -0.8308 -1.0570  0.0971
13704TIP3   OH262526   0.096   1.828   6.353 -0.0198  0.0568 -0.1490
13704TIP3    H162527   0.006   1.851   6.330 -0.6326 -0.2014  1.8291
13704TIP3    H262528   0.092   1.735   6.374  0.8689 -0.1170 -0.7043
13705TIP3   OH262529   3.805   5.360   2.878 -0.2455  0.5550  0.6270
13705TIP3    H162530   3.823   5.321   2.963  2.8977 -0.5628 -0.4361
13705TIP3    H262531   3.891   5.380   2.842 -1.5415  2.7117 -1.5573
13706TIP3   OH262532   5.904   2.560   5.813  0.3590  0.1877  0.0165
13706TIP3    H162533   5.945   2.609   5.885 -0.6344  1.1496 -0.0347
13706TIP3    H262534   5.838   2.505   5.856  1.7095 -1.4100  0.1095
13707TIP3   OH262535   6.379   3.736  16.206  0.4147  0.0122 -0.1072
13707TIP3    H162536   6.392   3.679  16.129  0.5877 -1.0012  0.6451
13707TIP3    H262537   6.317   3.688  16.261  1.7833 -0.2316  1.2887
13708TIP3   OH262538   1.639   2.296   2.938 -0.4586 -0.1883  0.5082
13708TIP3    H162539   1.595   2.285   2.854 -0.0016 -0.7790  0.3447
13708TIP3    H262540   1.731   2.303   2.917 -0.3644 -0.0537  0.9428
13709TIP3   OH262541   0.556   0.449   5.461 -0.0031 -0.6038  0.7328
13709TIP3    H162542   0.572   0.508   5.534 -3.5476 -1.1716  2.2086
13709TIP3    H262543   0.559   0.361   5.501 -0.3922 -1.0355 -0.1656
13710TIP3   OH262544   6.131   3.006   1.527  0.5933 -0.2439 -0.1800
13710TIP3    H162545   6.219   3.033   1.501  0.9759  0.0433  1.3176
13710TIP3    H262546   6.082   3.087   1.536  0.3361 -0.3683 -0.4316
13711TIP3   OH262547   6.334   1.264  14.315  0.0324  0.8447  0.5461
13711TIP3    H162548   6.301   1.194  14.259  2.6240 -1.8888  2.0957
13711TIP3    H262549   6.319   1.232  14.404  1.7056  2.0260  1.3039
13712TIP3   OH262550   1.107   2.049   0.622 -0.1710  0.2365 -0.1455
13712TIP3    H162551   1.199   2.042   0.595 -0.0803 -1.1266  0.4299
13712TIP3    H262552   1.109   2.034   0.717 -1.1067 -1.1226 -0.3109
13713TIP3   OH262553   3.536   0.994   3.830  0.3264 -0.0735  0.0306
13713TIP3    H162554   3.539   0.975   3.736 -0.6889  0.5324 -0.1482
13713TIP3    H262555   3.536   0.908   3.872 -0.3939 -0.3903 -0.5829
13714TIP3   OH262556   1.471   5.943   2.985 -0.2341  0.2409  0.0404
13714TIP3    H162557   1.492   5.855   3.014  0.9494 -0.2362 -2.0258
13714TIP3    H262558   1.459   5.993   3.065 -0.6579 -1.7063  1.2677
13715TIP3   OH262559   6.131   3.212   3.721 -0.3720 -0.2649 -0.1810
13715TIP3    H162560   6.117   3.120   3.697  0.4922 -0.2978 -0.6157
13715TIP3    H262561   6.102   3.218   3.812 -0.7648 -0.8872 -0.2624
13716TIP3   OH262562   3.290   3.395   1.856  0.8382  0.5372  0.2619
13716TIP3    H162563   3.280   3.463   1.789 -0.6592  0.3109  0.2048
13716TIP3    H262564   3.382   3.370   1.852  1.0543  1.4265 -0.8312
13717TIP3   OH262565   1.557   4.831   3.681 -0.1557 -0.0289 -0.2836
13717TIP3    H162566   1.610   4.769   3.631 -0.4404  0.4925 -1.2551
13717TIP3    H262567   1.469   4.791   3.683  0.5855 -1.9266  3.0781
13718TIP3   OH262568   6.404   4.550  15.334 -0.6886  0.3570 -0.2749
13718TIP3    H162569   6.401   4.552  15.238  1.2597  1.6956 -0.3585
13718TIP3    H262570   6.488   4.508  15.354 -0.3721  1.4521  0.8003
13719TIP3   OH262571   4.065   0.126   4.908  0.3044 -0.0805  0.0901
13719TIP3    H162572   4.030   0.170   4.831  0.9219  0.5247  0.1376
13719TIP3    H262573   4.058   0.191   4.978  0.2809 -0.4202  0.4061
13720TIP3   OH262574   0.244   4.809  11.650 -0.4458 -0.3254  0.3651
13720TIP3    H162575   0.277   4.784  11.563  0.8775  0.0090  0.7413
13720TIP3    H262576   0.149   4.799  11.644 -0.3114 -1.0782 -0.8753
13721TIP3   OH262577   3.730   6.530   1.650 -0.3155  0.3461  0.2221
13721TIP3    H162578   3.713   6.602   1.710  0.2977  1.4538 -0.9030
13721TIP3    H262579   3.777   6.466   1.703  1.0177  1.6895  0.7157
13722TIP3   OH262580   6.675   0.369  14.180  1.0096 -0.3888 -0.0357
13722TIP3    H162581   6.610   0.304  14.153 -1.6124  2.0258 -0.0834
13722TIP3    H262582   6.705   0.407  14.097  0.6985  0.0506  0.0460
13723TIP3   OH262583   4.123   2.813   0.820  0.3143  0.0915 -0.0018
13723TIP3    H162584   4.160   2.840   0.904 -2.7347  0.4428  1.3572
13723TIP3    H262585   4.099   2.721   0.834 -0.1037  0.1192 -0.5323
13724TIP3   OH262586   0.513   1.467   5.718  0.4123 -0.2573 -0.0012
13724TIP3    H162587   0.444   1.513   5.766  0.5120 -1.1857  1.0866
13724TIP3    H262588   0.509   1.377   5.751  1.6078 -0.5194 -0.5157
13725TIP3   OH262589   0.972   0.579   3.857 -0.7522 -0.4602  0.2494
13725TIP3    H162590   1.054   0.609   3.897 -0.7610 -0.5625  0.3432
13725TIP3    H262591   0.976   0.612   3.767 -0.0822 -1.4367 -0.0956
13726TIP3   OH262592   6.747   2.199   6.252 -0.3557 -0.2459 -0.3091
13726TIP3    H162593   6.773   2.167   6.338  1.3111 -1.0427 -1.0537
13726TIP3    H262594   6.807   2.271   6.234  0.2275 -0.9567 -1.3366
13727TIP3   OH262595   6.278   5.266   1.143  0.3901 -0.3755 -0.4528
13727TIP3    H162596   6.332   5.323   1.088  0.5464 -1.0029 -0.9698
13727TIP3    H262597   6.339   5.199   1.174  0.0294 -0.7651 -0.5778
13728TIP3   OH262598   5.958   2.030   3.556  0.1171  0.1951 -0.7326
13728TIP3    H162599   6.022   2.057   3.622 -1.0787 -0.5405  0.7784
13728TIP3    H262600   6.012   2.007   3.480  1.5716  0.5845  0.1241
13729TIP3   OH262601   2.563   0.716  12.119  0.0314 -0.3863 -0.4788
13729TIP3    H162602   2.649   0.675  12.110  0.2246 -0.3098  0.8794
13729TIP3    H262603   2.580   0.803  12.155 -0.6411 -0.5935  0.3798
13730TIP3   OH262604   6.770   2.730   5.176  0.0052  0.2880 -0.2263
13730TIP3    H162605   6.764   2.768   5.088  0.7470  3.8313  1.0997
13730TIP3    H262606   6.697   2.770   5.224 -0.3659 -1.5468  0.8130
13731TIP3   OH262607   4.379   0.916  15.069  0.0622 -0.0780 -0.5826
13731TIP3    H162608   4.423   0.877  14.994  0.7894 -1.9242  0.6943
13731TIP3    H262609   4.311   0.852  15.092  0.7592 -0.2898  1.1072
13732TIP3   OH262610   4.886   4.834   3.561 -0.0551  0.4297  0.0155
13732TIP3    H162611   4.974   4.818   3.527 -0.3789  0.1010 -0.6947
13732TIP3    H262612   4.833   4.852   3.483 -0.3322  2.0657  0.5399
13733TIP3   OH262613   1.754   0.278  15.387  0.4375 -0.7694  0.2428
13733TIP3    H162614   1.685   0.320  15.438  0.2294  0.2728 -0.8721
13733TIP3    H262615   1.776   0.340  15.318  0.3465 -2.3500 -1.2940
13734TIP3   OH262616   6.113   1.440  14.550  0.2665  0.1900  0.1410
13734TIP3    H162617   6.171   1.377  14.507 -0.3069  1.7956 -3.2730
13734TIP3    H262618   6.172   1.496  14.601  1.1038 -1.1055  0.6496
13735TIP3   OH262619   1.657   3.725   4.984 -0.9041  0.1682 -0.4225
13735TIP3    H162620   1.621   3.686   4.905  1.3244 -0.7017 -1.0895
13735TIP3    H262621   1.691   3.651   5.035 -0.2907  0.8867  0.2587
13736TIP3   OH262622   3.911   6.507  11.144  0.2133 -0.1879  0.1200
13736TIP3    H162623   3.959   6.425  11.147  0.0967 -0.2315  1.2614
13736TIP3    H262624   3.928   6.542  11.056 -0.8240 -2.0718 -0.9003
13737TIP3   OH262625   3.386   4.609   4.595  0.7449 -0.0138  0.1730
13737TIP3    H162626   3.310   4.666   4.596 -1.3577 -2.2891 -4.3137
13737TIP3    H262627   3.448   4.651   4.535 -0.0438 -1.3960 -1.6961
13738TIP3   OH262628   0.397   4.064   0.055  0.3030  0.0941 -0.1995
13738TIP3    H162629   0.302   4.058   0.046  0.0438 -0.8392  2.2644
13738TIP3    H262630   0.432   4.010  -0.015 -1.0594 -1.1992  0.0736
13739TIP3   OH262631   4.041   6.762   5.601 -0.6453  0.2783 -0.1186
13739TIP3    H162632   3.978   6.735   5.667 -0.1288  0.4902  0.4664
13739TIP3    H262633   4.122   6.715   5.623  0.1232  1.8360  0.6126
13740TIP3   OH262634   5.218   0.618  14.030  0.3006 -0.1097  0.0345
13740TIP3    H162635   5.215   0.706  14.068  3.3120 -0.0264  0.2924
13740TIP3    H262636   5.295   0.619  13.974  1.0477 -2.8683  0.8508
13741TIP3   OH262637   3.441   4.306   3.955 -0.3430 -0.8038 -0.8585
13741TIP3    H162638   3.465   4.329   4.045 -1.1992  0.3598 -0.9008
13741TIP3    H262639   3.518   4.261   3.920  0.5150 -0.0630  0.0266
13742TIP3   OH262640   2.176   0.388   5.670 -0.6707 -0.0069 -0.3620
13742TIP3    H162641   2.214   0.443   5.602 -1.6872 -0.8019 -1.6339
13742TIP3    H262642   2.176   0.442   5.748  3.1161  0.0083 -0.2215
13743TIP3   OH262643   5.919   0.995   2.371 -0.1069  0.0500  0.8571
13743TIP3    H162644   5.863   0.919   2.390 -0.1506  0.2154  1.4338
13743TIP3    H262645   5.862   1.055   2.323 -0.1720 -0.1387  0.6958
13744TIP3   OH262646   1.249   3.609   0.705 -0.4131 -0.3389  0.0209
13744TIP3    H162647   1.251   3.526   0.753  0.1203  0.0228  0.6449
13744TIP3    H262648   1.287   3.589   0.619  0.7578 -0.5070  0.5655
13745TIP3   OH262649   1.542   3.233  16.783  0.4590  0.3131  0.1030
13745TIP3    H162650   1.537   3.244  16.688 -0.6800 -0.0346  0.1007
13745TIP3    H262651   1.529   3.139  16.797  1.9398  0.1494  0.5461
13746TIP3   OH262652   3.701   3.089  14.825  0.1517 -0.3852 -0.1232
13746TIP3    H162653   3.758   3.042  14.764  0.0022 -1.5901  0.6360
13746TIP3    H262654   3.753   3.163  14.855  0.6141 -0.3928 -0.8951
13747TIP3   OH262655   2.642   0.674   2.527  0.1433  0.1667  0.4311
13747TIP3    H162656   2.549   0.681   2.506  0.1185  1.5709  0.8406
13747TIP3    H262657   2.645   0.667   2.623  0.4410 -0.5644  0.3744
13748TIP3   OH262658   0.911   2.122  15.849 -0.3954 -0.5186  0.3341
13748TIP3    H162659   0.865   2.125  15.933 -1.3929 -1.6900 -0.1544
13748TIP3    H262660   0.908   2.031  15.823  0.2967 -0.2381 -0.7760
13749TIP3   OH262661   4.285   1.112  11.448  0.0684 -0.8522 -0.4057
13749TIP3    H162662   4.310   1.140  11.360 -0.1741 -2.1599 -0.9223
13749TIP3    H262663   4.225   1.039  11.433  0.2710 -1.2981  0.8501
13750TIP3   OH262664   5.275   3.855  15.156 -0.1690  0.0682  0.2022
13750TIP3    H162665   5.293   3.773  15.201 -1.2076  0.3054  1.1016
13750TIP3    H262666   5.211   3.900  15.211  0.2001  1.3902 -0.3862
13751TIP3   OH262667   2.485   2.068  15.675 -0.1558  0.1279 -0.5859
13751TIP3    H162668   2.514   2.024  15.595 -0.6862  1.5541 -1.6095
13751TIP3    H262669   2.389   2.062  15.672 -0.2310  1.1461 -0.6495
13752TIP3   OH262670   2.875   1.945   1.299  0.8333 -0.3291  0.0124
13752TIP3    H162671   2.900   1.926   1.209  0.7257  1.6263 -0.4720
13752TIP3    H262672   2.887   1.862   1.345 -1.1432 -1.9855 -2.2062
13753TIP3   OH262673   4.159   1.285   4.010  0.0944  0.1609  0.9148
13753TIP3    H162674   4.218   1.349   4.052  0.4583  1.6713 -1.7073
13753TIP3    H262675   4.075   1.331   4.003 -0.1240 -0.2961  0.5188
13754TIP3   OH262676   4.049   3.468   2.384  0.1104 -0.3464 -0.0884
13754TIP3    H162677   4.021   3.389   2.338 -0.1721  0.5979 -1.6369
13754TIP3    H262678   4.142   3.478   2.361  0.0669 -0.0764 -0.1553
13755TIP3   OH262679   1.517   4.858  12.868  0.3659 -0.4017 -0.5397
13755TIP3    H162680   1.495   4.915  12.794  0.1909  0.1226 -0.0956
13755TIP3    H262681   1.545   4.919  12.937  0.0696 -0.8524 -0.0150
13756TIP3   OH262682   4.144   2.270   2.789  0.3924  0.0805  0.0613
13756TIP3    H162683   4.119   2.360   2.770  1.8058  0.6430  0.7306
13756TIP3    H262684   4.195   2.275   2.869 -0.9074 -1.5537  1.0603
13757TIP3   OH262685   3.650   6.326   5.227 -0.6649 -0.4151  0.1182
13757TIP3    H162686   3.560   6.307   5.251 -0.9384  0.2778 -0.3426
13757TIP3    H262687   3.644   6.375   5.145  0.1604 -0.9751 -0.2914
13758TIP3   OH262688   5.681   3.433  14.373 -0.4194 -0.0819 -0.0110
13758TIP3    H162689   5.687   3.347  14.332 -1.3440  0.9461 -2.5183
13758TIP3    H262690   5.732   3.490  14.315 -0.0508  1.1205  1.4442
13759TIP3   OH262691   5.425   2.883  11.980 -0.4088  0.1278 -0.0661
13759TIP3    H162692   5.488   2.911  11.914 -0.3433  1.2026  0.4270
13759TIP3    H262693   5.477   2.875  12.060 -1.1509  2.9051  0.8096
13760TIP3   OH262694   3.997   0.351   6.456  0.3090  0.0329 -0.0338
13760TIP3    H162695   3.950   0.277   6.416  1.1247 -0.2261 -0.5586
13760TIP3    H262696   4.087   0.319   6.465  0.3040  0.3768  1.3189
13761TIP3   OH262697   2.450   4.030   0.091 -0.1060 -0.4256  0.1582
13761TIP3    H162698   2.507   4.105   0.078 -2.0594  1.1246  0.1169
13761TIP3    H262699   2.487   3.983   0.165  2.8413 -1.1502 -1.6204
13762TIP3   OH262700   6.083   4.366   2.426  0.4997  0.2371  0.2821
13762TIP3    H162701   6.052   4.289   2.474 -1.5283  1.0935  0.4391
13762TIP3    H262702   6.062   4.348   2.335  1.3136  0.0299  0.1271
13763TIP3   OH262703   2.953   0.243   5.297 -0.2637 -0.1614  0.3949
13763TIP3    H162704   3.039   0.253   5.336  0.4267 -1.0348 -0.8288
13763TIP3    H262705   2.966   0.182   5.224 -2.1520 -1.3797  0.9851
13764TIP3   OH262706   6.126   3.099   4.875  0.0632  0.3539 -0.1678
13764TIP3    H162707   6.102   3.045   4.949  1.5741 -0.2593 -0.0819
13764TIP3    H262708   6.124   3.039   4.800  1.0664  0.3082 -0.1808
13765TIP3   OH262709   6.133   3.616  13.580 -0.6934  0.9356  0.1428
13765TIP3    H162710   6.200   3.627  13.512 -2.5136  3.2837 -1.4479
13765TIP3    H262711   6.052   3.599  13.531 -1.5206 -0.5409  1.9264
13766TIP3   OH262712   2.116   0.601  11.991 -0.3002  0.1115 -0.4748
13766TIP3    H162713   2.158   0.684  12.012  0.1559 -0.0060 -0.8986
13766TIP3    H262714   2.056   0.585  12.064  0.5542  0.1711  0.2565
13767TIP3   OH262715   5.969   1.708  16.063 -0.1549 -0.0967 -0.3867
13767TIP3    H162716   5.908   1.755  16.121 -1.2158 -0.2421 -1.3436
13767TIP3    H262717   5.938   1.618  16.065  2.7615 -1.2390  2.6248
13768TIP3   OH262718   6.288   1.392  15.192 -0.5105 -0.0839  0.3370
13768TIP3    H162719   6.380   1.391  15.165 -0.7836  1.7588 -0.8608
13768TIP3    H262720   6.290   1.426  15.282 -0.0416  0.1305  0.2490
13769TIP3   OH262721   2.741   1.766  15.209 -0.4135  0.6144 -0.1911
13769TIP3    H162722   2.833   1.748  15.227 -0.6815  0.3922  1.0150
13769TIP3    H262723   2.734   1.861  15.210 -0.2388  0.6262 -0.0554
13770TIP3   OH262724   2.643   1.849  15.789 -0.5051 -0.4391 -0.4071
13770TIP3    H162725   2.566   1.795  15.805 -2.4693  1.4193 -2.8353
13770TIP3    H262726   2.632   1.883  15.700  2.7118  0.6309 -0.5525
13771TIP3   OH262727   3.328   2.892   1.294 -0.6527 -0.3124 -0.3279
13771TIP3    H162728   3.391   2.830   1.331 -2.0214 -1.1131  0.7551
13771TIP3    H262729   3.366   2.917   1.210  1.8189  0.3706  0.8961
13772TIP3   OH262730   0.536   4.474   3.012 -0.2391 -0.1476  0.4431
13772TIP3    H162731   0.607   4.482   3.075 -0.4852  0.6398  0.6311
13772TIP3    H262732   0.514   4.381   3.012  0.3920 -0.3006  0.8188
13773TIP3   OH262733   5.843   3.830  12.388  0.2808 -0.1441  0.0903
13773TIP3    H162734   5.861   3.896  12.321  1.6654 -0.5886 -0.0115
13773TIP3    H262735   5.774   3.869  12.442 -0.2990  0.5504 -1.1173
13774TIP3   OH262736   1.263   4.830  13.905  0.1217  0.3816  0.4960
13774TIP3    H162737   1.291   4.921  13.895 -0.2343  0.3489 -1.1053
13774TIP3    H262738   1.280   4.791  13.820 -1.6840 -0.5001  0.5032
13775TIP3   OH262739   2.290   5.928   1.333  0.6247 -0.4555 -0.4684
13775TIP3    H162740   2.268   6.019   1.352 -0.1582 -0.4241 -1.4287
13775TIP3    H262741   2.311   5.890   1.418  2.3170  0.9470 -0.2108
13776TIP3   OH262742   5.001   6.192   1.655  0.0179 -0.4446 -0.2423
13776TIP3    H162743   5.074   6.220   1.711 -1.3688  1.8949  0.5326
13776TIP3    H262744   5.016   6.237   1.572 -0.3276 -0.2485 -0.2007
13777TIP3   OH262745   2.189   4.224  14.357 -0.3403  0.3064 -0.1200
13777TIP3    H162746   2.118   4.208  14.294  1.0410  0.1472 -1.6909
13777TIP3    H262747   2.245   4.288  14.313  1.0560 -0.3584  0.6453
13778TIP3   OH262748   1.297   1.746   1.082  0.4696  0.0711 -0.1790
13778TIP3    H162749   1.228   1.688   1.048 -1.1682  2.7169 -1.6997
13778TIP3    H262750   1.373   1.727   1.027  0.0155 -0.7060 -0.5615
13779TIP3   OH262751   3.514   2.818  11.741 -0.2975 -0.0537  0.7657
13779TIP3    H162752   3.441   2.759  11.758  0.1780 -0.6676  0.7105
13779TIP3    H262753   3.583   2.789  11.800 -0.0623  0.4651  0.7551
13780TIP3   OH262754   3.858   3.337   0.503 -0.2333 -0.3639  0.1330
13780TIP3    H162755   3.770   3.354   0.469  0.4274  0.2535 -1.3495
13780TIP3    H262756   3.896   3.424   0.516  1.1933 -0.5611 -2.1652
13781TIP3   OH262757   6.016   6.336  11.458 -0.0625 -0.3029  0.7544
13781TIP3    H162758   6.091   6.298  11.502  1.2383 -0.8007 -1.7212
13781TIP3    H262759   6.046   6.422  11.429  0.2286 -1.1638 -1.7290
13782TIP3   OH262760   5.909   0.992  11.699 -0.0537 -0.4949 -0.5049
13782TIP3    H162761   5.912   0.898  11.680  1.1811 -0.2782 -1.5762
13782TIP3    H262762   6.000   1.014  11.720 -0.3547  0.4482 -0.1530
13783TIP3   OH262763   1.811   0.044  11.336 -0.1953 -0.4781  0.1437
13783TIP3    H162764   1.779   0.049  11.427 -0.7565  1.1736 -0.1169
13783TIP3    H262765   1.906   0.048  11.344 -0.2346 -0.4783  0.6642
13784TIP3   OH262766   0.209   3.368  13.789  0.0430 -0.2472  0.2600
13784TIP3    H162767   0.143   3.394  13.724  0.3932  0.2181  0.0804
13784TIP3    H262768   0.197   3.430  13.861 -2.0084 -2.2785  1.7852
13785TIP3   OH262769   1.433   4.579   1.311  0.2956  0.6597  0.3863
13785TIP3    H162770   1.476   4.664   1.320 -0.9649  1.3001  0.5518
13785TIP3    H262771   1.380   4.571   1.390 -1.0433  0.5809 -0.4852
13786TIP3   OH262772   2.780   1.714   0.473 -0.7656  0.4418  0.0558
13786TIP3    H162773   2.804   1.622   0.487  0.0288  0.6961  0.4436
13786TIP3    H262774   2.772   1.722   0.378  1.8035  0.5605 -0.2305
13787TIP3   OH262775   4.392   3.738   3.910  0.6885 -0.1523  0.3294
13787TIP3    H162776   4.351   3.822   3.929  0.4553  0.1581 -1.4027
13787TIP3    H262777   4.463   3.731   3.974 -1.1199 -0.0618  2.4770
13788TIP3   OH262778   6.329   2.252  13.346  0.3063  0.4010  0.1371
13788TIP3    H162779   6.407   2.239  13.400 -0.9209 -0.0658  1.8851
13788TIP3    H262780   6.281   2.322  13.391 -1.1459 -0.5664  0.1541
13789TIP3   OH262781   2.540   3.518   2.003 -0.4226  0.0764 -0.0266
13789TIP3    H162782   2.472   3.541   1.940 -0.1684 -1.0046 -0.7374
13789TIP3    H262783   2.578   3.438   1.967 -0.6716 -0.9108  1.8167
13790TIP3   OH262784   1.169   3.008   4.041 -0.1904  0.4749  0.0941
13790TIP3    H162785   1.200   2.920   4.063  0.3893 -0.3829 -3.5534
13790TIP3    H262786   1.246   3.063   4.048 -0.1780  0.3838  0.7549
13791TIP3   OH262787   2.452   5.680   5.125 -0.1071 -0.5714  0.1406
13791TIP3    H162788   2.538   5.703   5.159 -0.0145 -0.5498 -0.1053
13791TIP3    H262789   2.394   5.682   5.201  0.8832 -4.9869  1.3055
13792TIP3   OH262790   1.396   4.738   3.114 -0.4730 -0.4044 -0.0219
13792TIP3    H162791   1.350   4.695   3.043  0.6189 -0.8462 -0.4887
13792TIP3    H262792   1.389   4.831   3.095 -0.5083 -0.5070 -0.5115
13793TIP3   OH262793   3.394   6.529   1.185 -0.3332 -0.1247  0.3449
13793TIP3    H162794   3.338   6.598   1.150 -0.3964 -0.3391  0.0121
13793TIP3    H262795   3.413   6.556   1.274 -0.0024  0.5371  0.0807
13794TIP3   OH262796   3.568   5.869  16.900  0.0160  0.3181 -0.5378
13794TIP3    H162797   3.571   5.800  16.834  0.6253 -2.9711  2.5565
13794TIP3    H262798   3.659   5.896  16.912  0.1752 -0.4623  0.1473
13795TIP3   OH262799   5.867   6.039  15.592  0.2351 -0.1368  0.0083
13795TIP3    H162800   5.850   5.971  15.656  1.3919  1.6612  2.4030
13795TIP3    H262801   5.806   6.109  15.615  1.6961  1.1353  0.1667
13796TIP3   OH262802   1.327   5.485   5.895  0.3887 -0.0091 -0.3975
13796TIP3    H162803   1.369   5.472   5.810  0.6089  1.8561 -0.6312
13796TIP3    H262804   1.368   5.565   5.929 -1.4831  0.7152  0.3008
13797TIP3   OH262805   2.550   5.971  16.362 -0.3972  0.2139 -0.0228
13797TIP3    H162806   2.594   5.895  16.324  0.6544  0.3368  0.8837
13797TIP3    H262807   2.540   5.948  16.455 -0.7151  0.8962  0.1143
13798TIP3   OH262808   2.430   0.427  12.019  0.1328  0.4863 -0.1145
13798TIP3    H162809   2.465   0.399  11.934  1.1453  2.6879 -0.4747
13798TIP3    H262810   2.500   0.478  12.059 -0.4434 -0.2477  1.9513
13799TIP3   OH262811   5.019   1.654   5.085  0.4237  0.4186 -0.3084
13799TIP3    H162812   4.947   1.687   5.031 -1.0848  2.2128  2.5609
13799TIP3    H262813   5.001   1.560   5.094  0.1053  0.2908 -1.9399
13800TIP3   OH262814   4.683   5.968  16.600  0.0764 -0.2935  0.1291
13800TIP3    H162815   4.595   5.931  16.593  0.1489 -1.1566  2.7303
13800TIP3    H262816   4.720   5.958  16.512 -1.7869 -1.5323 -0.5856
13801TIP3   OH262817   5.314   1.237   4.535 -0.6071 -0.1197  0.0212
13801TIP3    H162818   5.316   1.273   4.624 -3.2083 -0.3337  0.2443
13801TIP3    H262819   5.290   1.310   4.480 -2.2728 -0.6591 -0.0182
13802TIP3   OH262820   4.307   3.181  12.395 -0.3059 -0.1120 -0.2613
13802TIP3    H162821   4.320   3.261  12.446  1.5660 -1.0295  0.7914
13802TIP3    H262822   4.292   3.212  12.306  0.1669  1.4250  0.1559
13803TIP3   OH262823   2.235   0.484   1.492 -0.0560  0.0420 -0.2935
13803TIP3    H162824   2.205   0.574   1.494 -2.7195 -0.7602 -0.3251
13803TIP3    H262825   2.279   0.471   1.577 -1.1143  0.9324  0.4174
13804TIP3   OH262826   2.039   0.334  10.462  0.2624  0.4620 -0.0707
13804TIP3    H162827   2.124   0.363  10.493 -0.6427  2.2246  0.9253
13804TIP3    H262828   2.042   0.347  10.367  2.6737 -3.9729 -0.8713
13805TIP3   OH262829   3.067   3.325  11.265  0.2711 -0.4754  0.3305
13805TIP3    H162830   3.094   3.417  11.266 -2.1169  0.2753  1.4898
13805TIP3    H262831   3.054   3.305  11.172 -1.5500  1.1637  0.1613
13806TIP3   OH262832   6.165   6.706   3.389  0.6026  0.2415 -0.0118
13806TIP3    H162833   6.137   6.642   3.455 -1.6119  0.2664 -0.8324
13806TIP3    H262834   6.217   6.655   3.327  1.7805 -0.0042  1.1278
13807TIP3   OH262835   5.681   3.735   1.366  0.3960 -0.7885  0.4988
13807TIP3    H162836   5.766   3.774   1.386  0.2605 -1.2777  2.2124
13807TIP3    H262837   5.684   3.649   1.407 -0.5104 -1.2967 -0.4370
13808TIP3   OH262838   0.459   5.809  12.986  0.1842  0.1037 -0.1205
13808TIP3    H162839   0.469   5.787  13.079  1.1840  2.2017  0.3294
13808TIP3    H262840   0.546   5.837  12.958 -0.4528  1.0893 -1.2161
13809TIP3   OH262841   1.598   0.117   1.245  0.3082  0.6800 -0.0374
13809TIP3    H162842   1.582   0.155   1.332  0.8203  0.2337  0.2596
13809TIP3    H262843   1.693   0.108   1.241  0.2375  0.0749 -0.3773
13810TIP3   OH262844   5.413   1.085  14.789  0.0736  0.7983  0.0914
13810TIP3    H162845   5.411   1.027  14.713 -0.3888 -0.4648  1.0252
13810TIP3    H262846   5.477   1.152  14.767  0.0856  0.3454 -1.3261
13811TIP3   OH262847   4.361   1.715   0.333 -0.2922  0.4894 -0.0881
13811TIP3    H162848   4.384   1.805   0.355  1.5059  0.1586 -0.4430
13811TIP3    H262849   4.416   1.694   0.258  0.7880 -1.5103  1.1711
13812TIP3   OH262850   3.525   6.735  15.752 -0.0634 -0.1709 -0.3767
13812TIP3    H162851   3.545   6.715  15.844 -1.0995  0.4710  0.0040
13812TIP3    H262852   3.437   6.773  15.754 -1.2725 -2.6526 -1.9380
13813TIP3   OH262853   2.572   6.181   5.631  0.1918  0.7323  0.2323
13813TIP3    H162854   2.646   6.121   5.640  0.5603  1.1007 -0.3298
13813TIP3    H262855   2.577   6.237   5.708  0.8889  1.1775 -0.1254
13814TIP3   OH262856   5.973   6.487   5.172  0.0028  0.4328  0.7049
13814TIP3    H162857   5.926   6.409   5.202 -0.9551  0.4585 -0.6232
13814TIP3    H262858   6.053   6.453   5.132 -1.5738 -0.1792 -2.1824
13815TIP3   OH262859   1.217   1.085  11.245 -0.1383 -0.4171  0.2351
13815TIP3    H162860   1.280   1.045  11.304  0.7818  0.3174 -0.2212
13815TIP3    H262861   1.144   1.111  11.301  0.4860 -0.2032  0.9573
13816TIP3   OH262862   2.632   4.125   0.511 -0.4177 -0.2258  0.3130
13816TIP3    H162863   2.576   4.061   0.554 -0.0253 -0.8551 -0.0963
13816TIP3    H262864   2.709   4.075   0.483  1.1009  0.9127  2.2135
13817TIP3   OH262865   2.522   2.917   5.808 -0.6151  0.0895  0.2370
13817TIP3    H162866   2.577   2.866   5.868  1.4594  0.1610 -1.4952
13817TIP3    H262867   2.466   2.852   5.765 -2.2797  0.0584  2.2893
13818TIP3   OH262868   0.159   4.123   3.460  0.2369  0.4042 -0.7852
13818TIP3    H162869   0.068   4.154   3.465 -0.6747 -2.1993  0.7436
13818TIP3    H262870   0.207   4.178   3.521 -1.0886 -0.3311  1.0346
13819TIP3   OH262871   3.987   1.608  13.138  0.7658 -0.3988  0.0443
13819TIP3    H162872   3.934   1.579  13.063  0.2649 -0.0443  0.2522
13819TIP3    H262873   4.045   1.675  13.102  0.1075  0.2042  0.0893
13820TIP3   OH262874   0.443   3.401   6.145 -0.1568  0.1417  0.3470
13820TIP3    H162875   0.437   3.311   6.113 -0.3999  0.6787 -1.2237
13820TIP3    H262876   0.465   3.392   6.238  0.9115 -1.5054 -0.0196
13821TIP3   OH262877   1.814   5.773  12.308  0.1883 -0.0952 -0.6696
13821TIP3    H162878   1.862   5.730  12.238  1.2162 -0.7654  0.4105
13821TIP3    H262879   1.733   5.803  12.267  1.3392  0.7116 -2.4459
13822TIP3   OH262880   4.282   1.549  16.288  0.1807  0.8533 -0.5873
13822TIP3    H162881   4.353   1.519  16.231  0.8320  1.0432  0.1115
13822TIP3    H262882   4.326   1.599  16.357 -0.6068  0.7305  0.0140
13823TIP3   OH262883   1.344   0.007  12.200  0.2422 -0.2020 -0.4355
13823TIP3    H162884   1.407   0.042  12.264  0.4952 -0.9046 -0.2867
13823TIP3    H262885   1.363   0.054  12.119 -0.4254  1.0801  0.1186
13824TIP3   OH262886   2.894   1.173  12.448  0.5092  0.2422  0.0185
13824TIP3    H162887   2.908   1.079  12.432  0.6195 -0.0048  1.4091
13824TIP3    H262888   2.821   1.176  12.511 -1.9509  1.2770 -2.6718
13825TIP3   OH262889   1.776   1.307  10.578 -0.1866 -0.0890 -0.2498
13825TIP3    H162890   1.831   1.281  10.504  0.2140  0.0674 -0.0093
13825TIP3    H262891   1.786   1.237  10.641  0.3438  0.3003  0.1097
13826TIP3   OH262892   1.048   5.486   5.636  0.7706  0.1332 -0.3990
13826TIP3    H162893   1.083   5.504   5.549  2.2498  1.0215  0.3473
13826TIP3    H262894   0.958   5.521   5.633  0.4055 -0.8559 -1.8834
13827TIP3   OH262895   4.605   4.284  12.860  0.2897  0.3666 -0.3707
13827TIP3    H162896   4.612   4.189  12.847 -1.9310 -0.1491  1.6084
13827TIP3    H262897   4.585   4.318  12.772 -0.8422 -1.2677 -0.8081
13828TIP3   OH262898   2.446   3.693   0.782  0.0574  0.0712  0.1374
13828TIP3    H162899   2.447   3.783   0.814 -1.3091  0.9583 -2.1101
13828TIP3    H262900   2.358   3.661   0.806  0.7411 -0.9241  1.4544
13829TIP3   OH262901   4.942   6.488   5.312  0.2994 -0.1935  0.1151
13829TIP3    H162902   4.917   6.580   5.305  0.5830 -0.1662 -0.5829
13829TIP3    H262903   4.944   6.456   5.222 -1.3431 -1.3074  0.4276
13830TIP3   OH262904   3.753   2.234  11.467 -0.3288 -0.3597  0.3916
13830TIP3    H162905   3.694   2.169  11.505 -1.6265 -0.4748 -1.7133
13830TIP3    H262906   3.785   2.193  11.386 -1.1417  1.5489 -0.9603
13831TIP3   OH262907   6.760   1.806  15.039  0.0394 -0.4170  0.7195
13831TIP3    H162908   6.741   1.900  15.044 -1.7244 -0.5655 -1.6641
13831TIP3    H262909   6.707   1.767  15.108 -2.8253 -0.0203 -1.0949
13832TIP3   OH262910   3.113   4.171  16.378 -0.3300 -0.4922 -0.1674
13832TIP3    H162911   3.063   4.252  16.382  0.8180  0.1955  2.2139
13832TIP3    H262912   3.048   4.102  16.384 -1.1987  0.3003 -0.2821
13833TIP3   OH262913   2.791   0.871   1.156  0.0677 -0.4089 -0.0918
13833TIP3    H162914   2.709   0.913   1.130 -0.1148 -0.9607 -0.4440
13833TIP3    H262915   2.770   0.824   1.236  0.5271  0.9589  0.8715
13834TIP3   OH262916   0.099   4.738   1.949  0.5591 -0.0456 -0.1631
13834TIP3    H162917   0.134   4.711   1.864  0.8677 -0.0094 -0.0496
13834TIP3    H262918   0.028   4.677   1.966 -1.9050  2.0595 -2.0931
13835TIP3   OH262919   2.519   5.988  15.940  0.1276  0.1532 -0.2277
13835TIP3    H162920   2.548   5.916  15.996  0.4318  1.3797  1.2625
13835TIP3    H262921   2.580   5.987  15.866  1.5375  0.2636  0.8941
13836TIP3   OH262922   5.424   0.234   2.856  0.5057 -0.2817  0.7873
13836TIP3    H162923   5.500   0.245   2.799 -0.1454  0.7111  0.0688
13836TIP3    H262924   5.364   0.180   2.806 -0.0655  0.5845  0.4998
13837TIP3   OH262925   3.474   6.373   0.942 -0.0644  0.2329 -0.2507
13837TIP3    H162926   3.421   6.398   0.867 -0.2101 -0.6390 -0.4418
13837TIP3    H262927   3.499   6.456   0.982 -1.6858  0.6618 -0.0691
13838TIP3   OH262928   0.289   2.222  11.472 -0.0367 -0.7278  0.2537
13838TIP3    H162929   0.260   2.312  11.460  0.4317 -0.8504 -2.1302
13838TIP3    H262930   0.209   2.170  11.470 -0.4257 -0.3488  2.7065
13839TIP3   OH262931   6.187   5.271  13.367  0.2857  0.2729  0.2797
13839TIP3    H162932   6.282   5.271  13.361  0.1751  0.3670 -1.9517
13839TIP3    H262933   6.165   5.358  13.400  0.9081  0.7796 -0.6156
13840TIP3   OH262934   2.880   6.360   4.435 -0.1940 -0.3570  0.0762
13840TIP3    H162935   2.898   6.452   4.416  0.2048 -0.1936  1.1824
13840TIP3    H262936   2.798   6.342   4.389  1.0107 -0.2001 -2.3080
13841TIP3   OH262937   5.236   0.268  15.997 -0.0401 -0.4289  0.3173
13841TIP3    H162938   5.274   0.309  15.919 -1.2466  0.1505  0.0131
13841TIP3    H262939   5.184   0.195  15.963 -0.9601  0.1198  0.5417
13842TIP3   OH262940   4.306   1.549  11.200  0.8329  0.5736  0.0497
13842TIP3    H162941   4.348   1.476  11.247  0.0044  0.5977  0.8533
13842TIP3    H262942   4.379   1.595  11.158  1.2919 -1.2384 -1.2500
13843TIP3   OH262943   3.510   2.757   1.636 -0.0537 -0.6359 -0.4906
13843TIP3    H162944   3.531   2.736   1.545  1.0984 -0.4275 -0.2846
13843TIP3    H262945   3.587   2.729   1.686 -0.8049 -1.0475  0.4672
13844TIP3   OH262946   6.438   5.184   0.096  0.7475 -0.2979 -0.7306
13844TIP3    H162947   6.389   5.188   0.178 -0.3835  3.0561 -1.3803
13844TIP3    H262948   6.529   5.189   0.123  0.4149  0.2599  0.3825
13845TIP3   OH262949   2.250   6.152   5.409  0.5150 -0.0388 -0.3750
13845TIP3    H162950   2.239   6.243   5.382 -1.6708 -0.7322 -2.1008
13845TIP3    H262951   2.322   6.120   5.354  0.8920  0.4889 -0.1939
13846TIP3   OH262952   2.741   1.148   3.928 -0.1007 -0.4640  0.4602
13846TIP3    H162953   2.741   1.060   3.965  0.8151  0.0495  1.7067
13846TIP3    H262954   2.765   1.135   3.836 -0.4424 -1.5445  0.5089
13847TIP3   OH262955   4.685   1.196  15.973  0.6793  0.0793  0.2919
13847TIP3    H162956   4.688   1.142  15.894  1.5826  0.6899 -0.1099
13847TIP3    H262957   4.659   1.283  15.942  4.3722  1.2665  0.0409
13848TIP3   OH262958   3.877   1.318  16.345  0.7762  0.0467 -0.3727
13848TIP3    H162959   3.817   1.342  16.275  0.3970  1.1895  0.3228
13848TIP3    H262960   3.826   1.260  16.401 -0.1608  1.9760  0.8869
13849TIP3   OH262961   6.700   0.169  12.498  0.2187  0.0997  0.1830
13849TIP3    H162962   6.772   0.202  12.446  0.3908  0.6326  0.7509
13849TIP3    H262963   6.724   0.078  12.517  0.7432  0.2702  0.3635
13850TIP3   OH262964   0.271   0.147  12.135 -0.1498 -0.0928 -0.7102
13850TIP3    H162965   0.313   0.066  12.164  2.0224  1.0805 -0.3475
13850TIP3    H262966   0.219   0.175  12.210  1.9465  0.6335  0.5737
13851TIP3   OH262967   0.447   4.845   6.511  0.5155 -0.0824  0.5413
13851TIP3    H162968   0.489   4.807   6.435 -0.2607  0.2018 -0.0380
13851TIP3    H262969   0.507   4.827   6.583  1.4966  0.0811 -0.2189
13852TIP3   OH262970   4.760   0.762   3.322  0.2619  0.1445 -0.5997
13852TIP3    H162971   4.801   0.757   3.235  1.1203 -1.4696 -0.1418
13852TIP3    H262972   4.821   0.815   3.374  0.7648 -0.5446 -0.4708
13853TIP3   OH262973   6.016   0.241  14.460 -0.1029 -0.2965 -0.4748
13853TIP3    H162974   6.099   0.221  14.417 -0.3936  1.0254 -1.7333
13853TIP3    H262975   6.040   0.267  14.549  0.8505  0.0720 -0.8268
13854TIP3   OH262976   1.877   4.241   3.307 -0.1012 -0.1201  0.0661
13854TIP3    H162977   1.965   4.210   3.328  0.2388  0.4936 -0.4558
13854TIP3    H262978   1.862   4.314   3.367  1.0871  2.0028 -2.1012
13855TIP3   OH262979   4.620   3.211  13.837 -0.2062  0.2695  0.0690
13855TIP3    H162980   4.571   3.130  13.849 -2.4478  1.7745  1.7361
13855TIP3    H262981   4.582   3.252  13.759  2.2092 -1.0252 -1.9670
13856TIP3   OH262982   6.811   5.436  15.587  0.3561  0.2420  0.5925
13856TIP3    H162983   6.734   5.468  15.539 -0.3478 -1.4454  0.4988
13856TIP3    H262984   6.864   5.392  15.520  0.0940 -0.8488  1.0708
13857TIP3   OH262985   0.386   3.919  16.923  0.2416 -0.5211  0.0665
13857TIP3    H162986   0.423   3.906  16.836 -0.3052  0.5329 -0.3400
13857TIP3    H262987   0.394   3.833  16.965 -1.6578 -1.7775 -1.8763
13858TIP3   OH262988   4.838   1.244  12.278 -0.2797  0.1076  0.1806
13858TIP3    H162989   4.814   1.315  12.218  0.5084  0.9432  0.8335
13858TIP3    H262990   4.754   1.208  12.306 -0.6908  0.6049 -0.3575
13859TIP3   OH262991   4.285   4.136  15.305 -0.3688  0.3928 -0.0920
13859TIP3    H162992   4.193   4.153  15.284 -0.3937  0.1284 -0.1906
13859TIP3    H262993   4.283   4.060  15.363 -0.2845  0.9657  0.6733
13860TIP3   OH262994   2.193   1.016   4.470  0.0792 -0.1122 -0.3030
13860TIP3    H162995   2.200   1.050   4.560 -2.4878  1.0462 -0.4548
13860TIP3    H262996   2.207   1.092   4.414  0.3638 -0.5601 -0.8484
13861TIP3   OH262997   4.116   1.149  14.328  0.3018  0.6298  0.7239
13861TIP3    H162998   4.079   1.159  14.416  1.8270  0.7013  1.4000
13861TIP3    H262999   4.118   1.055  14.313 -1.8148  0.6711 -0.1060
13862TIP3   OH263000   0.666   5.726   2.083  0.1093 -0.5685 -0.1783
13862TIP3    H163001   0.578   5.753   2.112 -0.1071 -1.1377 -0.2759
13862TIP3    H263002   0.725   5.767   2.146 -0.2904 -0.9433  0.4623
13863TIP3   OH263003   4.660   3.377  14.316 -0.2261  0.5137  0.1669
13863TIP3    H163004   4.660   3.473  14.317 -0.3104  0.5122  0.2828
13863TIP3    H263005   4.691   3.354  14.228  0.6647  0.6393  0.4368
13864TIP3   OH263006   1.788   2.429   0.294 -0.3405  0.0003  0.0864
13864TIP3    H163007   1.745   2.512   0.279 -0.6641 -0.4235 -1.4969
13864TIP3    H263008   1.851   2.420   0.222  0.5665 -0.5711  0.9134
13865TIP3   OH263009   0.292   4.556  13.234 -0.3344  0.0728  0.1685
13865TIP3    H163010   0.380   4.593  13.234 -0.0632 -0.5046  1.7019
13865TIP3    H263011   0.298   4.480  13.177 -0.6325  1.6806 -2.1543
13866TIP3   OH263012   1.439   5.420  15.975 -0.0359  0.1765  0.1560
13866TIP3    H163013   1.502   5.488  15.996  2.7594 -1.8869 -0.9232
13866TIP3    H263014   1.409   5.440  15.887  1.2023 -0.2105 -0.3777
13867TIP3   OH263015   5.537   5.116   5.723  0.8517  0.0447 -0.3477
13867TIP3    H163016   5.563   5.030   5.689 -0.0388  0.1666 -1.3567
13867TIP3    H263017   5.463   5.142   5.669  1.5329  1.7637 -0.5096
13868TIP3   OH263018   0.040   6.440  12.315  0.0961 -0.1227  0.1138
13868TIP3    H163019  -0.025   6.494  12.359 -0.1174 -0.4029  0.1464
13868TIP3    H263020   0.118   6.496  12.308  0.0558  0.0001  0.6368
13869TIP3   OH263021   0.426   4.100  16.256 -0.1601 -0.5165  0.3757
13869TIP3    H163022   0.416   4.173  16.317 -0.4553 -0.6607  0.5017
13869TIP3    H263023   0.517   4.072  16.267 -0.5696 -1.4145  1.7597
13870TIP3   OH263024   5.316   3.460  13.936  0.2410 -0.5052  0.0356
13870TIP3    H163025   5.264   3.538  13.960 -0.2991 -1.1406  1.0062
13870TIP3    H263026   5.306   3.454  13.841 -0.3361  0.1794  0.0355
13871TIP3   OH263027   0.706   2.814  11.969  1.0237 -0.1909 -0.2284
13871TIP3    H163028   0.627   2.764  11.988  0.5435  0.9068  0.7807
13871TIP3    H263029   0.724   2.797  11.876  0.6346 -1.8611 -0.0237
13872TIP3   OH263030   5.903   1.071   4.941 -0.3622  0.1824 -0.4735
13872TIP3    H163031   5.852   1.093   5.019 -1.2266  0.1887 -1.0247
13872TIP3    H263032   5.937   1.155   4.910 -0.8168  0.3082 -0.6412
13873TIP3   OH263033   3.328   3.748   5.360 -0.0315  0.6112  0.1421
13873TIP3    H163034   3.394   3.704   5.306 -1.4891  1.7362 -2.7262
13873TIP3    H263035   3.305   3.827   5.312 -2.5883  0.9062  1.6456
13874TIP3   OH263036   0.947   1.689  15.200  0.1398 -0.5250  0.2320
13874TIP3    H163037   0.944   1.783  15.218  3.5945  0.1694 -1.9293
13874TIP3    H263038   1.027   1.659  15.243  0.4261 -1.8906 -1.1898
13875TIP3   OH263039   6.188   1.434   5.215 -0.1235  0.0376 -0.1238
13875TIP3    H163040   6.266   1.473   5.176 -0.3833 -0.0845 -0.7839
13875TIP3    H263041   6.178   1.479   5.300  2.2624 -1.9141  1.3127
13876TIP3   OH263042   1.741   0.945   1.787 -0.7459  0.4702 -0.6912
13876TIP3    H163043   1.747   1.028   1.740  1.2500  0.0190 -1.3682
13876TIP3    H263044   1.792   0.959   1.867 -1.4775  0.2708 -0.1800
13877TIP3   OH263045   3.179   4.868  16.963  0.6520  0.3302  0.2254
13877TIP3    H163046   3.198   4.928  16.891 -0.8449  1.5919  0.8173
13877TIP3    H263047   3.237   4.794  16.948  0.4190  0.5517 -2.2555
13878TIP3   OH263048   2.092   1.784  14.451 -0.3245  0.5713 -0.0344
13878TIP3    H163049   2.115   1.771  14.359  0.1142  0.5228  0.0826
13878TIP3    H263050   1.996   1.776  14.452 -0.6785  3.5147 -0.9851
13879TIP3   OH263051   2.579   5.893  15.349 -0.3654  0.0131  0.7440
13879TIP3    H163052   2.641   5.932  15.287 -0.8660 -0.0631  0.1739
13879TIP3    H263053   2.546   5.967  15.400 -1.3857  0.3832 -0.3998
13880TIP3   OH263054   0.851   0.944  15.798 -0.1157 -0.3958 -0.1718
13880TIP3    H163055   0.924   0.884  15.811 -0.4764 -0.8319 -0.1457
13880TIP3    H263056   0.874   1.021  15.850  1.1967  0.2418 -1.5737
13881TIP3   OH263057   2.445   3.371  13.917 -0.3508 -0.1446 -0.1943
13881TIP3    H163058   2.521   3.322  13.948 -0.5022  1.3353  2.7939
13881TIP3    H263059   2.371   3.313  13.934 -0.1325 -0.7485 -1.1866
13882TIP3   OH263060   3.420   1.192   1.309  0.2595 -0.3840  0.6342
13882TIP3    H163061   3.444   1.265   1.251  1.6972  0.3530  2.0848
13882TIP3    H263062   3.325   1.198   1.317  0.2405  0.6461 -0.1556
13883TIP3   OH263063   2.356   0.610  13.144 -0.4978  0.5262  0.2775
13883TIP3    H163064   2.321   0.529  13.108  1.4393  0.2763 -1.1899
13883TIP3    H263065   2.408   0.582  13.220 -1.7208  0.6867  1.2077
13884TIP3   OH263066   1.953   3.747   0.251  0.3557  0.8660 -0.1606
13884TIP3    H163067   1.909   3.827   0.279 -0.2353  0.6558 -0.4788
13884TIP3    H263068   1.891   3.705   0.192  0.0935 -0.5134  1.0692
13885TIP3   OH263069   1.519   5.632  15.411 -0.5443 -0.4162 -0.8598
13885TIP3    H163070   1.537   5.662  15.501 -1.7403  0.2175 -0.8201
13885TIP3    H263071   1.603   5.643  15.366  0.2313 -1.2447  0.2985
13886TIP3   OH263072   6.011   5.680   3.217 -0.3111 -0.0158  0.5483
13886TIP3    H163073   6.088   5.730   3.187  0.3927 -0.8606  0.9078
13886TIP3    H263074   6.043   5.630   3.292 -0.2500 -2.9433 -1.2623
13887TIP3   OH263075   1.589   5.315   3.762  0.1818  0.6944  0.1603
13887TIP3    H163076   1.678   5.322   3.727 -0.0025  1.9836 -0.1021
13887TIP3    H263077   1.549   5.244   3.711  0.7064  0.8677 -0.5070
13888TIP3   OH263078   5.904   5.694   4.395 -0.2408 -0.1572  0.1175
13888TIP3    H163079   5.847   5.618   4.408 -1.5705  0.7175 -0.4514
13888TIP3    H263080   5.992   5.661   4.414 -1.0470 -1.2101  2.3180
13889TIP3   OH263081   4.502   6.272   5.486 -0.3498 -0.0791 -0.1888
13889TIP3    H163082   4.494   6.179   5.466 -1.2544 -0.0353 -0.0563
13889TIP3    H263083   4.420   6.310   5.457  0.2395  0.7864 -0.7713
13890TIP3   OH263084   0.731   6.100  16.934  0.3469 -0.1559  0.4750
13890TIP3    H163085   0.682   6.178  16.908  0.9553  0.4702  1.1380
13890TIP3    H263086   0.671   6.050  16.989 -0.8292 -1.3119 -1.7215
13891TIP3   OH263087   5.587   1.599  12.362 -0.2705  0.0345 -0.0788
13891TIP3    H163088   5.569   1.547  12.441  0.9812 -2.3612 -1.2813
13891TIP3    H263089   5.510   1.655  12.353 -1.7223 -1.6030  1.3247
13892TIP3   OH263090   6.557   6.142   1.824  0.9128 -0.4913 -0.4210
13892TIP3    H163091   6.636   6.144   1.769  0.2078  0.1069 -1.4405
13892TIP3    H263092   6.587   6.173   1.910  1.6673  0.3155 -0.9580
13893TIP3   OH263093   2.957   2.075  12.477 -0.0630  0.2610 -0.2225
13893TIP3    H163094   2.965   2.084  12.572  2.4181 -2.5269 -0.0262
13893TIP3    H263095   2.987   2.159  12.443  0.2968  0.8526  1.4353
13894TIP3   OH263096   4.312   5.549   4.792 -0.2212 -0.1616 -0.4956
13894TIP3    H163097   4.366   5.472   4.775  0.0373  0.3553 -2.2324
13894TIP3    H263098   4.286   5.579   4.705 -0.6052  1.5138  0.1660
13895TIP3   OH263099   0.054   0.437   3.465 -0.1353  0.6218  0.0776
13895TIP3    H163100   0.078   0.355   3.421 -0.0900  1.3987 -1.3819
13895TIP3    H263101   0.133   0.463   3.512  0.0274  0.1373  0.0816
13896TIP3   OH263102   2.435   0.447   2.911  0.3246 -0.5376 -0.5271
13896TIP3    H163103   2.407   0.369   2.862 -0.7898  0.1161 -0.9525
13896TIP3    H263104   2.385   0.443   2.993  1.7793 -1.3333  0.3782
13897TIP3   OH263105   0.817   4.298   5.465  0.1538 -0.0312 -0.3019
13897TIP3    H163106   0.883   4.239   5.500  0.5203 -0.2790 -1.3663
13897TIP3    H263107   0.742   4.288   5.523  0.7068 -0.4911  0.3403
13898TIP3   OH263108   1.146   4.597  14.567 -0.6453 -0.0809 -0.4838
13898TIP3    H163109   1.133   4.688  14.595  0.8513  0.1779 -0.5627
13898TIP3    H263110   1.164   4.549  14.648 -0.4812 -0.1324 -0.5511
13899TIP3   OH263111   0.243   1.760  13.817  0.2139  0.0519  0.4953
13899TIP3    H163112   0.238   1.676  13.864 -1.4579 -0.3017 -0.2751
13899TIP3    H263113   0.242   1.736  13.725  0.2424  0.9030  0.2710
13900TIP3   OH263114   1.863   4.797  11.070  0.2969  0.1345 -0.4550
13900TIP3    H163115   1.861   4.884  11.031  0.5561 -0.1381 -1.0721
13900TIP3    H263116   1.894   4.739  11.001  0.0135 -0.4722 -0.0856
13901TIP3   OH263117   1.197   0.424   5.275 -0.5766  0.3377 -0.1064
13901TIP3    H163118   1.126   0.414   5.212 -0.9507 -0.4660  0.4192
13901TIP3    H263119   1.188   0.515   5.306 -2.5209 -0.2269  1.2415
13902TIP3   OH263120   0.356   4.340   4.539 -0.3614 -0.4209 -0.2818
13902TIP3    H163121   0.400   4.396   4.475  0.9651 -0.5261  0.4879
13902TIP3    H263122   0.305   4.399   4.593  0.4421 -0.0247  0.0625
13903TIP3   OH263123   2.973   5.524  17.007  0.3743  0.4130  0.3109
13903TIP3    H163124   2.975   5.583  17.083 -2.7633  0.2685  0.6500
13903TIP3    H263125   2.941   5.441  17.042  2.6659 -0.9148 -0.5571
13904TIP3   OH263126   1.432   3.424  14.755  0.1805 -0.2476 -0.1534
13904TIP3    H163127   1.435   3.462  14.667 -0.4698  1.1305  0.3830
13904TIP3    H263128   1.342   3.439  14.784  0.6406  0.1656  1.1020
13905TIP3   OH263129   0.937   2.143   1.591  0.0992  0.3382  0.6421
13905TIP3    H163130   1.029   2.155   1.614  0.5396 -0.3011 -0.6560
13905TIP3    H263131   0.933   2.056   1.552 -1.4632 -0.4833  2.5032
13906TIP3   OH263132   1.871   1.680   1.416 -0.4265  0.1203  0.1272
13906TIP3    H163133   1.940   1.707   1.356 -1.1249  0.8223 -0.3901
13906TIP3    H263134   1.794   1.667   1.360 -0.6886 -0.7645  0.6722
13907TIP3   OH263135   4.652   0.126   0.614  0.0399  0.2498 -0.2353
13907TIP3    H163136   4.708   0.070   0.561 -0.9082 -0.5668 -0.4039
13907TIP3    H263137   4.639   0.078   0.695  0.0803  0.7112  0.0477
13908TIP3   OH263138   0.101   4.434   2.464  0.3881  0.3320  0.1477
13908TIP3    H163139   0.113   4.389   2.548 -1.8684  0.3271  0.5272
13908TIP3    H263140   0.084   4.364   2.401 -0.2682  0.4527  0.1778
13909TIP3   OH263141   0.871   4.804  13.322 -0.0702 -0.1096  0.2233
13909TIP3    H163142   0.873   4.884  13.270  0.2512 -0.8115 -0.8725
13909TIP3    H263143   0.788   4.808  13.370 -0.1698  0.7514 -0.0167
13910TIP3   OH263144   5.559   0.185  14.408 -0.5277  0.5582  0.0047
13910TIP3    H163145   5.502   0.223  14.475 -0.0951  0.2270  0.5760
13910TIP3    H263146   5.622   0.255  14.387  0.0837  0.2762  0.8354
13911TIP3   OH263147   2.072   4.734  10.404  0.0888  0.1223  0.3447
13911TIP3    H163148   2.029   4.688  10.476 -2.1127  0.1928 -0.8201
13911TIP3    H263149   2.056   4.826  10.422 -1.2731  0.1095 -0.6319
13912TIP3   OH263150   4.996   3.494   1.981 -0.6023  0.1789 -0.3316
13912TIP3    H163151   5.015   3.582   1.949  1.5930 -0.3927 -0.7654
13912TIP3    H263152   4.999   3.502   2.077 -0.3935  0.5686 -0.3696
13913TIP3   OH263153   6.490   3.391   2.754 -0.5710  0.4742 -0.2517
13913TIP3    H163154   6.418   3.350   2.801  0.3107 -0.0233  0.7209
13913TIP3    H263155   6.522   3.460   2.814  0.3757  0.0326 -0.2234
13914TIP3   OH263156   1.495   3.822  11.731 -0.3507  0.1488 -0.1026
13914TIP3    H163157   1.589   3.804  11.723 -0.4733 -0.1731 -0.8439
13914TIP3    H263158   1.466   3.841  11.642 -0.7523  1.4664  0.2769
13915TIP3   OH263159   4.836   2.089  13.453  0.4015  0.7049 -0.3286
13915TIP3    H163160   4.756   2.139  13.471 -0.0208 -0.1496  0.2128
13915TIP3    H263161   4.905   2.156  13.446 -0.2016  1.3876  0.0969
13916TIP3   OH263162   4.473   1.965   2.297  0.0654 -0.2606  0.1453
13916TIP3    H163163   4.553   2.014   2.277  0.6582 -0.6704  1.4333
13916TIP3    H263164   4.409   1.998   2.234  0.6656  1.5895  0.4400
13917TIP3   OH263165   2.529   1.581   5.928 -0.4369 -0.2088  0.3447
13917TIP3    H163166   2.558   1.493   5.902 -0.9448 -0.1739 -0.3543
13917TIP3    H263167   2.553   1.637   5.854  1.8148  0.6600  1.6380
13918TIP3   OH263168   1.600   4.048   4.239 -0.2315 -0.2959 -0.3884
13918TIP3    H163169   1.638   3.961   4.246 -2.3017 -1.2145  0.1907
13918TIP3    H263170   1.670   4.102   4.201  1.5080 -1.8956  0.3969
13919TIP3   OH263171   2.958   5.364  15.064 -0.2739  0.1006 -0.5556
13919TIP3    H163172   2.871   5.386  15.098 -0.0765  2.8214 -1.5068
13919TIP3    H263173   3.019   5.404  15.126  0.2208  0.1075 -1.0417
13920TIP3   OH263174   0.007   2.873   6.653 -0.4499 -0.2450  0.1993
13920TIP3    H163175   0.030   2.798   6.597 -0.3215  0.5178 -0.7933
13920TIP3    H263176   0.089   2.920   6.665 -0.6421  0.0528  0.3541
13921TIP3   OH263177   4.891   5.629   3.349 -0.8305  0.3010  0.2595
13921TIP3    H163178   4.979   5.647   3.316 -0.7379 -0.1062  0.2747
13921TIP3    H263179   4.883   5.684   3.427  0.1231 -1.0313  1.3541
13922TIP3   OH263180   3.229   1.969  10.943 -0.2713 -0.0285  0.7960
13922TIP3    H163181   3.245   1.891  10.997  0.7737 -1.1782 -1.0893
13922TIP3    H263182   3.137   1.961  10.917 -0.0427 -0.9231  0.2091
13923TIP3   OH263183   3.728   4.120  13.891 -0.0979 -0.2764 -0.2943
13923TIP3    H163184   3.646   4.145  13.934  0.7945  0.5689  0.9876
13923TIP3    H263185   3.796   4.162  13.944  1.1332 -0.4752 -1.6769
13924TIP3   OH263186   1.667   2.985   0.685 -0.0777 -0.1852  0.0988
13924TIP3    H163187   1.674   3.066   0.736  2.5537 -0.5908  0.5074
13924TIP3    H263188   1.623   3.011   0.604  0.5686  1.6236  0.2919
13925TIP3   OH263189   3.871   4.554  14.903  0.2275  0.6129  0.3622
13925TIP3    H163190   3.924   4.506  14.967  0.8558  0.5468 -0.2065
13925TIP3    H263191   3.928   4.565  14.827 -0.7807 -0.0281 -0.5134
13926TIP3   OH263192   1.677   2.088  15.969 -0.3447 -0.1425 -0.1761
13926TIP3    H163193   1.654   2.180  15.953  1.7194  0.4343 -0.1303
13926TIP3    H263194   1.682   2.081  16.065 -0.3689 -0.2485 -0.1833
13927TIP3   OH263195   2.595   1.256   2.587 -0.1711 -0.0189 -0.1500
13927TIP3    H163196   2.676   1.230   2.544 -0.3685 -0.6715 -0.1326
13927TIP3    H263197   2.613   1.245   2.680 -0.0262  0.5841 -0.1004
13928TIP3   OH263198   3.232   2.823  14.770  0.1799  0.2630  0.1519
13928TIP3    H163199   3.183   2.741  14.776 -0.1857  0.4261 -0.5162
13928TIP3    H263200   3.271   2.821  14.682 -0.7553  1.3179 -0.3060
13929TIP3   OH263201   4.778   1.221  13.332  0.1363  0.3049 -0.0335
13929TIP3    H163202   4.832   1.158  13.283 -2.1296 -0.6479 -1.4784
13929TIP3    H263203   4.702   1.236  13.276 -0.5283  2.5882  1.3280
13930TIP3   OH263204   4.424   6.179  14.108 -0.0178 -0.0252  0.2239
13930TIP3    H163205   4.400   6.122  14.182  0.6671 -0.2887  0.2507
13930TIP3    H263206   4.470   6.120  14.047  1.7431  0.7256  0.7762
13931TIP3   OH263207   4.427   2.756   5.699 -0.3783 -0.3027  0.4074
13931TIP3    H163208   4.505   2.709   5.728  0.1272  0.3426  0.1155
13931TIP3    H263209   4.356   2.693   5.710  0.5620 -1.9882 -2.0831
13932TIP3   OH263210   6.276   0.055   0.257  0.2364 -0.0520  0.5429
13932TIP3    H163211   6.296   0.093   0.172 -1.2738 -0.4015 -0.0006
13932TIP3    H263212   6.361   0.037   0.296  0.9636 -0.3498 -1.1051
13933TIP3   OH263213   2.154   3.165  13.006  0.4222 -0.8469 -0.0613
13933TIP3    H163214   2.129   3.078  13.039 -0.4687 -0.7894 -0.5373
13933TIP3    H263215   2.073   3.217  13.013 -0.3516 -1.2697 -3.7501
13934TIP3   OH263216   3.132   2.054   3.487 -0.2177 -0.1149  0.3599
13934TIP3    H163217   3.193   1.993   3.527 -0.3957 -0.6792 -0.2239
13934TIP3    H263218   3.101   2.109   3.559  0.5974 -0.1505  0.7369
13935TIP3   OH263219   0.089   3.463  12.577  0.0849 -0.0463  0.0153
13935TIP3    H163220   0.052   3.413  12.504 -1.8831  1.6100 -0.2049
13935TIP3    H263221   0.038   3.544  12.579  2.8363  1.7900  0.6494
13936TIP3   OH263222   4.494   3.926   4.895  0.4489 -0.1953 -0.4948
13936TIP3    H163223   4.415   3.961   4.937  0.7669 -0.2814  0.1905
13936TIP3    H263224   4.470   3.915   4.803 -0.3127 -0.1391 -0.3068
13937TIP3   OH263225   4.149   0.088  13.854  0.0721 -0.0973 -0.5663
13937TIP3    H163226   4.095   0.010  13.859 -0.0225 -0.0491 -0.8184
13937TIP3    H263227   4.210   0.080  13.927  0.5521 -0.7771 -1.0187
13938TIP3   OH263228   4.860   1.997   4.290  0.5078  0.7023  0.3961
13938TIP3    H163229   4.880   2.072   4.347  2.8003  0.0623  0.5457
13938TIP3    H263230   4.781   1.959   4.327  0.1375  2.1793  1.2091
13939TIP3   OH263231   2.207   3.769  15.443 -0.3514 -0.4593  0.2648
13939TIP3    H163232   2.288   3.739  15.404 -0.4282 -1.3695  0.7802
13939TIP3    H263233   2.148   3.784  15.369 -0.7314 -2.8417  0.0022
13940TIP3   OH263234   3.400   2.021  15.712  0.4363  0.1372  0.0288
13940TIP3    H163235   3.394   1.993  15.621  1.4373 -0.1338  0.0347
13940TIP3    H263236   3.332   1.971  15.757 -1.3710  1.6784 -0.8788
13941TIP3   OH263237   4.895   1.168  11.186  0.2975 -0.0247 -0.5660
13941TIP3    H163238   4.977   1.215  11.173  1.2506 -0.9845  1.5529
13941TIP3    H263239   4.848   1.221  11.251  1.5762 -2.0353  2.1940
13942TIP3   OH263240   3.952   5.290  11.602  0.0338  0.1617 -0.0564
13942TIP3    H163241   3.913   5.202  11.604 -0.6621  0.4099 -1.4754
13942TIP3    H263242   4.026   5.284  11.662  0.3976 -1.5999 -0.6019
13943TIP3   OH263243   2.585   5.458  15.491 -0.3201 -0.0331 -0.6712
13943TIP3    H163244   2.605   5.386  15.552 -0.2502 -1.2040 -2.0306
13943TIP3    H263245   2.623   5.535  15.533 -0.8490 -0.6727  1.0809
13944TIP3   OH263246   1.283   0.756  14.498 -0.0157  0.0613  0.1136
13944TIP3    H163247   1.360   0.773  14.553  2.0393 -1.1255 -2.1878
13944TIP3    H263248   1.244   0.677  14.536 -0.1495  0.7008  1.3467
13945TIP3   OH263249   0.102   2.225  13.953  0.0357 -0.0939 -0.2358
13945TIP3    H163250   0.095   2.164  14.026  0.4258 -0.7823 -0.7506
13945TIP3    H263251   0.150   2.176  13.886  0.0150  0.6500 -0.8119
13946TIP3   OH263252   6.151   4.433   1.984 -0.3383  0.0704 -0.3278
13946TIP3    H163253   6.219   4.492   2.018 -0.7244  1.4182 -1.8106
13946TIP3    H263254   6.200   4.360   1.945  0.2625  0.7729 -0.9150
13947TIP3   OH263255   5.204   5.469  15.202 -0.1518 -0.1628  0.2740
13947TIP3    H163256   5.160   5.422  15.273 -1.4534  1.8425  0.8865
13947TIP3    H263257   5.180   5.421  15.123  0.3480 -1.7466  1.0499
13948TIP3   OH263258   4.051   2.340   1.501 -0.2417  0.1547 -0.0117
13948TIP3    H163259   4.140   2.343   1.464  0.1859 -0.5495  0.9050
13948TIP3    H263260   4.045   2.253   1.541 -1.0715  0.4941  0.6186
13949TIP3   OH263261   6.594   3.193  13.376 -0.0776  0.2503 -0.1814
13949TIP3    H163262   6.557   3.137  13.444  1.4483 -1.3422 -0.5803
13949TIP3    H263263   6.585   3.282  13.410 -0.8631 -0.3737  1.3334
13950TIP3   OH263264   5.643   4.040  13.922  0.2765  0.2295  0.0737
13950TIP3    H163265   5.725   4.077  13.955 -0.3953  1.9402 -0.0832
13950TIP3    H263266   5.595   4.015  14.000  0.0654  1.2076  0.2617
13951TIP3   OH263267   3.119   3.576   2.590 -0.8393  0.7482 -0.5034
13951TIP3    H163268   3.174   3.655   2.588 -0.8697  0.8031  0.3370
13951TIP3    H263269   3.171   3.510   2.544  0.8881  0.2406  1.9795
13952TIP3   OH263270   2.463   4.900   5.788  0.1154  0.1900 -0.7589
13952TIP3    H163271   2.437   4.849   5.864 -0.6831  1.5429 -0.0894
13952TIP3    H263272   2.416   4.860   5.715 -0.4285 -0.0823 -0.2651
13953TIP3   OH263273   1.038   1.104  10.513  0.3076 -0.2352  0.1514
13953TIP3    H163274   1.109   1.052  10.549 -0.7175 -2.1062 -0.3569
13953TIP3    H263275   1.035   1.080  10.420 -0.4939  0.3900 -0.0021
13954TIP3   OH263276   4.678   5.412   2.255 -0.5957  0.0267  0.4017
13954TIP3    H163277   4.713   5.501   2.253  1.3507 -0.6969 -1.3652
13954TIP3    H263278   4.593   5.421   2.297 -0.8745  2.8814 -0.5411
13955TIP3   OH263279   5.784   3.213  16.489  0.2325 -0.3780  0.1577
13955TIP3    H163280   5.838   3.141  16.521  1.7775  0.7679  0.2277
13955TIP3    H263281   5.749   3.253  16.569  0.7780 -0.0024  0.2099
13956TIP3   OH263282   5.161   0.505   5.086  0.1130  0.3810  0.3711
13956TIP3    H163283   5.216   0.582   5.103  1.2931 -0.0208 -1.3367
13956TIP3    H263284   5.083   0.540   5.044  0.5101  0.6944 -0.1206
13957TIP3   OH263285   2.994   1.683   4.436 -0.2070  0.3111  0.1298
13957TIP3    H163286   3.063   1.669   4.371  0.6143  0.1239  1.0133
13957TIP3    H263287   2.914   1.694   4.385  0.2342 -0.9170 -0.8678
13958TIP3   OH263288   2.221   5.651   6.202  0.0121 -0.1680 -0.4595
13958TIP3    H163289   2.158   5.583   6.181  0.2977 -0.6358  0.1715
13958TIP3    H263290   2.181   5.699   6.275 -0.1187  0.2544 -0.8003
13959TIP3   OH263291   1.762   5.672   1.031 -0.5677  0.5580  0.4969
13959TIP3    H163292   1.701   5.721   0.976  1.2987  1.6331 -0.7343
13959TIP3    H263293   1.805   5.612   0.970 -0.8724 -0.7205  1.4875
13960TIP3   OH263294   2.926   1.492   2.158  0.6975  0.6284 -0.3988
13960TIP3    H163295   2.900   1.498   2.250 -0.7964  0.3610 -0.7734
13960TIP3    H263296   2.932   1.583   2.129  0.0833  0.7067 -0.3044
13961TIP3   OH263297   6.093   4.703  10.680 -0.2101 -0.3244  0.1990
13961TIP3    H163298   6.026   4.637  10.667  0.0583 -0.3545 -1.1744
13961TIP3    H263299   6.060   4.781  10.634 -1.0577  0.9218  2.7423
13962TIP3   OH263300   3.766   2.947  13.111 -0.1234 -0.5063  0.0250
13962TIP3    H163301   3.800   3.015  13.169  0.4077 -1.6204  1.0749
13962TIP3    H263302   3.755   2.990  13.026  0.3612  0.8233  0.6146
13963TIP3   OH263303   5.635   2.297   0.859 -0.4574  0.2994  0.3470
13963TIP3    H163304   5.647   2.206   0.887  0.6480  0.1318 -0.5721
13963TIP3    H263305   5.681   2.349   0.925 -0.8747  0.1842  0.7354
13964TIP3   OH263306   2.643   6.495   0.314  0.1200 -0.3067 -0.9960
13964TIP3    H163307   2.610   6.499   0.404 -1.2023 -0.4651 -1.4515
13964TIP3    H263308   2.732   6.463   0.323 -0.5280 -1.9183  0.1679
13965TIP3   OH263309   5.413   2.702  14.991  0.5089 -0.3569 -0.1406
13965TIP3    H163310   5.416   2.628  15.051  3.3170 -1.0151 -0.9722
13965TIP3    H263311   5.430   2.778  15.045  2.4513 -0.8813  0.0531
13966TIP3   OH263312   4.417   6.741  16.084 -0.2378  0.0605 -0.0829
13966TIP3    H163313   4.454   6.711  16.167 -1.6153  0.8414  0.8494
13966TIP3    H263314   4.451   6.679  16.019  2.4189  0.5387  0.7217
13967TIP3   OH263315   0.912   2.154   6.584 -0.0449 -0.4271 -0.2674
13967TIP3    H163316   0.872   2.073   6.616  1.3711 -0.8799  0.4323
13967TIP3    H263317   0.989   2.126   6.536 -0.9665  0.3911 -2.3265
13968TIP3   OH263318   5.752   6.500  12.486 -0.0837 -0.0705 -0.0558
13968TIP3    H163319   5.666   6.504  12.445 -0.5307 -0.3806  0.8432
13968TIP3    H263320   5.736   6.519  12.578  1.1001  2.0919 -0.2360
13969TIP3   OH263321   4.696   6.644  12.166  0.0495  0.6575  0.0194
13969TIP3    H163322   4.635   6.575  12.192  0.6929 -0.1992 -0.6455
13969TIP3    H263323   4.646   6.725  12.175 -2.2226 -0.1538 -3.1331
13970TIP3   OH263324   6.706   2.579   1.324  0.0443  0.2293  0.2143
13970TIP3    H163325   6.701   2.673   1.305 -0.7666  0.2402  0.4077
13970TIP3    H263326   6.722   2.538   1.239  0.4204  0.5457  0.1305
13971TIP3   OH263327   2.326   1.637   3.700 -0.3047 -0.0985 -0.4473
13971TIP3    H163328   2.346   1.545   3.712 -2.3564 -0.5168  0.1763
13971TIP3    H263329   2.231   1.643   3.713 -0.4973  1.8241 -2.1690
13972TIP3   OH263330   5.587   0.609  15.420 -0.3861 -0.0740 -0.0110
13972TIP3    H163331   5.682   0.607  15.431 -0.3611 -0.4997 -0.3066
13972TIP3    H263332   5.571   0.684  15.363 -0.2423  0.0643  0.1284
13973TIP3   OH263333   2.744   0.696   1.366  0.2024  0.6776  0.2450
13973TIP3    H163334   2.691   0.618   1.351 -0.6884  0.7554  2.5088
13973TIP3    H263335   2.833   0.664   1.378 -0.2371 -0.1250  1.6809
13974TIP3   OH263336   5.116   5.163  16.621  0.2983 -0.4026  0.5313
13974TIP3    H163337   5.058   5.089  16.605  0.2042 -0.7227  2.2135
13974TIP3    H263338   5.061   5.228  16.664  1.2128 -0.8080  2.3888
13975TIP3   OH263339   4.447   3.098  16.079 -0.3158  0.0600  0.1804
13975TIP3    H163340   4.484   3.163  16.140 -0.0997 -0.2682  0.4010
13975TIP3    H263341   4.521   3.043  16.055 -0.2917  0.4571 -0.7436
13976TIP3   OH263342   2.954   3.167   0.427 -0.0978  0.0343  0.1329
13976TIP3    H163343   2.876   3.131   0.470 -1.0202  0.8504 -0.8267
13976TIP3    H263344   2.920   3.234   0.368  1.2503 -0.2885 -1.0389
13977TIP3   OH263345   4.780   2.710   5.428  0.2015  0.2301  0.7323
13977TIP3    H163346   4.738   2.788   5.392  1.2726  0.7489  0.5401
13977TIP3    H263347   4.874   2.725   5.413  0.7021  0.3329  3.4273
13978TIP3   OH263348   4.136   6.258   1.577  0.3712  0.0350  0.1738
13978TIP3    H163349   4.081   6.321   1.623 -0.8079 -1.3319  0.7407
13978TIP3    H263350   4.211   6.244   1.635 -1.0938 -1.6660  1.8224
13979TIP3   OH263351   6.398   2.416   1.605 -0.3051  0.2000  0.2185
13979TIP3    H163352   6.381   2.504   1.637  2.8322  0.7363  0.7262
13979TIP3    H263353   6.319   2.366   1.629 -1.0505  2.2169  2.3461
13980TIP3   OH263354   5.273   3.340   5.713 -0.1337  0.0930 -0.2788
13980TIP3    H163355   5.278   3.357   5.807 -2.0546 -0.1914 -0.0821
13980TIP3    H263356   5.204   3.274   5.704  1.8162 -1.8851 -1.6898
13981TIP3   OH263357   3.169   5.632   0.114 -0.2922  0.2763  0.0036
13981TIP3    H163358   3.251   5.648   0.161 -0.2651  0.2682 -0.0403
13981TIP3    H263359   3.109   5.699   0.147  0.0648  1.0124 -0.7803
13982TIP3   OH263360   1.793   1.384   5.481  0.4664  0.0996 -0.1604
13982TIP3    H163361   1.835   1.300   5.500  2.6604  1.1815  0.1085
13982TIP3    H263362   1.767   1.417   5.568 -1.3880 -0.7284 -0.3548
13983TIP3   OH263363   3.264   6.020   1.951 -0.5559 -0.4040  0.0077
13983TIP3    H163364   3.334   5.971   1.909  0.4272  0.3733  0.6907
13983TIP3    H263365   3.293   6.032   2.041 -0.5256  1.7722 -0.2243
13984TIP3   OH263366   0.301   6.775   0.964  0.2193 -0.1458 -0.2067
13984TIP3    H163367   0.371   6.757   0.900  1.5453  0.8595  0.8858
13984TIP3    H263368   0.348   6.801   1.043 -1.4184  0.0672  0.7358
13985TIP3   OH263369   1.464   6.325   0.551 -0.0238 -0.1589  0.2760
13985TIP3    H163370   1.488   6.410   0.515  0.4902  0.0084  0.9903
13985TIP3    H263371   1.393   6.293   0.495  0.3488  0.3653 -0.4961
13986TIP3   OH263372   4.319   4.742  13.998 -0.2100 -0.0459  0.0401
13986TIP3    H163373   4.303   4.836  14.005  1.7523  0.4457 -1.3270
13986TIP3    H263374   4.378   4.722  14.070  0.0878 -0.0449 -0.2023
13987TIP3   OH263375   2.282   6.700   3.618  0.2309  0.2351  0.4256
13987TIP3    H163376   2.210   6.639   3.637 -2.2113  2.9014  0.4063
13987TIP3    H263377   2.312   6.728   3.704  2.1074 -1.6704  0.4669
13988TIP3   OH263378   5.011   5.604  14.968 -0.1136  0.2943  0.1214
13988TIP3    H163379   5.014   5.698  14.955 -0.3718  0.2171 -0.5614
13988TIP3    H263380   4.934   5.576  14.918  0.5191 -0.3962 -0.4857
13989TIP3   OH263381   4.282   4.930   4.326 -0.1658 -0.2920 -0.2399
13989TIP3    H163382   4.308   5.021   4.311  1.2253 -0.6552 -0.1532
13989TIP3    H263383   4.316   4.883   4.250 -0.6348 -0.7875 -0.1473
13990TIP3   OH263384   3.192   3.217   4.330  0.1502 -0.5871  0.8437
13990TIP3    H163385   3.259   3.177   4.386 -0.2219 -0.7695  1.1566
13990TIP3    H263386   3.124   3.151   4.322  0.7690 -1.0654 -0.8856
13991TIP3   OH263387   5.319   5.474  12.473 -0.6339 -0.6862  0.0001
13991TIP3    H163388   5.259   5.448  12.403 -1.8510 -1.2293  1.1891
13991TIP3    H263389   5.262   5.511  12.541  0.6090  0.8728  0.2672
13992TIP3   OH263390   5.697   1.250  12.606 -0.3053  0.6242 -0.3562
13992TIP3    H163391   5.756   1.194  12.657 -0.9383 -0.0387 -0.3361
13992TIP3    H263392   5.755   1.307  12.555  0.3511 -0.0139 -0.3304
13993TIP3   OH263393   0.142   5.612  12.662 -0.0919  0.0140 -0.2830
13993TIP3    H163394   0.070   5.662  12.700 -1.1210 -1.1699 -0.6124
13993TIP3    H263395   0.221   5.661  12.687 -0.8373  0.2300  1.8506
13994TIP3   OH263396   0.210   1.594  12.408 -0.3863 -0.2557  0.1871
13994TIP3    H163397   0.163   1.629  12.484 -0.3990 -0.0344  0.0770
13994TIP3    H263398   0.241   1.671  12.360  2.0135 -0.3615  1.4225
13995TIP3   OH263399   0.604   4.728  11.608 -0.0125  0.1065 -0.2226
13995TIP3    H163400   0.693   4.760  11.596  1.3144 -2.5034  1.5779
13995TIP3    H263401   0.600   4.647  11.557  0.1982 -2.0751  2.9166
13996TIP3   OH263402   2.246   4.643   6.350  0.2464 -0.8611  0.0252
13996TIP3    H163403   2.182   4.616   6.285  1.2433  0.8323 -1.7547
13996TIP3    H263404   2.201   4.708   6.403 -1.0357 -3.2529  2.1042
13997TIP3   OH263405   0.002   1.793   4.931  0.0390 -0.2312 -0.4219
13997TIP3    H163406  -0.086   1.832   4.926 -0.3759 -0.9917  0.5167
13997TIP3    H263407   0.008   1.738   4.853 -0.6819 -0.8678 -0.0474
13998TIP3   OH263408   2.347   0.635   2.695 -0.0451  0.5201 -0.0500
13998TIP3    H163409   2.362   0.726   2.722 -0.2875  0.7093 -0.5466
13998TIP3    H263410   2.364   0.584   2.774  0.0099  1.0036  0.2563
13999TIP3   OH263411   0.708   2.967   2.538  0.0345  0.1716 -0.6216
13999TIP3    H163412   0.639   3.020   2.578  0.4747  0.0485  0.3262
13999TIP3    H263413   0.759   3.028   2.485 -0.2550  0.4337 -0.5987
14000TIP3   OH263414   5.972   5.050   0.324  0.3278  0.0234  0.5114
14000TIP3    H163415   5.918   5.117   0.283 -0.8906  0.5753  2.8409
14000TIP3    H263416   6.031   5.021   0.254 -0.2525  2.2730 -1.0480
14001TIP3   OH263417   0.896   0.239  14.877  0.6720  0.1307  0.3360
14001TIP3    H163418   0.928   0.157  14.837 -0.5861  0.1887 -0.8736
14001TIP3    H263419   0.833   0.272  14.814  0.7311  1.7542  1.1001
14002TIP3   OH263420   0.096   3.149   0.009 -0.0395  0.4185 -1.1812
14002TIP3    H163421   0.066   3.086  -0.056 -1.5516  0.9694 -1.0645
14002TIP3    H263422   0.041   3.133   0.085  0.1222  1.3085 -0.8606
14003TIP3   OH263423   0.969   0.057  15.093 -0.0934  0.2749 -0.2424
14003TIP3    H163424   1.043   0.082  15.148  0.4528 -0.7056 -0.5010
14003TIP3    H263425   0.972   0.118  15.019  0.1986  0.5174 -0.0310
14004TIP3   OH263426   3.711   5.012   2.385  0.4025  0.0074 -0.4184
14004TIP3    H163427   3.628   5.007   2.432  0.3051  1.4410 -0.3924
14004TIP3    H263428   3.778   4.991   2.450  0.0620 -1.5423 -0.5327
14005TIP3   OH263429   1.454   6.367  14.615  0.3383 -0.4783 -0.7796
14005TIP3    H163430   1.389   6.344  14.549 -1.6502 -0.8033  1.1585
14005TIP3    H263431   1.460   6.463  14.610 -1.5857 -0.2686  0.0761
14006TIP3   OH263432   1.676   4.181   5.275 -0.8311 -0.2563 -0.1630
14006TIP3    H163433   1.721   4.098   5.289 -2.0321 -1.0793 -0.9726
14006TIP3    H263434   1.746   4.245   5.261  0.1845 -1.8572 -3.5546
14007TIP3   OH263435   0.448   4.846  14.522 -0.5714 -0.1966 -0.3090
14007TIP3    H163436   0.528   4.860  14.470 -0.3023 -0.5688 -0.0058
14007TIP3    H263437   0.480   4.805  14.602 -0.7178  2.2306  1.0846
14008TIP3   OH263438   0.562   3.291   3.885 -0.3781 -0.2410 -0.2036
14008TIP3    H163439   0.553   3.326   3.796 -0.9775  1.0412  0.3378
14008TIP3    H263440   0.652   3.312   3.909  0.1632 -1.6421 -0.9206
14009TIP3   OH263441   1.543   3.534  15.366 -0.2353 -0.4295 -0.2614
14009TIP3    H163442   1.605   3.573  15.303 -1.6302 -1.5551 -2.4587
14009TIP3    H263443   1.599   3.496  15.433  1.3905  0.0480 -1.2632
14010TIP3   OH263444   1.793   3.319   1.944 -0.5773  0.4958 -0.6942
14010TIP3    H163445   1.887   3.310   1.957 -0.6512  0.5098 -0.1150
14010TIP3    H263446   1.782   3.327   1.850 -0.0087  0.3667 -0.7739
14011TIP3   OH263447   1.116   5.705   1.182 -0.3734 -0.0415  0.5584
14011TIP3    H163448   1.212   5.703   1.176 -0.4521 -2.1061 -2.6489
14011TIP3    H263449   1.092   5.788   1.141 -0.0027  0.8243  2.0258
14012TIP3   OH263450   3.557   5.461   3.340 -0.0407  0.1171  0.2993
14012TIP3    H163451   3.500   5.408   3.397  0.5661 -0.2548  0.5692
14012TIP3    H263452   3.641   5.463   3.386  0.5923 -0.5632 -0.7837
14013TIP3   OH263453   2.778   0.995  16.106 -0.1120 -0.3028  0.4478
14013TIP3    H163454   2.857   1.037  16.075  0.4849 -1.2417  0.6566
14013TIP3    H263455   2.707   1.051  16.075  0.6928  2.3312  2.8804
14014TIP3   OH263456   0.439   0.245   2.931 -0.2419 -0.1902 -0.6516
14014TIP3    H163457   0.497   0.270   3.004  0.2098  0.0929 -1.1016
14014TIP3    H263458   0.362   0.207   2.974 -0.4332  0.8993  0.0159
14015TIP3   OH263459   1.246   3.638  13.761  0.1761 -0.1469  0.3942
14015TIP3    H163460   1.286   3.683  13.835  0.4610  0.8187 -0.3246
14015TIP3    H263461   1.292   3.672  13.684  0.6243 -1.9218 -0.1730
14016TIP3   OH263462   6.537   1.713   3.368 -0.2783 -0.5244 -0.3537
14016TIP3    H163463   6.576   1.759   3.442 -0.5659  1.3217 -1.3073
14016TIP3    H263464   6.610   1.667   3.327 -0.2036 -2.0577  1.3562
14017TIP3   OH263465   0.666   3.606  15.636 -0.4347  0.0256 -0.5469
14017TIP3    H163466   0.579   3.643  15.645 -0.6875 -0.3547 -1.3440
14017TIP3    H263467   0.652   3.511  15.634  0.0115 -0.0458 -0.5429
14018TIP3   OH263468   6.042   2.382  15.587  0.3082 -0.4179 -0.1667
14018TIP3    H163469   5.951   2.407  15.573  0.7679  2.2399  1.0437
14018TIP3    H263470   6.037   2.298  15.632 -1.6498  0.4865  1.4718
14019TIP3   OH263471   5.770   1.720   3.542  0.7075  0.0630 -0.1143
14019TIP3    H163472   5.863   1.703   3.525  1.0079  1.9006 -0.6079
14019TIP3    H263473   5.769   1.758   3.630  0.3779 -0.2210  0.0056
14020TIP3   OH263474   3.920   5.847  14.872  0.0092 -0.6629 -0.4201
14020TIP3    H163475   3.919   5.757  14.904 -2.3636 -0.4525  0.3001
14020TIP3    H263476   4.011   5.875  14.881  0.4972 -2.4730  0.8300
14021TIP3   OH263477   1.168   6.752   3.602 -0.4352  0.1618  0.3715
14021TIP3    H163478   1.126   6.789   3.680 -2.1919 -1.3087  0.2077
14021TIP3    H263479   1.198   6.666   3.630  2.5389  1.1310  0.4424
14022TIP3   OH263480   0.682   6.247   4.607 -0.2450  0.2519  0.3462
14022TIP3    H163481   0.607   6.291   4.567 -0.3296  1.6770  1.9725
14022TIP3    H263482   0.744   6.235   4.535 -1.1715  0.9370 -0.6042
14023TIP3   OH263483   2.067   6.473   4.215  0.4341 -0.3543  0.1073
14023TIP3    H163484   2.035   6.408   4.277 -0.4415  0.3088  0.3831
14023TIP3    H263485   2.070   6.428   4.131  1.4861 -1.2208  0.5944
14024TIP3   OH263486   0.071   1.227   3.335 -0.0968  0.3920 -0.1210
14024TIP3    H163487   0.019   1.306   3.350  0.6426  0.6275  1.4663
14024TIP3    H263488   0.012   1.155   3.354 -0.3669  0.6111 -0.1266
14025TIP3   OH263489   4.691   1.958  13.814 -0.0514 -0.1984 -0.4898
14025TIP3    H163490   4.659   1.869  13.823  0.1428 -0.2296 -0.1113
14025TIP3    H263491   4.726   1.980  13.900 -2.4839  1.1779  0.2457
14026TIP3   OH263492   1.169   1.096  14.141  0.4059  0.0770 -0.2252
14026TIP3    H163493   1.091   1.086  14.196 -1.3898 -0.6781 -2.7170
14026TIP3    H263494   1.234   1.038  14.181 -1.1724 -1.2743  0.5164
14027TIP3   OH263495   3.311   6.656   6.281 -0.1540 -0.0250  0.2973
14027TIP3    H163496   3.378   6.717   6.311 -0.5501  0.0429  1.0786
14027TIP3    H263497   3.233   6.710   6.270 -0.5197 -0.3778  1.0399
14028TIP3   OH263498   4.181   3.815  12.012  0.0097 -0.0306  0.1082
14028TIP3    H163499   4.196   3.721  12.002 -0.2746 -0.0474 -0.1456
14028TIP3    H263500   4.101   3.821  12.065  0.5788  0.0653  0.9926
14029TIP3   OH263501   5.082   3.222  16.436  0.6928  0.1105 -0.3075
14029TIP3    H163502   5.046   3.211  16.524 -0.1683  0.9478 -0.5355
14029TIP3    H263503   5.162   3.274  16.449  0.0703  1.0495 -0.0838
14030TIP3   OH263504   5.734   1.066   2.614 -0.5230  0.0921  0.3348
14030TIP3    H163505   5.701   1.000   2.675  0.9149 -2.0855 -1.1073
14030TIP3    H263506   5.804   1.110   2.663 -1.6561  0.7690  1.4001
14031TIP3   OH263507   5.956   3.216   1.446 -0.3360  0.4499  0.5193
14031TIP3    H163508   5.898   3.167   1.389  0.2379  0.5293 -0.1503
14031TIP3    H263509   6.026   3.248   1.388  0.6097 -0.0125  1.3648
14032TIP3   OH263510   6.085   5.132   2.503 -1.1560 -0.3693 -0.7660
14032TIP3    H163511   6.043   5.064   2.450 -0.8414 -0.8997 -0.3360
14032TIP3    H263512   6.074   5.212   2.451 -0.7121 -0.9036 -1.7196
14033TIP3   OH263513   1.580   1.982   5.392 -0.8431  1.0486  0.6984
14033TIP3    H163514   1.506   1.928   5.364 -1.5209  1.7990  0.9981
14033TIP3    H263515   1.617   2.015   5.310 -0.2036 -0.1351  0.4934
14034TIP3   OH263516   1.555   2.523  15.368 -0.4277 -0.7920 -0.1112
14034TIP3    H163517   1.645   2.549  15.388 -0.3849  0.3420 -1.6550
14034TIP3    H263518   1.554   2.429  15.385  1.0892 -0.8601 -0.2028
14035TIP3   OH263519   0.249   4.818   4.907 -0.3210  0.2883 -0.2664
14035TIP3    H163520   0.245   4.881   4.980  1.5119 -1.1167  1.1387
14035TIP3    H263521   0.160   4.783   4.902 -0.1970 -0.6907  2.4210
14036TIP3   OH263522   6.402   1.067  15.171 -0.6217 -0.1231 -0.0278
14036TIP3    H163523   6.490   1.102  15.186 -0.7023 -0.2380  0.7191
14036TIP3    H263524   6.375   1.107  15.088  0.1958 -0.2131 -0.3495
14037TIP3   OH263525   4.364   5.977   0.764 -0.2474  0.2997 -0.0227
14037TIP3    H163526   4.298   6.046   0.761 -0.1762  0.4362  1.0710
14037TIP3    H263527   4.328   5.913   0.825  0.7272  0.4930  0.7806
14038TIP3   OH263528   4.383   5.817  15.609  0.4326  0.3876 -0.4510
14038TIP3    H163529   4.307   5.783  15.658  0.6028  1.2670  0.4545
14038TIP3    H263530   4.374   5.778  15.523 -0.5456 -0.2697 -0.0813
14039TIP3   OH263531   1.368   4.383  13.197  0.5554 -0.0024 -0.3430
14039TIP3    H163532   1.399   4.472  13.216  2.7666 -1.0037  1.1586
14039TIP3    H263533   1.273   4.388  13.207  0.6704  2.0750  0.2430
14040TIP3   OH263534   3.724   6.453  15.312  0.2452 -0.1822 -0.3194
14040TIP3    H163535   3.778   6.378  15.287  2.3237  1.6983 -1.9088
14040TIP3    H263536   3.659   6.460  15.242  0.2755 -0.3083 -0.3599
14041TIP3   OH263537   1.533   1.077   0.978 -0.2990  0.0060  0.8758
14041TIP3    H163538   1.484   1.100   1.057 -0.3485  0.4355  0.7210
14041TIP3    H263539   1.623   1.105   0.996 -0.4389  0.6931  0.5343
14042TIP3   OH263540   6.101   1.268  16.899  0.0946  0.4027  0.7690
14042TIP3    H163541   6.149   1.212  16.838  0.6947  0.9353  0.7413
14042TIP3    H263542   6.110   1.224  16.984 -1.1122 -0.5719  0.4229
14043TIP3   OH263543   2.249   6.804  14.528  0.1660  0.3328 -0.2718
14043TIP3    H163544   2.332   6.794  14.576 -0.2461 -3.6325 -0.0591
14043TIP3    H263545   2.183   6.815  14.597  0.1577 -0.2144 -0.1821
14044TIP3   OH263546   2.756   6.763  12.457 -0.2181  0.0585  0.3366
14044TIP3    H163547   2.819   6.815  12.505 -1.3437  1.1392  0.6992
14044TIP3    H263548   2.687   6.743  12.521 -0.9338  0.1150 -0.3946
14045TIP3   OH263549   1.084   0.166   4.411  0.0315 -0.1296 -0.3326
14045TIP3    H163550   1.013   0.214   4.454  0.1035  0.3703 -0.7586
14045TIP3    H263551   1.040   0.095   4.364 -0.1642  0.0098 -0.3628
14046TIP3   OH263552   1.781   6.520   5.156 -0.1893 -0.6075 -0.1342
14046TIP3    H163553   1.729   6.449   5.195  1.5652 -1.3220  1.0848
14046TIP3    H263554   1.793   6.583   5.227  0.0109 -0.1273 -0.5876
14047TIP3   OH263555   4.239   4.150  12.497 -0.2752  0.4418 -0.5625
14047TIP3    H163556   4.243   4.103  12.414 -1.9420 -0.5802 -0.0941
14047TIP3    H263557   4.159   4.202  12.491  0.0015  0.9586  0.1223
14048TIP3   OH263558   4.956   2.848  13.550  0.5551  0.3476 -0.4853
14048TIP3    H163559   4.896   2.906  13.503  0.5763  0.7716  0.0050
14048TIP3    H263560   5.007   2.806  13.481  0.0943  0.4218 -0.8777
14049TIP3   OH263561   2.339   2.648   2.823 -0.4304  0.1537 -0.6566
14049TIP3    H163562   2.290   2.724   2.792 -1.4884  0.2388  1.1019
14049TIP3    H263563   2.403   2.683   2.885 -0.0592 -0.2689 -0.7873
14050TIP3   OH263564   2.912   3.629  11.801 -0.0325  0.8399 -0.1257
14050TIP3    H163565   2.914   3.671  11.715 -0.7654  0.2106 -0.4678
14050TIP3    H263566   2.891   3.537  11.782  2.4862  0.0496  0.5139
14051TIP3   OH263567   4.843   3.972   3.526  0.6425 -0.0023  0.2710
14051TIP3    H163568   4.799   3.945   3.606  2.8225  0.4831  1.6864
14051TIP3    H263569   4.917   4.024   3.555  1.6201  0.0179 -2.0600
14052TIP3   OH263570   1.488   5.628  12.399 -0.2950  0.5145 -0.2255
14052TIP3    H163571   1.406   5.660  12.436 -0.2723 -0.4504  0.7302
14052TIP3    H263572   1.487   5.534  12.417  0.6294  0.3406 -0.9758
14053TIP3   OH263573   0.483   1.647  13.145  0.1817 -0.5398 -0.5868
14053TIP3    H163574   0.427   1.584  13.100 -0.3782  0.7233 -1.7600
14053TIP3    H263575   0.571   1.609  13.141  0.0025 -0.8441 -2.0531
14054TIP3   OH263576   2.120   5.065   2.557  0.6042 -0.4661 -0.4651
14054TIP3    H163577   2.164   5.149   2.572 -0.2192  0.3017 -1.9831
14054TIP3    H263578   2.107   5.063   2.462 -2.9402 -0.4097 -0.1185
14055TIP3   OH263579   4.615   4.364  14.289 -0.1625  0.3337 -0.3029
14055TIP3    H163580   4.565   4.378  14.208 -2.1904  1.0330  0.9978
14055TIP3    H263581   4.605   4.271  14.307  3.3444 -0.7139 -2.6445
14056TIP3   OH263582   1.976   4.195   1.819  0.2340  0.3845  0.0501
14056TIP3    H163583   2.048   4.189   1.756  0.8218  0.2198  0.7348
14056TIP3    H263584   1.959   4.289   1.828  1.4016  0.5116  1.0525
14057TIP3   OH263585   4.867   4.881   4.460  0.2678  0.1225 -0.2709
14057TIP3    H163586   4.789   4.910   4.506  0.4460 -1.2912  0.9864
14057TIP3    H263587   4.857   4.787   4.451  1.4083  0.0332 -0.9137
14058TIP3   OH263588   3.921   0.338  10.571  0.1934  0.3732 -0.1508
14058TIP3    H163589   3.863   0.363  10.500 -1.0332 -1.6071  0.0765
14058TIP3    H263590   3.950   0.421  10.609 -0.9053  1.4265 -1.5224
14059TIP3   OH263591   2.635   0.989  10.831 -0.1509  0.1205 -0.0842
14059TIP3    H163592   2.600   1.023  10.913 -1.6415 -0.2668 -0.5278
14059TIP3    H263593   2.679   1.063  10.790  0.1963  0.4335  0.8457
14060TIP3   OH263594   1.873   5.590   2.948 -0.8472  0.5164 -0.7037
14060TIP3    H163595   1.908   5.502   2.960 -0.9498  0.7204  1.7500
14060TIP3    H263596   1.937   5.635   2.893  0.5781 -0.3533  0.1798
14061TIP3   OH263597   1.481   0.307   3.058 -0.1108 -0.1469 -0.2424
14061TIP3    H163598   1.418   0.247   3.019  1.9831 -2.1364 -0.8121
14061TIP3    H263599   1.553   0.250   3.087  0.2735  1.7055  2.8065
14062TIP3   OH263600   1.618   3.490   0.865 -0.0821  0.0458  0.1750
14062TIP3    H163601   1.544   3.538   0.901  0.4595  0.3036  0.9884
14062TIP3    H263602   1.694   3.527   0.910  0.5926  0.1216 -0.9970
14063TIP3   OH263603   0.169   3.554  10.920 -0.4358 -0.1584 -0.4374
14063TIP3    H163604   0.097   3.612  10.897 -1.3396 -0.8632  0.5592
14063TIP3    H263605   0.153   3.474  10.869  0.6302  0.3111 -1.5625
14064TIP3   OH263606   5.502   0.505   3.428  0.1265 -0.2228 -0.3546
14064TIP3    H163607   5.481   0.516   3.521  0.0031 -0.0500 -0.4027
14064TIP3    H263608   5.483   0.413   3.410  0.6029 -0.3754 -0.0924
14065TIP3   OH263609   2.796   5.102   0.047  0.0251  0.8566  0.3192
14065TIP3    H163610   2.720   5.046   0.064  0.0007  0.7027 -0.3023
14065TIP3    H263611   2.872   5.049   0.071 -0.0486  0.9431  0.7584
14066TIP3   OH263612   5.182   2.802  11.134  0.3076 -0.2487  0.0732
14066TIP3    H163613   5.162   2.825  11.043 -2.2146 -0.4996  0.5097
14066TIP3    H263614   5.183   2.707  11.135 -0.5331 -0.2585  0.4628
14067TIP3   OH263615   3.205   6.084  12.034 -0.3226 -0.7671 -0.8245
14067TIP3    H163616   3.187   6.154  12.097 -1.4798 -0.1991 -1.7693
14067TIP3    H263617   3.159   6.008  12.070  0.5268 -0.9487 -0.0601
14068TIP3   OH263618   4.091   2.460   0.496 -0.1218  0.1826  0.1351
14068TIP3    H163619   4.017   2.436   0.551 -0.6638 -0.8977 -1.0088
14068TIP3    H263620   4.083   2.555   0.484  0.3709  0.5609  2.3616
14069TIP3   OH263621   3.264   4.288  12.244 -0.4872 -0.0465 -0.0522
14069TIP3    H163622   3.356   4.268  12.226 -0.7975 -0.9407 -0.6919
14069TIP3    H263623   3.266   4.375  12.285  0.5300  0.6685 -1.4937
14070TIP3   OH263624   1.760   6.411  11.702  0.0674 -0.4087 -0.2910
14070TIP3    H163625   1.830   6.455  11.750  0.0447  1.1847 -1.6462
14070TIP3    H263626   1.791   6.320  11.694  1.9130  0.1971 -0.6468
14071TIP3   OH263627   4.601   2.648  14.434  0.2390 -0.0408  0.6801
14071TIP3    H163628   4.667   2.603  14.381  0.1913  0.6176  0.0542
14071TIP3    H263629   4.645   2.726  14.468  0.5855 -0.9516  2.4797
14072TIP3   OH263630   0.478   6.078  13.552 -0.2537 -0.8779  0.3283
14072TIP3    H163631   0.459   6.110  13.641 -0.7326 -1.1335  0.3232
14072TIP3    H263632   0.451   6.150  13.495 -0.9285 -1.1202  0.3372
14073TIP3   OH263633   4.590   1.001   3.187  0.4070  0.3330  0.1111
14073TIP3    H163634   4.672   0.966   3.151  0.1290  0.6364 -0.8296
14073TIP3    H263635   4.598   0.988   3.282  0.0229 -3.0040 -0.1820
14074TIP3   OH263636   4.346   2.611   1.896 -0.2296 -0.3674 -0.1727
14074TIP3    H163637   4.335   2.701   1.865 -2.4852 -0.9189 -1.1596
14074TIP3    H263638   4.327   2.616   1.990  2.1350  0.5327  0.3462
14075TIP3   OH263639   6.375   3.729   5.486  0.6279 -0.2258 -0.1912
14075TIP3    H163640   6.362   3.696   5.575  1.8713 -0.8718 -0.2260
14075TIP3    H263641   6.383   3.650   5.432  0.3614  0.1604 -0.8152
14076TIP3   OH263642   6.175   0.234   3.315  0.1287 -0.3632 -0.7778
14076TIP3    H163643   6.165   0.185   3.233 -2.5953 -0.2096 -0.6080
14076TIP3    H263644   6.164   0.169   3.384 -0.2697 -0.0467 -0.5421
14077TIP3   OH263645   4.695   6.140   0.636 -0.0799 -0.1468 -0.4831
14077TIP3    H163646   4.770   6.079   0.633 -0.3775 -0.4958 -1.0411
14077TIP3    H263647   4.731   6.223   0.604 -0.1799 -0.5986 -1.8277
14078TIP3   OH263648   1.608   3.415  15.034 -0.1078 -0.4096  0.2196
14078TIP3    H163649   1.585   3.508  15.031  1.9079  0.1218 -0.0240
14078TIP3    H263650   1.556   3.375  14.964  0.9596  1.0306 -1.4621
14079TIP3   OH263651   0.042   2.587  13.243 -0.3810 -0.1076  0.1334
14079TIP3    H163652  -0.011   2.513  13.215 -0.4178  0.5506 -1.6628
14079TIP3    H263653  -0.013   2.633  13.307 -1.2415 -0.4612 -0.3341
14080TIP3   OH263654   4.171   1.112   3.194 -0.2301  0.2532  0.0975
14080TIP3    H163655   4.210   1.132   3.279 -0.9665  1.7898  0.1074
14080TIP3    H263656   4.242   1.124   3.131 -0.2043  1.2199  0.2967
14081TIP3   OH263657   2.747   0.272  16.014 -0.0944  0.2194  0.7133
14081TIP3    H163658   2.827   0.285  15.963 -0.1522 -1.0522  0.2737
14081TIP3    H263659   2.756   0.184  16.051 -0.1634  1.0080  2.7307
14082TIP3   OH263660   5.122   0.880   2.199  0.3274 -0.2445 -0.0831
14082TIP3    H163661   5.111   0.969   2.233  0.7997  0.3915 -1.5266
14082TIP3    H263662   5.114   0.824   2.277 -2.4236  0.8345  0.5348
14083TIP3   OH263663   2.143   4.210   1.578 -0.4933  0.7079  0.1830
14083TIP3    H163664   2.151   4.117   1.558  0.4592  0.6836  0.6385
14083TIP3    H263665   2.194   4.254   1.510 -1.3577  0.9458 -0.3336
14084TIP3   OH263666   0.649   2.776   3.602 -0.4199 -0.3369  0.2710
14084TIP3    H163667   0.613   2.864   3.614  1.7912  0.7107 -0.4072
14084TIP3    H263668   0.597   2.721   3.662 -1.3455  1.5367  1.2743
14085TIP3   OH263669   3.221   3.536  11.810  0.1981 -0.3641 -0.0663
14085TIP3    H163670   3.140   3.486  11.795  0.1363 -0.1613 -0.4107
14085TIP3    H263671   3.269   3.485  11.875  0.6580 -1.4761 -1.2426
14086TIP3   OH263672   1.465   6.675  16.292  0.2643  0.1779  0.2364
14086TIP3    H163673   1.429   6.736  16.357  0.7960  1.5484 -0.7018
14086TIP3    H263674   1.398   6.608  16.282 -1.4377  1.9095 -0.4389
14087TIP3   OH263675   6.576   5.373  12.662  0.5569  0.1575  0.2194
14087TIP3    H163676   6.496   5.347  12.617  0.4590 -2.1765  1.5507
14087TIP3    H263677   6.620   5.290  12.682  1.1871  1.0851  3.2111
14088TIP3   OH263678   4.276   2.217  12.230 -0.1375  0.0539  0.0078
14088TIP3    H163679   4.349   2.233  12.290 -0.8840  1.0207  0.6814
14088TIP3    H263680   4.207   2.181  12.285 -1.2493  2.0384  0.0192
14089TIP3   OH263681   6.007   4.074  13.298  0.5642 -0.4891  0.0398
14089TIP3    H163682   5.991   4.160  13.259  1.9020 -0.5230 -0.6452
14089TIP3    H263683   5.930   4.057  13.352  0.0471  0.9059 -0.2258
14090TIP3   OH263684   4.468   6.184   4.128 -0.3725  0.0245  0.0374
14090TIP3    H163685   4.532   6.255   4.138 -1.1580  0.6594  0.6464
14090TIP3    H263686   4.441   6.164   4.217  1.1837 -2.3402  0.0759
14091TIP3   OH263687   4.565   1.657   0.161  0.2428 -0.6069  0.4134
14091TIP3    H163688   4.579   1.566   0.188 -0.9438 -1.7557 -2.4280
14091TIP3    H263689   4.652   1.696   0.162  0.8717 -1.9662  1.0393
14092TIP3   OH263690   0.963   2.562   4.635  0.3845 -0.1398 -0.3731
14092TIP3    H163691   0.931   2.642   4.594  1.8351  0.2613 -0.8077
14092TIP3    H263692   0.961   2.580   4.729  0.7187  0.4372 -0.4686
14093TIP3   OH263693   0.000   5.409  14.821  0.3247 -0.8788  0.0762
14093TIP3    H163694  -0.071   5.345  14.825 -1.5845  1.1679  1.0334
14093TIP3    H263695   0.009   5.440  14.911  0.6877  0.7166 -0.4814
14094TIP3   OH263696   4.523   3.888   0.466  0.0780  0.2832  0.1973
14094TIP3    H163697   4.549   3.919   0.552  1.4189  1.9926 -0.7679
14094TIP3    H263698   4.550   3.796   0.464  0.2071  0.2786  1.5127
14095TIP3   OH263699   2.992   4.908   0.058  0.0754  0.4232  0.0742
14095TIP3    H163700   3.059   4.878   0.120 -0.3055 -0.7031 -0.0371
14095TIP3    H263701   3.038   4.913  -0.026 -0.2317 -1.5385 -0.2517
14096TIP3   OH263702   4.326   3.824   0.290 -0.1693 -0.3252  0.5494
14096TIP3    H163703   4.232   3.841   0.297 -0.4783 -1.1412 -1.1513
14096TIP3    H263704   4.361   3.845   0.377 -1.9739 -0.3601  1.3206
14097TIP3   OH263705   1.831   3.083   2.824 -0.1926 -0.1727 -1.2372
14097TIP3    H163706   1.794   3.171   2.825 -0.8289 -0.4308 -0.3685
14097TIP3    H263707   1.865   3.071   2.736 -2.6858 -0.1241 -2.2843
14098TIP3   OH263708   3.146   4.053   4.849  0.1878  0.1547 -0.3404
14098TIP3    H163709   3.084   3.996   4.895 -0.7496 -0.1664 -1.9529
14098TIP3    H263710   3.092   4.112   4.797  1.2066  1.0898 -0.3772
14099TIP3   OH263711   2.036   3.368  15.050  0.5062  0.9028 -0.3406
14099TIP3    H163712   1.980   3.424  15.104  0.3520  2.3365 -1.9036
14099TIP3    H263713   1.985   3.354  14.969  2.1404  1.8010 -1.5785
14100TIP3   OH263714   4.781   6.330  14.624 -0.1644 -0.1677 -0.0258
14100TIP3    H163715   4.862   6.380  14.631 -0.5247  0.4077  0.1602
14100TIP3    H263716   4.774   6.307  14.532  0.5787 -0.8595  0.0790
14101TIP3   OH263717   3.607   4.204   2.582  0.0101 -0.1141 -0.2499
14101TIP3    H163718   3.702   4.218   2.581 -0.0115  0.0317 -0.1948
14101TIP3    H263719   3.583   4.203   2.489  0.3573 -2.1340 -0.3761
14102TIP3   OH263720   4.370   5.456   0.267 -0.2816  0.2669  0.2406
14102TIP3    H163721   4.367   5.368   0.229  1.2944  0.4810 -0.4389
14102TIP3    H263722   4.304   5.454   0.337  0.2253 -1.6698  0.7249
14103TIP3   OH263723   0.379   4.802   1.937 -0.7410  0.8309 -0.2304
14103TIP3    H163724   0.337   4.839   1.860 -1.1964  1.6940  0.4160
14103TIP3    H263725   0.310   4.753   1.981 -1.3504  2.8500  1.2226
14104TIP3   OH263726   2.438   5.213   4.832  0.0428  0.1613  0.2292
14104TIP3    H163727   2.411   5.187   4.920  0.5910  0.3158  0.4475
14104TIP3    H263728   2.513   5.270   4.846  0.8394 -0.7017 -0.3736
14105TIP3   OH263729   3.073   4.833  11.710  0.4448 -0.1519  0.0032
14105TIP3    H163730   3.097   4.923  11.689 -2.0437  0.7434  0.6638
14105TIP3    H263731   3.049   4.794  11.626  0.5999  0.0905 -0.1551
14106TIP3   OH263732   6.537   5.962  16.147 -0.0742  1.1871 -0.2217
14106TIP3    H163733   6.579   6.034  16.100  1.1157  0.2744 -0.5901
14106TIP3    H263734   6.555   5.884  16.094 -2.0812  0.7030 -0.2947
14107TIP3   OH263735   1.614   2.938  15.000  0.3979  0.1726 -0.6322
14107TIP3    H163736   1.657   3.013  14.961  1.3024  0.0606  0.1357
14107TIP3    H263737   1.529   2.971  15.030  1.0178  1.0272  0.2083
14108TIP3   OH263738   6.276   3.839  13.957  0.1263 -0.5141  0.0607
14108TIP3    H163739   6.216   3.814  13.887 -1.7188  0.5074  1.1734
14108TIP3    H263740   6.254   3.780  14.029  1.9511 -1.5078 -0.1505
14109TIP3   OH263741   3.506   5.609   2.386  0.0381  0.2873  0.0049
14109TIP3    H163742   3.491   5.647   2.299  2.0066  0.2144 -0.4117
14109TIP3    H263743   3.581   5.657   2.421 -0.1764 -0.2806  1.3089
14110TIP3   OH263744   0.866   4.551  12.086 -0.4465 -0.1538  0.0349
14110TIP3    H163745   0.908   4.628  12.050 -1.3856 -0.0890 -0.9580
14110TIP3    H263746   0.773   4.561  12.065 -0.4227 -2.1553 -1.2819
14111TIP3   OH263747   4.952   2.525  13.288 -0.0949  0.3532 -0.1599
14111TIP3    H163748   4.857   2.535  13.293 -0.0213  0.4328  1.7931
14111TIP3    H263749   4.984   2.609  13.256 -0.4879  1.5117  2.3091
14112TIP3   OH263750   4.205   2.710  13.037 -0.0318 -0.4067  0.5119
14112TIP3    H163751   4.160   2.771  13.096 -0.5262 -0.6869  0.4324
14112TIP3    H263752   4.296   2.737  13.040 -0.6323  2.5133 -2.0204
14113TIP3   OH263753   3.562   6.500   4.499 -0.4886 -0.7988  0.3980
14113TIP3    H163754   3.506   6.552   4.442 -0.4686  0.0995  1.1664
14113TIP3    H263755   3.502   6.463   4.564 -0.1697  0.4471  1.4277
14114TIP3   OH263756   0.669   0.578   4.922 -0.0643  0.3751  0.1999
14114TIP3    H163757   0.688   0.663   4.962 -0.6088  0.7530 -0.3201
14114TIP3    H263758   0.727   0.574   4.846 -0.5124  0.5766 -0.1544
14115TIP3   OH263759   4.352   1.208   2.643 -0.2353 -0.0883 -0.1016
14115TIP3    H163760   4.315   1.253   2.718 -1.3317 -0.8713 -0.1558
14115TIP3    H263761   4.418   1.149   2.681  0.2232  0.5332  0.0924
14116TIP3   OH263762   6.138   5.233  11.511  0.6304  0.6924 -0.0838
14116TIP3    H163763   6.063   5.211  11.456  2.4987  2.3655 -3.6036
14116TIP3    H263764   6.118   5.320  11.546 -0.3729 -0.2021  1.7453
14117TIP3   OH263765   5.742   4.200   2.476 -0.4088 -0.2618 -0.2567
14117TIP3    H163766   5.770   4.285   2.510  1.4674 -1.5435  1.6816
14117TIP3    H263767   5.648   4.195   2.494 -0.2991  0.9174  0.6977
14118TIP3   OH263768   4.259   2.324  15.785 -0.5202  0.7111  0.2190
14118TIP3    H163769   4.353   2.342  15.784 -0.1511 -0.8899 -2.1724
14118TIP3    H263770   4.224   2.373  15.710 -0.9655 -1.2288 -0.9223
14119TIP3   OH263771   1.420   5.281  13.187  0.3364  0.0130  0.2394
14119TIP3    H163772   1.356   5.245  13.125 -0.1122 -1.3054  1.4101
14119TIP3    H263773   1.369   5.338  13.244  1.0543  2.7494 -1.6424
14120TIP3   OH263774   4.323   6.117  14.640 -0.0660 -0.8156 -0.1516
14120TIP3    H163775   4.297   6.141  14.729 -0.0487 -0.8642 -0.1329
14120TIP3    H263776   4.418   6.132  14.639  0.1545 -2.0937  0.2519
14121TIP3   OH263777   6.684   5.095  12.202  0.0102  0.0139  0.2986
14121TIP3    H163778   6.628   5.149  12.146  1.7373  0.3750 -1.2009
14121TIP3    H263779   6.770   5.098  12.159  0.9708 -1.2188  2.0140
14122TIP3   OH263780   6.678   6.508  11.153  0.1421 -0.0244 -0.4961
14122TIP3    H163781   6.621   6.573  11.194 -0.7559 -0.7138 -0.6257
14122TIP3    H263782   6.665   6.520  11.059  0.8019  0.3250 -0.5499
14123TIP3   OH263783   0.073   4.266  11.115  0.2946  0.2030 -0.0793
14123TIP3    H163784  -0.009   4.302  11.080  1.0050  1.3752 -0.5970
14123TIP3    H263785   0.079   4.179  11.076  0.7523  1.2340 -2.5332
14124TIP3   OH263786   1.863   4.691  15.763 -0.1085 -0.3969 -1.0047
14124TIP3    H163787   1.783   4.697  15.815  1.0654 -1.1756  1.0133
14124TIP3    H263788   1.833   4.669  15.675 -2.1088 -0.6199 -0.3170
14125TIP3   OH263789   0.194   4.240   4.082 -0.3124 -0.6070  0.1934
14125TIP3    H163790   0.242   4.158   4.071 -1.1676 -1.2774  1.2179
14125TIP3    H263791   0.263   4.308   4.087  0.3363 -0.8326 -3.3196
14126TIP3   OH263792   3.641   1.409  10.925 -0.5018 -0.0194 -0.4294
14126TIP3    H163793   3.732   1.407  10.956 -0.7030  1.5184  0.3439
14126TIP3    H263794   3.648   1.410  10.829  0.3534  1.3691 -0.3664
14127TIP3   OH263795   5.578   1.196  16.804 -0.3627  0.3991  0.0124
14127TIP3    H163796   5.524   1.244  16.867  1.3280  2.4817 -0.0021
14127TIP3    H263797   5.613   1.122  16.853 -1.6160  0.1475  0.5632
14128TIP3   OH263798   0.856   6.074   2.915  0.2981 -0.1816  0.1620
14128TIP3    H163799   0.818   6.046   2.832  0.3617 -0.8687  0.3543
14128TIP3    H263800   0.945   6.101   2.893 -0.4962  2.2143 -0.4251
14129TIP3   OH263801   0.540   0.315   6.019  0.3120 -0.0752 -0.1055
14129TIP3    H163802   0.577   0.227   6.022  1.1977  0.2976  0.1014
14129TIP3    H263803   0.448   0.301   5.995  0.1943 -1.1201  0.8694
14130TIP3   OH263804   0.727   4.249  12.150  0.1086 -0.6337 -0.5102
14130TIP3    H163805   0.669   4.197  12.096  0.1735  0.4983 -1.7331
14130TIP3    H263806   0.701   4.230  12.240  0.5074 -3.1630 -0.8607
14131TIP3   OH263807   4.102   4.814  16.918 -0.8788 -0.2344  0.1359
14131TIP3    H163808   4.116   4.881  16.985  1.1983 -1.6905  1.2799
14131TIP3    H263809   4.054   4.859  16.848 -0.8077  2.0355  1.4550
14132TIP3   OH263810   1.342   6.105   5.895 -0.0147  0.7502 -0.3331
14132TIP3    H163811   1.431   6.077   5.918  0.6767  3.0409  0.0340
14132TIP3    H263812   1.286   6.043   5.942  1.3895  0.3240  0.9015
14133TIP3   OH263813   4.768   3.731   1.920 -0.0785 -0.2790 -0.3050
14133TIP3    H163814   4.704   3.759   1.855  1.6272 -1.9252 -2.9167
14133TIP3    H263815   4.832   3.802   1.924 -1.1725  0.6725  1.1193
14134TIP3   OH263816   1.173   1.888  10.968  0.1444 -0.9418  0.4848
14134TIP3    H163817   1.158   1.819  10.904  1.2384 -0.8383  0.1018
14134TIP3    H263818   1.087   1.930  10.978 -0.0243 -0.8883 -0.9993
14135TIP3   OH263819   5.769   0.405   0.007 -0.2637 -0.0572  0.3507
14135TIP3    H163820   5.827   0.394   0.082  0.9455  0.6261 -0.4510
14135TIP3    H263821   5.763   0.317  -0.032 -0.0767 -0.2105  0.6656
14136TIP3   OH263822   2.382   1.208   1.508 -0.2165 -0.1799 -0.4127
14136TIP3    H163823   2.380   1.120   1.544  0.4280  0.9215  2.6502
14136TIP3    H263824   2.323   1.259   1.564  1.2211  1.7958 -0.5565
14137TIP3   OH263825   6.152   3.805   0.907  0.7141 -0.7182  0.4572
14137TIP3    H163826   6.192   3.801   0.820  0.3286 -1.7587  0.3132
14137TIP3    H263827   6.130   3.898   0.919 -1.4540 -0.8674 -1.6079
14138TIP3   OH263828   5.746   2.724  11.666  0.1699  0.3748  0.1151
14138TIP3    H163829   5.755   2.640  11.712 -0.1430  0.8565  1.0746
14138TIP3    H263830   5.801   2.714  11.588 -0.1160 -0.8324  0.0468
14139TIP3   OH263831   3.879   3.310  12.323  0.0755  0.5817 -0.0008
14139TIP3    H163832   3.869   3.348  12.235  0.0317 -2.2692 -1.3334
14139TIP3    H263833   3.790   3.297  12.354  0.0208 -0.4019 -0.5160
14140TIP3   OH263834   2.625   3.768  11.665  0.3324 -0.4453  0.1453
14140TIP3    H163835   2.643   3.861  11.679  0.3963 -0.6102  1.2240
14140TIP3    H263836   2.547   3.767  11.610 -0.7411  0.2591  1.5888
14141TIP3   OH263837   0.552   4.463   0.477 -0.1678  0.3327  0.3403
14141TIP3    H163838   0.568   4.400   0.407  1.0805  0.1064  0.8084
14141TIP3    H263839   0.503   4.534   0.435  0.0784 -0.0562 -0.6243
14142TIP3   OH263840   1.883   4.098  12.796  0.3792 -0.3964 -0.1941
14142TIP3    H163841   1.865   4.173  12.741  0.8540  2.7038  3.4594
14142TIP3    H263842   1.804   4.088  12.850  1.7644  0.1640  2.0621
14143TIP3   OH263843   1.027   0.378  13.278 -0.2723  0.0628  0.1420
14143TIP3    H163844   1.112   0.423  13.279 -0.4086  0.3510 -0.4869
14143TIP3    H263845   0.997   0.381  13.369  0.9893 -1.2257  0.6329
14144TIP3   OH263846   0.344   1.781   0.239  0.1657  0.0718 -0.1895
14144TIP3    H163847   0.382   1.843   0.302 -3.7184  1.3499  1.1604
14144TIP3    H263848   0.360   1.695   0.277 -1.1823  0.7637  2.1578
14145TIP3   OH263849   5.399   0.898  13.170  0.4205  0.0996  0.1498
14145TIP3    H163850   5.407   0.809  13.206 -1.3313  0.4871  1.5878
14145TIP3    H263851   5.363   0.885  13.082  0.6575 -0.6239  0.1519
14146TIP3   OH263852   0.473   5.484  15.695  0.3059  0.0444  0.1660
14146TIP3    H163853   0.389   5.526  15.673 -0.0040  0.6909  2.3278
14146TIP3    H263854   0.538   5.532  15.644 -0.3335  1.4945  0.6694
14147TIP3   OH263855   2.245   5.859   0.002  0.2802  0.4331  0.6576
14147TIP3    H163856   2.326   5.907   0.018 -0.5053  1.3146  2.2753
14147TIP3    H263857   2.217   5.887  -0.085  0.9825  1.2237  0.6748
14148TIP3   OH263858   0.897   2.718   2.201 -0.0065 -0.3343  0.0740
14148TIP3    H163859   0.925   2.699   2.111  0.4859 -0.0341  0.1645
14148TIP3    H263860   0.835   2.648   2.221  1.3187 -1.5210  0.1817
14149TIP3   OH263861   1.321   5.668  10.885 -0.0075  0.0849  0.1385
14149TIP3    H163862   1.227   5.685  10.881  0.2800  2.0133  0.7148
14149TIP3    H263863   1.333   5.591  10.830 -1.5663  1.3851 -2.2150
14150TIP3   OH263864   2.045   1.970  12.912  0.1603 -0.2526  0.0243
14150TIP3    H163865   2.016   1.881  12.888  0.6760  0.3053 -3.1020
14150TIP3    H263866   2.101   1.997  12.839  0.7982  2.3042  1.3556
14151TIP3   OH263867   3.492   3.253  16.138 -0.0707 -0.0437 -0.3950
14151TIP3    H163868   3.535   3.282  16.219 -0.3722 -0.2793 -0.1488
14151TIP3    H263869   3.564   3.243  16.076 -0.0051  1.8331 -0.6837
14152TIP3   OH263870   0.150   1.178  13.883 -0.2377  0.2368  0.8936
14152TIP3    H163871   0.183   1.210  13.967  0.0135  0.8595  0.5636
14152TIP3    H263872   0.136   1.257  13.830  1.4402 -0.2143 -0.3178
14153TIP3   OH263873   2.034   2.961  15.296  0.0795  0.0714  0.0947
14153TIP3    H163874   2.088   3.018  15.242  0.5956 -0.1484  0.3717
14153TIP3    H263875   1.946   2.971  15.261  0.7522 -2.0910 -2.6031
14154TIP3   OH263876   2.237   5.909  15.492  0.7042  0.1060  0.4326
14154TIP3    H163877   2.180   5.929  15.417  1.2715  0.0878 -0.0133
14154TIP3    H263878   2.285   5.990  15.508  0.5514  0.1226  0.8105
14155TIP3   OH263879   3.186   5.811   2.213  0.0037 -0.3407 -0.4772
14155TIP3    H163880   3.189   5.722   2.178 -1.2065 -0.3039 -0.7251
14155TIP3    H263881   3.093   5.831   2.219  0.2069  1.8219 -2.8055
14156TIP3   OH263882   3.742   1.899   4.728 -0.2786  0.1298  0.6632
14156TIP3    H163883   3.782   1.821   4.691 -0.3128  0.2196  0.4359
14156TIP3    H263884   3.748   1.886   4.823  0.3408  0.1750  0.6311
14157TIP3   OH263885   3.173   4.093   5.742  0.5341  0.1998 -0.0832
14157TIP3    H163886   3.196   4.006   5.772  0.8097  0.0253 -0.7626
14157TIP3    H263887   3.079   4.089   5.724  0.7784 -0.3678 -1.3806
14158TIP3   OH263888   3.477   3.514  14.089  0.1235 -0.5916 -0.1894
14158TIP3    H163889   3.400   3.458  14.082  1.0353 -1.9016 -0.0334
14158TIP3    H263890   3.488   3.551  14.002 -2.1637  1.7223  0.3648
14159TIP3   OH263891   4.040   2.612   4.801  0.0096 -0.3233 -0.1861
14159TIP3    H163892   4.125   2.598   4.844  0.9835  0.8678 -1.6234
14159TIP3    H263893   4.006   2.524   4.788  1.8518 -0.9647 -1.1209
14160TIP3   OH263894   1.827   6.679  14.064 -0.3092 -0.1690  0.0554
14160TIP3    H163895   1.766   6.732  14.012  0.0966 -0.4042 -0.6768
14160TIP3    H263896   1.893   6.742  14.094  0.1205 -0.2352 -0.7345
14161TIP3   OH263897   6.632   5.844  14.439  0.4808 -0.2379 -0.1999
14161TIP3    H163898   6.613   5.937  14.451  0.7221 -0.2466  0.2667
14161TIP3    H263899   6.565   5.813  14.378  0.2678  0.1919 -0.1874
14162TIP3   OH263900   0.993   2.287  16.316  0.4637  0.0061 -0.0270
14162TIP3    H163901   1.014   2.241  16.234  0.8292 -0.3215  0.2436
14162TIP3    H263902   0.972   2.217  16.378  1.2416  0.1752  0.4494
14163TIP3   OH263903   5.792   3.853   4.261  0.5235 -0.5422  0.1561
14163TIP3    H163904   5.882   3.886   4.252  0.6544 -0.5706  1.1817
14163TIP3    H263905   5.737   3.925   4.230  0.8091  0.6342  2.1854
14164TIP3   OH263906   0.831   1.642   0.498 -0.0466  0.0943 -0.0582
14164TIP3    H163907   0.753   1.602   0.536  0.6746 -1.8821 -0.5124
14164TIP3    H263908   0.835   1.729   0.537 -2.3617  0.1923  0.1001
14165TIP3   OH263909   6.595   2.098   2.336  0.7930  0.6682  0.2292
14165TIP3    H163910   6.508   2.058   2.339  0.1490  1.9835  3.4360
14165TIP3    H263911   6.583   2.178   2.285  0.3674  0.3761 -0.1386
14166TIP3   OH263912   0.502   1.447   4.953  0.2356  0.1673 -0.2882
14166TIP3    H163913   0.541   1.360   4.965  0.0452  0.2617  1.3048
14166TIP3    H263914   0.559   1.506   5.001 -1.3154  0.4231  1.3923
14167TIP3   OH263915   2.357   4.703   5.942  0.2470 -0.0717 -0.3562
14167TIP3    H163916   2.387   4.686   6.031  0.1517 -2.4947 -0.7105
14167TIP3    H263917   2.263   4.681   5.944 -0.3073  2.0404 -0.5684
14168TIP3   OH263918   5.307   6.433   2.653 -0.1835 -0.2317 -0.9939
14168TIP3    H163919   5.321   6.363   2.717 -2.4848 -1.0436 -1.2628
14168TIP3    H263920   5.302   6.388   2.569  0.0346  0.4803 -1.3962
14169TIP3   OH263921   5.403   4.065   2.838  0.2318 -0.3304  0.2021
14169TIP3    H163922   5.312   4.095   2.838  0.7379  1.3424 -1.5205
14169TIP3    H263923   5.453   4.138   2.874  0.9867 -0.9592  0.4603
14170TIP3   OH263924   5.577   5.975  11.944  0.1049  0.0953 -0.2184
14170TIP3    H163925   5.594   5.888  11.907  1.1888 -0.8909  2.3541
14170TIP3    H263926   5.636   6.034  11.896  0.8836 -0.9675 -0.5979
14171TIP3   OH263927   2.980   6.789   1.972 -0.4849  0.0231 -0.3372
14171TIP3    H163928   2.931   6.706   1.974  0.4346 -0.5636  2.0010
14171TIP3    H263929   3.071   6.763   1.983 -0.2065  1.3356  0.7432
14172TIP3   OH263930   5.981   1.937  10.614 -0.4645 -0.4954 -0.1473
14172TIP3    H163931   6.014   1.866  10.559  0.4492 -1.4302  1.4866
14172TIP3    H263932   5.980   2.013  10.557  0.0664 -1.4794 -1.5407
14173TIP3   OH263933   1.191   2.426   4.656  0.3967  0.0040 -0.1573
14173TIP3    H163934   1.111   2.476   4.643  0.8260  0.3607 -1.5178
14173TIP3    H263935   1.163   2.350   4.708 -1.0735 -0.5295 -1.6530
14174TIP3   OH263936   0.716   6.473   3.390  0.3330 -0.2873  0.1552
14174TIP3    H163937   0.782   6.494   3.324  1.1973  0.1564  1.1342
14174TIP3    H263938   0.763   6.424   3.457 -0.6176 -1.0673  0.2714
14175TIP3   OH263939   4.851   2.655   1.173 -0.1303  0.1325 -0.4810
14175TIP3    H163940   4.814   2.595   1.108 -0.1233 -0.2471 -0.1374
14175TIP3    H263941   4.910   2.601   1.225 -0.1985  0.4149 -0.1031
14176TIP3   OH263942   1.764   2.894   6.163 -0.4560  0.3116  0.2390
14176TIP3    H163943   1.711   2.878   6.242  1.9083  0.3382  1.9442
14176TIP3    H263944   1.710   2.861   6.091 -2.1196 -1.1256  2.0171
14177TIP3   OH263945   5.410   0.682  15.810  0.3676 -0.0987 -0.3351
14177TIP3    H163946   5.376   0.705  15.897  0.5405  0.8182 -0.4949
14177TIP3    H263947   5.418   0.587  15.812  3.6331  0.0136  1.9471
14178TIP3   OH263948   6.719   0.962   5.857  0.0765  0.0374  0.2370
14178TIP3    H163949   6.650   0.941   5.793  1.3829  0.9565 -1.5575
14178TIP3    H263950   6.681   1.031   5.911 -0.5604  0.2336 -0.4464
14179TIP3   OH263951   1.364   3.808  13.925 -0.1593 -0.0188  0.4390
14179TIP3    H163952   1.291   3.836  13.980 -0.6360 -0.1158 -0.1368
14179TIP3    H263953   1.441   3.846  13.967 -0.4919 -0.2044  1.2553
14180TIP3   OH263954   5.078   0.896  15.523  0.7973 -0.2026 -0.2938
14180TIP3    H163955   5.137   0.896  15.447  0.4770 -0.0959 -0.5457
14180TIP3    H263956   4.994   0.928  15.488  0.1841 -1.6990 -0.2400
14181TIP3   OH263957   6.787   3.337   1.742 -0.1318  0.0693 -0.0674
14181TIP3    H163958   6.846   3.282   1.793 -0.4531 -0.3173 -0.1022
14181TIP3    H263959   6.821   3.333   1.653 -0.4597 -0.5145 -0.1722
14182TIP3   OH263960   3.200   4.165   2.419  0.1709 -0.1623 -0.0637
14182TIP3    H163961   3.252   4.139   2.342  0.4898 -2.0256  0.7251
14182TIP3    H263962   3.148   4.087   2.440  1.4105 -0.3528  2.6638
14183TIP3   OH263963   4.082   3.987   1.202 -0.1526 -0.0317  0.3564
14183TIP3    H163964   4.155   4.005   1.262 -0.7633  1.0369  0.8065
14183TIP3    H263965   4.097   4.046   1.128 -1.5542  1.6403  1.3194
14184TIP3   OH263966   1.194   0.554   1.416  0.2134  0.4971  0.3678
14184TIP3    H163967   1.193   0.472   1.466  0.8695  1.0307  1.2922
14184TIP3    H263968   1.107   0.558   1.376 -1.4547  1.3756  3.7134
14185TIP3   OH263969   3.386   4.461  15.610  0.0167 -0.1896 -0.8537
14185TIP3    H163970   3.472   4.459  15.566  0.5323  0.7135  0.0707
14185TIP3    H263971   3.368   4.554  15.623 -0.4386 -0.4143  0.2173
14186TIP3   OH263972   6.442   5.501  12.008  0.0587  0.3287 -0.0200
14186TIP3    H163973   6.430   5.589  11.972 -1.1091 -0.4798 -1.6907
14186TIP3    H263974   6.462   5.446  11.933  0.6460 -0.8821  0.9854
14187TIP3   OH263975   0.207   6.467  16.038  0.0369  0.0088 -0.6983
14187TIP3    H163976   0.201   6.492  15.945  1.1210 -0.2251 -0.8441
14187TIP3    H263977   0.230   6.548  16.083  0.1166 -0.0049 -0.7138
14188TIP3   OH263978   4.148   3.692   2.863 -0.2253 -0.0936  0.2131
14188TIP3    H163979   4.188   3.683   2.776  1.9134  0.7358  1.0445
14188TIP3    H263980   4.164   3.607   2.905 -0.4227 -0.1726  0.1302
14189TIP3   OH263981   2.171   5.188  17.070  0.9170  0.3240 -0.3026
14189TIP3    H163982   2.191   5.277  17.097 -0.1911  1.0926 -1.8759
14189TIP3    H263983   2.135   5.197  16.982  0.1940 -1.6201 -0.2522
14190TIP3   OH263984   2.729   5.656   6.237  0.9153 -0.0481  0.5941
14190TIP3    H163985   2.681   5.701   6.307  0.5447  2.2200 -1.0070
14190TIP3    H263986   2.776   5.726   6.191  2.0944 -1.6194 -0.7017
14191TIP3   OH263987   3.855   0.488  16.062  0.3887 -0.5201 -0.2723
14191TIP3    H163988   3.797   0.558  16.031  1.1488 -0.6483 -2.1514
14191TIP3    H263989   3.932   0.534  16.096 -0.1582 -0.3909  0.8120
14192TIP3   OH263990   4.324   0.509  11.558 -0.6856 -0.2150  0.0041
14192TIP3    H163991   4.376   0.455  11.619 -0.9092  0.6256  0.9737
14192TIP3    H263992   4.294   0.582  11.612  0.5638  1.5166 -1.5214
14193TIP3   OH263993   0.270   5.430  11.530  0.4535  0.1910  0.4980
14193TIP3    H163994   0.317   5.347  11.520  0.6100  0.3664 -0.2892
14193TIP3    H263995   0.209   5.414  11.602  0.9193 -0.4066  0.7678
14194TIP3   OH263996   4.322   3.698   1.468 -0.2257  0.2155  0.5029
14194TIP3    H163997   4.391   3.707   1.534  0.6721 -0.0048 -0.3855
14194TIP3    H263998   4.260   3.635   1.507  0.7595 -0.6258  0.7665
14195TIP3   OH263999   3.055   1.631   3.152  0.4961 -0.4046 -0.3879
14195TIP3    H164000   3.143   1.667   3.154  0.3500 -0.0386  1.1983
14195TIP3    H264001   3.004   1.695   3.103  1.0153 -0.3980 -0.9289
14196TIP3   OH264002   3.798   4.620  11.293  0.3808 -0.1203  0.1317
14196TIP3    H164003   3.815   4.640  11.385 -2.1706  0.0251  0.6278
14196TIP3    H264004   3.710   4.583  11.292  0.1323  0.3819 -2.3286
14197TIP3   OH264005   1.651   5.273   5.520 -0.0768  0.0862 -0.2473
14197TIP3    H164006   1.735   5.229   5.531 -0.4590 -0.6407 -0.2123
14197TIP3    H264007   1.589   5.203   5.502 -0.3375  0.7729 -2.2830
14198TIP3   OH264008   6.626   2.074   2.025 -0.0675 -0.3343 -0.6065
14198TIP3    H164009   6.675   2.138   1.973 -1.9677  1.8010  0.0709
14198TIP3    H264010   6.668   2.077   2.111 -0.7030  0.7296 -0.3161
14199TIP3   OH264011   1.933   3.799  15.770  0.0879  0.8867 -0.0231
14199TIP3    H164012   1.846   3.837  15.762  0.4646  1.7263 -0.2146
14199TIP3    H264013   1.992   3.866  15.735  0.7120 -0.1410 -1.0364
14200TIP3   OH264014   3.458   5.636   4.349 -0.4626 -0.3851  0.2352
14200TIP3    H164015   3.456   5.623   4.443 -0.7945 -0.0983  0.2666
14200TIP3    H264016   3.427   5.725   4.335 -0.3662 -0.4063 -0.1415
14201TIP3   OH264017   4.991   3.602  16.785  0.0005  0.0588  0.2224
14201TIP3    H164018   4.937   3.635  16.857 -1.9180  1.0825 -1.5914
14201TIP3    H264019   5.032   3.523  16.820 -2.3848 -0.5718  1.8126
14202TIP3   OH264020   0.130   0.507  10.977 -0.2067 -0.3044  0.2345
14202TIP3    H164021   0.156   0.590  11.016 -0.1985 -0.4101  0.4577
14202TIP3    H264022   0.055   0.478  11.031 -1.7309  0.6913 -1.2514
14203TIP3   OH264023   1.001   6.594  13.077 -0.1677 -0.0338 -0.0930
14203TIP3    H164024   1.040   6.682  13.077  1.0010 -0.5323 -0.2127
14203TIP3    H264025   1.034   6.553  13.157 -1.3334 -0.1126  0.3582
14204TIP3   OH264026   0.741   6.543   4.391 -0.5924  0.3407  0.2126
14204TIP3    H164027   0.808   6.602   4.426  1.0529  0.3548 -2.7025
14204TIP3    H264028   0.787   6.460   4.378 -1.8494 -0.4300  0.5534
14205TIP3   OH264029   6.589   2.438  15.673 -0.4482 -0.3423  0.4155
14205TIP3    H164030   6.549   2.351  15.670 -0.0104 -0.5684  0.9850
14205TIP3    H264031   6.526   2.491  15.722 -0.7612 -0.3071 -0.0149
14206TIP3   OH264032   5.533   6.014   3.229 -0.0597  0.1433  0.3917
14206TIP3    H164033   5.551   5.953   3.301 -1.9580 -0.4103  0.4534
14206TIP3    H264034   5.537   6.101   3.270 -1.4673 -0.1828  1.2708
14207TIP3   OH264035   1.364   3.947   1.210 -0.2009 -0.6823 -0.3364
14207TIP3    H164036   1.414   3.939   1.292 -1.4691  1.2012  0.7035
14207TIP3    H264037   1.320   3.863   1.200  1.7833 -1.7808 -0.3765
14208TIP3   OH264038   5.199   4.101   5.985  0.2015 -0.2424 -0.0852
14208TIP3    H164039   5.141   4.035   6.023  0.0512 -0.0976 -0.0608
14208TIP3    H264040   5.228   4.153   6.060 -1.4639  1.1292 -0.3394
14209TIP3   OH264041   0.402   0.510   5.144 -0.1143  0.0793 -0.1486
14209TIP3    H164042   0.476   0.449   5.145 -1.3466 -1.4917  1.2211
14209TIP3    H264043   0.337   0.470   5.202 -2.2346  1.1662 -1.6287
14210TIP3   OH264044   1.010   5.882   4.006  0.0455 -0.0560 -0.2266
14210TIP3    H164045   1.033   5.792   4.028  2.2370  1.1065  3.0834
14210TIP3    H264046   0.951   5.910   4.076  0.5066  1.4460 -0.3882
14211TIP3   OH264047   2.323   2.270  12.762 -0.1632  0.2171 -0.2169
14211TIP3    H164048   2.348   2.315  12.681  0.4102  0.6679  0.2061
14211TIP3    H264049   2.380   2.307  12.829  0.3578 -1.1917  0.1372
14212TIP3   OH264050   1.977   6.297  10.756  0.0932 -0.0498  0.5522
14212TIP3    H164051   2.023   6.277  10.675  0.4797 -0.5377  0.8836
14212TIP3    H264052   1.898   6.244  10.753 -0.5440  0.9174 -0.0965
14213TIP3   OH264053   1.804   1.630  11.560 -0.3623  0.2705 -0.0918
14213TIP3    H164054   1.807   1.720  11.529  0.4587 -0.3893 -2.0461
14213TIP3    H264055   1.831   1.636  11.652  1.6144  1.8102 -0.6944
14214TIP3   OH264056   1.889   1.917  17.073  0.0308  0.0637 -0.4077
14214TIP3    H164057   1.965   1.862  17.091 -0.3605  0.2555  2.2253
14214TIP3    H264058   1.890   1.984  17.142 -0.2517  2.6313 -2.7359
14215TIP3   OH264059   3.446   2.299  11.613  0.2635  0.4682  0.1334
14215TIP3    H164060   3.361   2.342  11.616 -0.4098 -0.6749 -1.3107
14215TIP3    H264061   3.506   2.367  11.580  0.1247  1.5100  1.8852
14216TIP3   OH264062   3.089   4.725   1.364  0.1513  0.0139  0.0704
14216TIP3    H164063   3.122   4.810   1.392 -0.7554  0.3103  0.2567
14216TIP3    H264064   3.098   4.726   1.269 -2.0054  1.2772 -0.1869
14217TIP3   OH264065   5.604   5.723   4.545  0.0626  0.1179 -0.2194
14217TIP3    H164066   5.677   5.740   4.486  0.0122  0.4039 -0.2023
14217TIP3    H264067   5.637   5.750   4.631  0.1097 -0.2252 -0.1280
14218TIP3   OH264068   0.722   2.469  17.025  0.4255 -0.3231 -0.2008
14218TIP3    H164069   0.711   2.374  17.031  1.3510 -0.4077  0.3848
14218TIP3    H264070   0.800   2.480  16.969 -0.2483  0.1254 -1.0781
14219TIP3   OH264071   1.409   0.593   1.148  0.5552 -0.1416  0.4359
14219TIP3    H164072   1.433   0.650   1.075  0.1391 -0.8107 -0.2344
14219TIP3    H264073   1.477   0.610   1.214 -0.0632  1.7957  0.6401
14220TIP3   OH264074   2.657   3.898  16.702 -0.2270  0.0310 -0.5486
14220TIP3    H164075   2.581   3.934  16.658  0.0642  1.0323 -0.2591
14220TIP3    H264076   2.650   3.803  16.690 -1.9829  0.0390  0.2288
14221TIP3   OH264077   3.626   2.739  12.254  0.1398 -0.1458  0.2729
14221TIP3    H164078   3.590   2.663  12.300 -1.3990  1.7845  2.5539
14221TIP3    H264079   3.568   2.811  12.279  2.6223  2.1752 -0.1709
14222TIP3   OH264080   1.429   6.203  13.371  0.4732  0.6726  0.4993
14222TIP3    H164081   1.460   6.280  13.323  0.9478 -0.3294 -0.8763
14222TIP3    H264082   1.484   6.199  13.449  0.8027  1.4413  0.3134
14223TIP3   OH264083   0.655   4.732   0.566  0.3755 -0.2918  0.0809
14223TIP3    H164084   0.651   4.764   0.656  0.9154  0.2530 -0.0830
14223TIP3    H264085   0.666   4.637   0.576  1.5435 -0.1212  0.6140
14224TIP3   OH264086   5.597   3.407   3.075 -0.2685 -0.4895 -0.5240
14224TIP3    H164087   5.679   3.359   3.070 -0.2860 -0.5075 -0.6407
14224TIP3    H264088   5.616   3.483   3.130 -0.2450 -0.6379 -0.3236
14225TIP3   OH264089   6.622   0.991   5.281  0.0126 -0.1982 -0.0806
14225TIP3    H164090   6.671   0.918   5.244  0.6452  0.0699  0.2058
14225TIP3    H264091   6.685   1.036   5.338 -0.6790 -0.0785  0.6080
14226TIP3   OH264092   3.303   1.153  11.129  0.9309 -0.1010  0.3364
14226TIP3    H164093   3.383   1.169  11.180  1.2833  0.2063 -0.2966
14226TIP3    H264094   3.327   1.176  11.039 -0.1111  0.7580  0.2615
14227TIP3   OH264095   6.050   5.244   5.711 -0.4932  0.5859 -0.1268
14227TIP3    H164096   6.087   5.256   5.798 -0.0854 -1.2568  0.0048
14227TIP3    H264097   6.006   5.326   5.691  0.1582  1.3478  1.4457
14228TIP3   OH264098   5.256   6.371  11.449 -0.2124  0.3901  0.1639
14228TIP3    H164099   5.255   6.340  11.539 -0.5242 -0.8855 -0.2482
14228TIP3    H264100   5.190   6.318  11.404  1.2576 -0.3917 -1.2216
14229TIP3   OH264101   3.831   0.913  11.331 -0.3184 -0.1982  0.1555
14229TIP3    H164102   3.922   0.886  11.323  0.3584  1.5159  1.3524
14229TIP3    H264103   3.821   0.985  11.269 -0.7233 -0.0773  0.3524
14230TIP3   OH264104   4.857   6.019  12.347  0.5218  0.0358  0.8209
14230TIP3    H164105   4.902   5.971  12.277 -0.2636  0.0730  0.2692
14230TIP3    H264106   4.902   6.103  12.350  0.1004  0.3207 -0.1748
14231TIP3   OH264107   3.794   6.711  15.501 -0.2010 -0.4981 -0.4023
14231TIP3    H164108   3.862   6.769  15.467  0.5075 -1.8718 -1.4207
14231TIP3    H264109   3.725   6.770  15.533  0.0978  0.8841 -2.1871
14232TIP3   OH264110   3.151   4.522  14.679  0.6184 -0.4222 -0.3615
14232TIP3    H164111   3.104   4.454  14.727 -0.3835  1.6230  1.7722
14232TIP3    H264112   3.115   4.519  14.591 -1.1119 -1.1097  0.3273
14233TIP3   OH264113   3.762   6.013  11.141  0.3968  0.6943 -0.3889
14233TIP3    H164114   3.756   5.935  11.197  0.9331 -0.3876 -1.7607
14233TIP3    H264115   3.789   6.083  11.200 -0.9229  0.0447  1.0424
14234TIP3   OH264116   4.645   2.457  16.355  0.1849  0.0281  0.3244
14234TIP3    H164117   4.681   2.516  16.421 -0.9672 -0.0003  1.0014
14234TIP3    H264118   4.651   2.506  16.273  1.7540  0.0146  0.3968
14235TIP3   OH264119   3.442   3.906   4.898 -0.3681 -0.1601  0.0089
14235TIP3    H164120   3.382   3.951   4.958  0.4032  1.4542 -0.3570
14235TIP3    H264121   3.528   3.917   4.937 -0.0021 -0.1391 -0.7840
14236TIP3   OH264122   0.295   2.153   0.844  0.4335 -0.6452  0.9326
14236TIP3    H164123   0.302   2.225   0.907 -0.1094 -0.2274  0.5274
14236TIP3    H264124   0.275   2.196   0.761  0.7818 -1.2195  0.5473
14237TIP3   OH264125   5.451   5.416  13.933 -0.1043  0.1739  0.5546
14237TIP3    H164126   5.498   5.336  13.960 -2.2735 -0.4679  2.7882
14237TIP3    H264127   5.399   5.388  13.858 -0.1341 -0.2598  0.7307
14238TIP3   OH264128   5.269   2.856  13.366  0.2680  0.3537 -0.5041
14238TIP3    H164129   5.334   2.824  13.304 -0.3960  0.5866 -1.3513
14238TIP3    H264130   5.316   2.917  13.422  0.4639  1.8078 -2.1621
14239TIP3   OH264131   2.858   4.702   3.263 -0.1033 -0.0105  0.0569
14239TIP3    H164132   2.827   4.786   3.296  1.2232 -0.6038  3.2337
14239TIP3    H264133   2.823   4.638   3.324  2.3174 -1.2758  0.2646
14240TIP3   OH264134   6.225   0.767   5.787  0.0383 -0.3537  0.2755
14240TIP3    H164135   6.279   0.698   5.748 -1.7784 -0.8895 -1.4747
14240TIP3    H264136   6.179   0.725   5.859  0.7108 -0.3060  0.7455
14241TIP3   OH264137   3.605   3.144   6.096 -0.6441 -0.4203  0.0735
14241TIP3    H164138   3.625   3.195   6.175  0.5578 -0.6334 -0.0686
14241TIP3    H264139   3.686   3.097   6.077 -0.6594  0.1873 -1.7081
14242TIP3   OH264140   0.942   2.332  12.419  0.5660 -0.4624 -0.1566
14242TIP3    H164141   0.955   2.242  12.388  0.1870 -0.1736 -1.2253
14242TIP3    H264142   1.003   2.384  12.366  0.3324 -0.0185  0.0083
14243TIP3   OH264143   6.381   6.298   5.566  0.2836 -0.1449 -0.0312
14243TIP3    H164144   6.388   6.377   5.621 -0.0479 -1.2198  1.6370
14243TIP3    H264145   6.288   6.275   5.570  0.2682 -0.2999 -1.0111
14244TIP3   OH264146   1.264   5.757   5.364  0.5246 -0.7778 -0.3327
14244TIP3    H164147   1.328   5.791   5.301  0.1177 -1.2331 -1.0126
14244TIP3    H264148   1.312   5.750   5.446  0.9212  0.3485 -0.4527
14245TIP3   OH264149   3.642   0.010  13.860 -0.0460  0.1600 -0.1044
14245TIP3    H164150   3.701  -0.028  13.926 -0.5347 -1.5975 -0.6075
14245TIP3    H264151   3.693   0.007  13.778  0.0438  0.9829 -0.0865
14246TIP3   OH264152   3.568   6.337  14.276 -0.2874 -0.0382  0.0150
14246TIP3    H164153   3.558   6.365  14.185  0.0495 -1.0227 -0.3420
14246TIP3    H264154   3.582   6.242  14.271  2.3670  0.2110  0.8808
14247TIP3   OH264155   0.656   3.595   3.974 -0.0349 -0.1171 -0.2033
14247TIP3    H164156   0.708   3.515   3.967  1.2005  0.6911 -0.7190
14247TIP3    H264157   0.712   3.656   4.023  0.3584  1.4093 -2.3907
14248TIP3   OH264158   3.708   1.352   5.542 -0.2979  0.0799 -0.0562
14248TIP3    H164159   3.754   1.430   5.510 -0.6013 -0.3902 -1.7526
14248TIP3    H264160   3.617   1.365   5.516 -0.4467 -0.5914  0.1116
14249TIP3   OH264161   5.937   0.256   2.537  0.4770  0.3827 -0.3553
14249TIP3    H164162   5.954   0.350   2.552  0.7168  0.2298  0.3793
14249TIP3    H264163   5.983   0.212   2.609  1.5994 -0.3982 -1.5043
14250TIP3   OH264164   2.384   0.846  14.264  0.6934  0.5798  0.3022
14250TIP3    H164165   2.291   0.832  14.244  0.9847  1.3961 -1.8262
14250TIP3    H264166   2.421   0.758  14.269 -0.1833  0.2377  1.3298
14251TIP3   OH264167   6.052   0.756   3.673 -0.6245  0.3068  0.2560
14251TIP3    H164168   6.066   0.806   3.593 -0.6004  0.2319  0.2130
14251TIP3    H264169   6.137   0.717   3.693 -0.3367  1.2618  0.9652
14252TIP3   OH264170   4.472   6.248  13.472 -0.6613 -0.2360 -0.3114
14252TIP3    H164171   4.417   6.231  13.549 -0.8020 -1.3387 -0.6325
14252TIP3    H264172   4.533   6.174  13.469 -1.2759 -0.7195 -1.7870
14253TIP3   OH264173   4.854   5.772   5.961 -0.4479  0.2971 -0.3653
14253TIP3    H164174   4.815   5.696   5.918 -0.5464  0.7833 -1.1545
14253TIP3    H264175   4.829   5.762   6.053 -1.9849  0.3024 -0.7430
14254TIP3   OH264176   0.944   4.069   5.712  0.0594 -0.1043  0.3810
14254TIP3    H164177   0.868   4.121   5.687  1.3732  1.6763 -0.1059
14254TIP3    H264178   0.996   4.061   5.631  0.2564 -1.5776  0.6155
14255TIP3   OH264179   2.899   3.833  11.380 -0.2261 -0.5601  0.3063
14255TIP3    H164180   2.891   3.840  11.285  1.8174  0.6973  0.1578
14255TIP3    H264181   2.868   3.745  11.401 -0.4329 -0.9623 -1.5512
14256TIP3   OH264182   5.529   3.766  12.283  0.4732 -0.7100  0.0125
14256TIP3    H164183   5.485   3.689  12.247  0.4254  0.0627 -1.6596
14256TIP3    H264184   5.584   3.798  12.211  0.5316  0.7916  0.6998
14257TIP3   OH264185   2.361   3.924  16.613 -0.0434  0.2058 -0.1194
14257TIP3    H164186   2.282   3.959  16.573 -0.9241 -1.5467  0.0103
14257TIP3    H264187   2.364   3.966  16.699 -1.2088 -0.1879  0.1321
14258TIP3   OH264188   6.762   3.970  16.376 -0.2685 -0.4019  0.0012
14258TIP3    H164189   6.668   3.953  16.376 -0.3240 -0.1067 -0.7673
14258TIP3    H264190   6.801   3.888  16.348 -0.2554 -0.7085  0.8895
14259TIP3   OH264191   1.796   2.262   5.050 -0.5895 -0.0792 -0.5690
14259TIP3    H164192   1.837   2.284   5.133 -0.1190 -3.4554  0.2449
14259TIP3    H264193   1.849   2.306   4.984  0.2010  1.1047  0.8061
14260TIP3   OH264194   6.709   6.582  14.431 -0.0568  0.2035  0.4085
14260TIP3    H164195   6.766   6.659  14.429 -0.9337  0.8414 -0.1883
14260TIP3    H264196   6.652   6.597  14.506  0.0882 -0.1068  0.5838
14261TIP3   OH264197   6.554   2.284  15.205 -0.2194 -0.1423  0.0602
14261TIP3    H164198   6.631   2.304  15.257 -0.4061 -0.6464  0.5343
14261TIP3    H264199   6.531   2.195  15.229 -0.0838 -0.5235 -1.1784
14262TIP3   OH264200   1.267   4.699  13.618  0.0586  0.0005 -0.7746
14262TIP3    H164201   1.343   4.681  13.563 -0.3403  0.4233 -1.4682
14262TIP3    H264202   1.238   4.786  13.593 -0.0967  0.2319  0.1524
14263TIP3   OH264203   2.089   3.161   1.765  0.7187 -0.2459 -0.4304
14263TIP3    H164204   2.045   3.077   1.750  0.7134 -0.4598  0.6918
14263TIP3    H264205   2.182   3.142   1.751  0.5270  0.1471 -2.5533
14264TIP3   OH264206   5.003   2.490   1.986  0.2099 -0.2530 -0.0452
14264TIP3    H164207   4.974   2.496   2.077 -0.5337 -1.9575 -0.1297
14264TIP3    H264208   5.047   2.405   1.981 -1.4363 -1.0725 -1.6858
14265TIP3   OH264209   3.886   6.738  14.480  0.0804 -0.0563  0.2167
14265TIP3    H164210   3.897   6.729  14.575  0.3211 -0.1343  0.1840
14265TIP3    H264211   3.869   6.649  14.450  0.4584 -0.1026  0.1335
14266TIP3   OH264212   1.592   5.830   0.895  0.0383  0.3315  0.2595
14266TIP3    H164213   1.577   5.862   0.805  1.0494  4.1004  1.2459
14266TIP3    H264214   1.516   5.859   0.944 -0.1749 -1.0854  0.8185
14267TIP3   OH264215   4.364   6.478  11.117 -0.6026  0.7178  0.4520
14267TIP3    H164216   4.441   6.524  11.151 -1.4827  1.5789  1.3414
14267TIP3    H264217   4.372   6.485  11.022  0.7582  0.1956  0.4910
14268TIP3   OH264218   3.256   2.196  12.056  0.3788  0.1275 -0.2679
14268TIP3    H164219   3.203   2.139  12.000 -0.4394 -0.3002  0.9159
14268TIP3    H264220   3.218   2.187  12.143  0.5692  2.0977  0.0464
14269TIP3   OH264221   4.354   2.402  15.343 -0.2578  0.5346  0.2609
14269TIP3    H164222   4.294   2.345  15.391 -0.4172 -0.2328 -0.8153
14269TIP3    H264223   4.317   2.408  15.255 -0.3291  2.4573  0.3787
14270TIP3   OH264224   5.499   1.146  13.214  0.3117 -0.0472  0.0315
14270TIP3    H164225   5.565   1.134  13.282 -1.3910 -1.1495  1.6054
14270TIP3    H264226   5.447   1.065  13.217 -2.3038  1.5189  0.2790
14271TIP3   OH264227   6.734   6.144  12.891  0.8330  0.1817  0.3246
14271TIP3    H164228   6.807   6.109  12.841  1.3055 -1.1798  1.8377
14271TIP3    H264229   6.664   6.079  12.879  0.6688  0.2842  0.6996
14272TIP3   OH264230   5.224   5.573  11.362 -0.3164  0.1918 -0.1414
14272TIP3    H164231   5.260   5.585  11.450  0.3923 -0.2035 -0.3662
14272TIP3    H264232   5.138   5.535  11.376 -0.7760  1.4038  0.4243
14273TIP3   OH264233   5.290   3.684  12.110  0.0636  0.1968  0.1443
14273TIP3    H164234   5.322   3.747  12.046  1.2177  0.1471  0.6458
14273TIP3    H264235   5.274   3.604  12.060  0.8249  0.2016 -0.1100
14274TIP3   OH264236   3.379   6.797  13.792  0.0536 -0.3052  0.1454
14274TIP3    H164237   3.355   6.889  13.779  0.1394 -0.3285 -0.1838
14274TIP3    H264238   3.444   6.799  13.862  0.4150 -0.0630 -0.1889
14275TIP3   OH264239   2.646   6.170   0.084  0.4663  0.1737  0.3299
14275TIP3    H164240   2.721   6.199   0.032  0.0641 -1.4639 -1.2875
14275TIP3    H264241   2.587   6.245   0.085  0.8603  0.5276 -0.9065
14276TIP3   OH264242   0.135   4.406  12.623 -0.0460  0.0350  0.2080
14276TIP3    H164243   0.143   4.491  12.667 -1.0418 -0.8483  2.2622
14276TIP3    H264244   0.213   4.358  12.651 -0.8394 -0.6425  1.3342
14277TIP3   OH264245   4.129   2.582   1.344 -0.0746  0.6057 -0.4158
14277TIP3    H164246   4.189   2.517   1.379  1.7300  2.5634  0.3582
14277TIP3    H264247   4.042   2.545   1.360  0.8402 -2.4475 -1.8035
14278TIP3   OH264248   0.140   5.837  16.569 -0.4713  0.0287 -0.4871
14278TIP3    H164249   0.100   5.799  16.491 -1.5563  1.2649 -0.5730
14278TIP3    H264250   0.186   5.915  16.537 -0.4210  0.2144  0.0210
14279TIP3   OH264251   4.215   1.299  14.591 -0.3946  0.4370 -0.1947
14279TIP3    H164252   4.173   1.384  14.595  1.7184  1.5795 -0.9018
14279TIP3    H264253   4.176   1.249  14.663  0.0086  2.8087  1.7864
14280TIP3   OH264254   4.515   4.866   5.187 -0.0544 -0.2351 -0.7275
14280TIP3    H164255   4.486   4.785   5.229  2.1347 -0.7047  0.0228
14280TIP3    H264256   4.434   4.914   5.169 -1.3061 -1.7922  0.4078
14281TIP3   OH264257   0.436   6.174  16.680 -0.0917  0.3960  0.8592
14281TIP3    H164258   0.518   6.155  16.635 -1.2069 -2.1076 -0.3314
14281TIP3    H264259   0.452   6.149  16.771  1.1806  2.3724  1.2404
14282TIP3   OH264260   1.768   0.851  11.782  0.2493 -0.1172  0.8402
14282TIP3    H164261   1.770   0.791  11.857 -0.2147 -0.4851  0.5623
14282TIP3    H264262   1.811   0.803  11.711  4.7556  1.8058  1.9486
14283TIP3   OH264263   3.998   4.240  13.120  0.1633 -0.2465  0.3051
14283TIP3    H164264   3.906   4.215  13.116  0.0479  0.2284 -0.0838
14283TIP3    H264265   4.020   4.266  13.031  0.8619 -0.9845  0.2456
14284TIP3   OH264266   3.423   2.222   0.562 -0.1929  0.5381  0.2341
14284TIP3    H164267   3.516   2.202   0.566 -0.4175 -0.3883  1.4675
14284TIP3    H264268   3.405   2.272   0.641 -0.8021  0.4460  0.1608
14285TIP3   OH264269   5.235   6.301  16.621 -0.6451  0.1281 -0.1149
14285TIP3    H164270   5.193   6.355  16.555 -0.8477 -0.5817 -0.5750
14285TIP3    H264271   5.163   6.253  16.663 -0.5594  0.8003  0.8518
14286TIP3   OH264272   2.857   2.993  13.147 -0.3180  0.2937  0.1333
14286TIP3    H164273   2.950   3.004  13.128  0.1176 -0.7072  1.4725
14286TIP3    H264274   2.815   2.987  13.062  1.1045 -1.0919 -0.5348
14287TIP3   OH264275   2.605   4.759  12.545 -0.1177  0.6786  0.2641
14287TIP3    H164276   2.693   4.766  12.508 -0.2773 -0.7233 -0.4947
14287TIP3    H264277   2.571   4.848  12.546  0.9015  1.0894 -0.4851
14288TIP3   OH264278   5.288   4.948  12.737 -0.4967 -0.6807  0.4203
14288TIP3    H164279   5.245   5.023  12.695  1.7137  1.2547  1.3502
14288TIP3    H264280   5.216   4.894  12.769 -2.5478  3.3982  3.7671
14289TIP3   OH264281   5.213   0.657   4.759 -0.4627 -0.1393 -0.0348
14289TIP3    H164282   5.238   0.668   4.851  1.2862  0.7363 -0.5719
14289TIP3    H264283   5.295   0.636   4.714 -1.1488  0.2563 -1.5276
14290TIP3   OH264284   2.562   6.338  15.391 -0.0339 -0.6357 -0.3931
14290TIP3    H164285   2.650   6.304  15.405  0.3984  0.3374 -0.6575
14290TIP3    H264286   2.573   6.433  15.388 -1.4320 -0.3066  2.1137
14291TIP3   OH264287   1.485   0.004   2.817  0.7154 -0.1462  0.1191
14291TIP3    H164288   1.564  -0.037   2.782  0.2881 -1.7072  0.8976
14291TIP3    H264289   1.413  -0.042   2.775  0.2186 -0.7778  1.6074
14292TIP3   OH264290   0.863   1.593  11.909  0.0822  0.1211  0.3965
14292TIP3    H164291   0.933   1.590  11.974  2.5171 -0.0990 -2.0079
14292TIP3    H264292   0.906   1.626  11.830 -2.8083  0.9052 -0.9934
14293TIP3   OH264293   2.195   0.558  16.835 -0.1478  0.1774 -0.4653
14293TIP3    H164294   2.184   0.473  16.877  1.4594 -0.2563 -0.8634
14293TIP3    H264295   2.287   0.581  16.851 -0.1333  1.0906 -1.7053
14294TIP3   OH264296   6.041   3.199   3.997  0.5384  0.3296 -0.2799
14294TIP3    H164297   6.003   3.287   4.001 -0.0455  0.0685 -0.0444
14294TIP3    H264298   6.121   3.205   4.049 -0.0591  0.4435  0.6487
14295TIP3   OH264299   6.174   4.316  14.284 -0.1001  1.3256  0.6569
14295TIP3    H164300   6.254   4.352  14.324 -0.2946 -0.0671  2.3960
14295TIP3    H264301   6.166   4.364  14.201  1.8571  2.3679  0.9971
14296TIP3   OH264302   4.205   3.199   1.157  0.0926  0.1487  0.6699
14296TIP3    H164303   4.300   3.195   1.170  0.0074 -0.0611  1.2894
14296TIP3    H264304   4.169   3.178   1.243 -0.5107  3.2490  1.2712
14297TIP3   OH264305   4.723   1.490  12.955  0.0177 -0.0998 -0.4589
14297TIP3    H164306   4.638   1.499  12.912  0.6619  1.2945 -1.5464
14297TIP3    H264307   4.771   1.570  12.931  1.1808 -0.2319  1.1847
14298TIP3   OH264308   2.039   6.808  10.131 -0.4446  0.0641 -0.3851
14298TIP3    H164309   2.054   6.796  10.038  1.0116  0.1302 -0.1867
14298TIP3    H264310   1.959   6.860  10.136  0.3133  1.4297 -1.6624
14299TIP3   OH264311   6.264   4.682   1.479 -0.6005  0.4201 -0.0905
14299TIP3    H164312   6.177   4.642   1.486 -0.3317 -0.2922 -0.6981
14299TIP3    H264313   6.295   4.687   1.570 -2.7611  4.1591  0.6427
14300TIP3   OH264314   3.624   0.915   3.586 -0.2230 -0.0512 -0.2078
14300TIP3    H164315   3.708   0.891   3.626 -0.3672  0.0504  0.1559
14300TIP3    H264316   3.648   0.967   3.510  0.0983 -1.2610 -0.9634
14301TIP3   OH264317   0.319   4.673   4.538  0.2193  0.0531  0.2719
14301TIP3    H164318   0.362   4.648   4.620  0.0149 -2.1648 -0.2564
14301TIP3    H264319   0.234   4.629   4.541 -0.5517  1.4305 -0.3471
14302TIP3   OH264320   0.027   5.878   2.819  0.2383  0.0041  0.1922
14302TIP3    H164321  -0.052   5.929   2.799  0.5266 -0.1327 -1.4702
14302TIP3    H264322  -0.002   5.810   2.880 -0.7922  0.3349  0.0833
14303TIP3   OH264323   5.149   4.845  10.904 -0.1811  0.3200  0.1026
14303TIP3    H164324   5.185   4.923  10.862  0.5818  0.9531  1.8737
14303TIP3    H264325   5.135   4.784  10.831  0.5875  1.5606 -1.1373
14304TIP3   OH264326   5.912   6.609   1.727  0.4594  0.4571  0.0670
14304TIP3    H164327   5.983   6.597   1.663  1.2473  1.8944  0.6274
14304TIP3    H264328   5.837   6.637   1.675 -0.2462 -2.5043 -0.7445
14305TIP3   OH264329   3.020   0.182   0.633  0.5334 -0.2591 -0.1306
14305TIP3    H164330   2.937   0.150   0.599  0.1496 -1.1006  1.4773
14305TIP3    H264331   3.004   0.274   0.653 -0.4342 -0.6914  1.2700
14306TIP3   OH264332   1.676   1.157  14.106  0.0630  0.0530  0.0209
14306TIP3    H164333   1.748   1.219  14.089  0.3498 -0.3511 -0.2611
14306TIP3    H264334   1.703   1.077  14.061 -0.4949 -0.1518  0.0511
14307TIP3   OH264335   3.579   5.003   6.753 -0.5676  0.0827  0.2469
14307TIP3    H164336   3.508   4.963   6.702  0.4124 -4.2305  1.8016
14307TIP3    H264337   3.659   4.980   6.705  0.0209  1.2383  0.6412
14308TIP3   OH264338   4.844   1.966  14.374 -0.2426  0.2492 -0.6611
14308TIP3    H164339   4.826   1.983  14.467 -0.5920 -0.2375 -0.6373
14308TIP3    H264340   4.855   2.053  14.336 -2.2068  0.5886 -0.5698
14309TIP3   OH264341   4.269   2.323   1.102  0.4404  0.6156  0.3398
14309TIP3    H164342   4.192   2.376   1.082  0.6866  0.8239 -0.0686
14309TIP3    H264343   4.340   2.386   1.111  0.8484  0.3312 -0.6776
14310TIP3   OH264344   0.926   5.192  13.771 -0.2891 -0.1912  0.2039
14310TIP3    H164345   0.923   5.245  13.851 -0.7333 -0.5208  0.4084
14310TIP3    H264346   0.954   5.253  13.703 -0.4161  0.2140  0.5127
14311TIP3   OH264347   0.544   0.761  10.938 -0.3883 -0.5627 -0.3642
14311TIP3    H164348   0.608   0.754  11.009 -2.2696  1.0008  1.6462
14311TIP3    H264349   0.576   0.701  10.870  2.4119 -0.8682  1.0721
14312TIP3   OH264350   5.527   3.330  13.508 -0.2274 -0.1060  0.1483
14312TIP3    H164351   5.622   3.335  13.519 -0.1690  2.6061 -0.9355
14312TIP3    H264352   5.514   3.295  13.419 -0.2503 -0.1042  0.1510
14313TIP3   OH264353   0.819   6.122  12.403  0.2187 -0.4423  0.0991
14313TIP3    H164354   0.817   6.074  12.320  0.3289 -1.4114  0.6381
14313TIP3    H264355   0.738   6.173  12.403 -0.4854 -1.5332  0.0275
14314TIP3   OH264356   1.617   3.713  11.062  0.1087 -0.3092 -0.0129
14314TIP3    H164357   1.677   3.666  11.119 -0.7992 -3.0266 -1.1267
14314TIP3    H264358   1.668   3.732  10.984  0.2915 -0.0249  0.1730
14315TIP3   OH264359   2.578   6.263   5.366 -0.3700 -0.4276 -0.0150
14315TIP3    H164360   2.576   6.242   5.459  1.2538  0.4552  0.2555
14315TIP3    H264361   2.602   6.356   5.362  1.6092 -0.9283 -1.3262
14316TIP3   OH264362   5.933   3.167  11.384  0.4256 -0.4047 -0.1709
14316TIP3    H164363   5.846   3.146  11.418  0.6313  1.4423  1.7106
14316TIP3    H264364   5.927   3.258  11.355  2.0395  0.2360  1.2997
14317TIP3   OH264365   1.880   4.511   0.344 -0.3787  0.0545 -0.0885
14317TIP3    H164366   1.827   4.512   0.264 -0.4559 -0.5338 -0.0478
14317TIP3    H264367   1.970   4.502   0.313 -0.1772  2.0130 -0.2079
14318TIP3   OH264368   0.260   4.323   5.522 -0.0959  0.0758 -0.1264
14318TIP3    H164369   0.317   4.371   5.463  0.4275  0.3549  0.5996
14318TIP3    H264370   0.259   4.374   5.603  1.9676 -2.0138  1.3356
14319TIP3   OH264371   0.540   5.016   5.561  0.5640 -0.2906  0.0009
14319TIP3    H164372   0.621   4.999   5.513 -0.3172 -1.4865 -1.1326
14319TIP3    H264373   0.502   4.930   5.577 -0.8630  0.2704 -0.1609
14320TIP3   OH264374   6.565   0.476   5.021 -0.1678  0.1590  0.9353
14320TIP3    H164375   6.563   0.564   4.984 -1.0479 -0.5026 -0.6853
14320TIP3    H264376   6.636   0.432   4.975 -0.9808 -0.5492  0.3419
14321TIP3   OH264377   3.974   4.226  13.549 -0.1120  0.0410 -0.2800
14321TIP3    H164378   3.886   4.188  13.549 -0.8413  1.1902 -4.6266
14321TIP3    H264379   3.960   4.320  13.548  1.0893  0.2464 -1.7153
14322TIP3   OH264380   3.651   1.905  16.153 -0.0605 -0.2471  0.4884
14322TIP3    H164381   3.737   1.894  16.111 -0.5975 -2.2161 -0.2150
14322TIP3    H264382   3.668   1.963  16.227  1.3791  1.4168 -1.0394
14323TIP3   OH264383   4.681   3.425  16.406 -0.0327  0.4584 -0.0505
14323TIP3    H164384   4.626   3.457  16.478  1.5619  2.9713  0.1824
14323TIP3    H264385   4.683   3.498  16.344 -1.6805 -1.7702 -2.9497
14324TIP3   OH264386   1.154   5.704  16.868  0.2064  0.0846 -0.0964
14324TIP3    H164387   1.157   5.608  16.874  3.1373  0.1760  1.6928
14324TIP3    H264388   1.166   5.734  16.958  3.5785  2.0431 -1.0134
14325TIP3   OH264389   3.567   2.342  11.857  0.0783 -0.5275 -0.3091
14325TIP3    H164390   3.508   2.339  11.781 -1.0356 -0.2392  0.5306
14325TIP3    H264391   3.612   2.258  11.855  1.2678  0.0570 -2.1927
14326TIP3   OH264392   1.393   0.544   3.737 -0.8302  0.4698  0.0193
14326TIP3    H164393   1.338   0.619   3.756 -0.9129  0.6325 -0.8351
14326TIP3    H264394   1.341   0.490   3.678 -0.2141  0.4564 -0.5239
14327TIP3   OH264395   3.625   4.569  16.791  0.2954 -0.2012  0.1067
14327TIP3    H164396   3.611   4.506  16.720 -1.5397  0.0779  0.1675
14327TIP3    H264397   3.636   4.515  16.869  0.5131 -0.4803 -0.1182
14328TIP3   OH264398   3.826   3.668   5.903  0.5008 -0.4766 -0.8041
14328TIP3    H164399   3.783   3.695   5.822  0.3223 -2.0084 -1.2405
14328TIP3    H264400   3.758   3.626   5.955  0.9684 -0.9199 -0.5358
14329TIP3   OH264401   6.713   0.891  10.393  0.1499 -0.0648  0.5979
14329TIP3    H164402   6.702   0.985  10.378  1.7137 -0.0089 -0.4164
14329TIP3    H264403   6.792   0.884  10.446 -0.3279 -0.7994  1.2428
14330TIP3   OH264404   6.713   1.781  14.061  0.5009 -0.1501 -0.0322
14330TIP3    H164405   6.633   1.819  14.024 -1.3407 -1.9939  1.7794
14330TIP3    H264406   6.775   1.854  14.064 -0.5163  0.9640 -2.9955
14331TIP3   OH264407   0.456   6.769  15.698  0.3390  0.1861 -0.1894
14331TIP3    H164408   0.458   6.838  15.765  2.2301  0.3532 -0.3720
14331TIP3    H264409   0.513   6.801  15.629 -0.3719 -0.6885 -1.2169
14332TIP3   OH264410   4.767   5.489   4.454 -0.2045 -0.0507  0.5415
14332TIP3    H164411   4.783   5.511   4.546  0.8032  0.3742  0.2838
14332TIP3    H264412   4.723   5.566   4.419  3.4862  1.8674 -0.4050
14333TIP3   OH264413   0.575   1.032   2.637  0.6586  0.0285 -0.6303
14333TIP3    H164414   0.623   0.957   2.672  0.1600  0.0439  0.1175
14333TIP3    H264415   0.520   1.061   2.710  1.1313  1.3677 -0.7765
14334TIP3   OH264416   2.748   2.184  15.917 -0.3077  0.2671 -0.0194
14334TIP3    H164417   2.671   2.138  15.883  0.1572 -0.7164  0.2101
14334TIP3    H264418   2.787   2.225  15.840  1.3573 -2.8551 -1.0594
14335TIP3   OH264419   5.315   4.737  16.005 -0.1990 -0.7134 -0.1692
14335TIP3    H164420   5.229   4.775  15.983  0.5835  1.1478 -0.1857
14335TIP3    H264421   5.378   4.794  15.962  1.0691 -2.5228 -0.8564
14336TIP3   OH264422   1.524   0.901   2.616 -0.4851  0.3288  0.1801
14336TIP3    H164423   1.570   0.934   2.694 -2.2721  1.1299  0.9305
14336TIP3    H264424   1.585   0.917   2.544  0.0002  2.3880  0.9830
14337TIP3   OH264425   0.874   6.648  14.964 -0.1572  0.3823  0.3672
14337TIP3    H164426   0.922   6.641  14.881  1.4051 -1.3255  1.3162
14337TIP3    H264427   0.902   6.731  15.001  3.4238 -1.1076  1.5249
14338TIP3   OH264428   4.855   0.838  13.941  0.6154  0.1888  0.7346
14338TIP3    H164429   4.844   0.859  14.034  0.1724 -0.1695  0.7666
14338TIP3    H264430   4.804   0.905  13.895  0.4655  0.1028  0.7727
14339TIP3   OH264431   1.959   3.628   0.762  0.0062 -0.4496  0.3444
14339TIP3    H164432   1.965   3.533   0.751 -1.3257 -0.3531 -1.9556
14339TIP3    H264433   2.037   3.662   0.718  0.8866 -0.4387  1.8236
14340TIP3   OH264434   0.158   1.207   2.375  0.5166  0.1024 -0.1815
14340TIP3    H164435   0.241   1.200   2.423  0.8282 -0.0400 -0.7283
14340TIP3    H264436   0.138   1.301   2.376  1.0268  0.2203 -0.6040
14341TIP3   OH264437   1.407   0.229   5.239 -0.3868 -0.3865  0.1775
14341TIP3    H164438   1.404   0.150   5.293  1.2011 -0.6320 -0.0359
14341TIP3    H264439   1.330   0.279   5.265  0.7220 -0.0964  3.2991
14342TIP3   OH264440   4.226   6.204   2.292  0.1555 -0.1560 -0.3289
14342TIP3    H164441   4.197   6.223   2.202  1.9279 -0.8696 -1.1066
14342TIP3    H264442   4.300   6.262   2.305 -0.9794  1.0134  1.2821
14343TIP3   OH264443   4.468   6.791   3.880 -0.5673  0.1604  0.4814
14343TIP3    H164444   4.475   6.847   3.957 -0.9168  0.0196  0.6172
14343TIP3    H264445   4.493   6.704   3.912  1.3539  0.4666 -0.0319
14344TIP3   OH264446   0.684   1.706  16.073 -0.1428  0.3599  0.1477
14344TIP3    H164447   0.717   1.636  16.015  0.3386  0.5726  0.1649
14344TIP3    H264448   0.598   1.673  16.102 -0.9630  0.7661 -1.6336
14345TIP3   OH264449   2.700   2.640   4.904 -0.1745 -0.0806  0.1639
14345TIP3    H164450   2.718   2.651   4.810  0.0397  0.3115  0.2518
14345TIP3    H264451   2.705   2.728   4.940  0.3969 -0.3124  0.6675
14346TIP3   OH264452   4.182   1.891  15.911 -0.5475 -0.2614  0.2642
14346TIP3    H164453   4.206   1.911  16.002  2.8775 -0.6879 -0.4051
14346TIP3    H264454   4.210   1.800  15.898 -1.2996 -0.3215 -1.1507
14347TIP3   OH264455   5.867   6.203  13.964  0.2035  0.1555  0.2872
14347TIP3    H164456   5.786   6.154  13.949 -0.1407  0.2879  1.6326
14347TIP3    H264457   5.848   6.291  13.933  0.0974 -0.0007 -0.1042
14348TIP3   OH264458   5.037   1.761  14.026 -0.2798  0.3768 -0.0455
14348TIP3    H164459   5.059   1.834  13.967 -0.6704  1.2359  0.8448
14348TIP3    H264460   5.078   1.684  13.985  0.9278  1.2400 -0.5317
14349TIP3   OH264461   2.046   3.830   4.821  0.0805 -0.2449  0.6799
14349TIP3    H164462   2.047   3.735   4.813  0.1667 -0.2923  1.2141
14349TIP3    H264463   1.954   3.853   4.819  0.0923 -0.1712 -1.1741
14350TIP3   OH264464   3.907   0.173  10.945  0.1612  0.0663  0.8497
14350TIP3    H164465   3.981   0.223  10.910 -0.2198  1.3007  1.7086
14350TIP3    H264466   3.921   0.174  11.040  0.1604 -1.5363  0.8858
14351TIP3   OH264467   2.713   3.080   2.876  0.5261  0.5032 -0.2185
14351TIP3    H164468   2.747   3.164   2.907  3.4807 -0.5692 -0.2174
14351TIP3    H264469   2.780   3.016   2.901 -1.3238 -1.8002 -0.7486
14352TIP3   OH264470   2.722   4.264  13.174  0.5487  0.0164  0.4029
14352TIP3    H164471   2.787   4.221  13.118  1.3283  0.0661  1.2551
14352TIP3    H264472   2.738   4.357  13.162  0.1556  0.0471  0.0747
14353TIP3   OH264473   2.775   4.066   5.049  0.3217  0.2162  0.2752
14353TIP3    H164474   2.726   3.989   5.021  0.2339  0.2799  0.2516
14353TIP3    H264475   2.761   4.130   4.979 -0.8326  0.7762  0.9908
14354TIP3   OH264476   5.834   1.459  15.569  0.1270  0.1066 -0.3958
14354TIP3    H164477   5.891   1.425  15.637  1.9232 -1.1781 -2.4313
14354TIP3    H264478   5.884   1.531  15.529 -1.4951  1.8237  0.4795
14355TIP3   OH264479   5.060   3.083  11.846  0.2603  0.5646 -0.4444
14355TIP3    H164480   5.016   3.159  11.883 -0.3297 -0.1755  0.4194
14355TIP3    H264481   5.009   3.062  11.767  0.5794  1.2000 -0.8342
14356TIP3   OH264482   5.129   4.734  12.077 -0.3991  0.3899 -0.2971
14356TIP3    H164483   5.221   4.724  12.050  0.1525  2.3073  0.6228
14356TIP3    H264484   5.116   4.667  12.144  1.0092  1.3414  1.0093
14357TIP3   OH264485   2.789   0.111  16.968  0.1268  0.3252 -0.7635
14357TIP3    H164486   2.766   0.030  16.922 -0.6735 -1.1135  1.9937
14357TIP3    H264487   2.873   0.093  17.009  0.0214  0.9717 -0.2477
14358TIP3   OH264488   0.196   5.256   1.267 -0.0326 -0.1228 -0.6060
14358TIP3    H164489   0.261   5.189   1.244 -1.1401 -1.0334 -1.1861
14358TIP3    H264490   0.243   5.315   1.326  0.7674 -1.9030  0.6466
14359TIP3   OH264491   5.375   2.664  14.394 -0.0228 -0.3376 -0.0645
14359TIP3    H164492   5.364   2.724  14.321 -0.1699 -0.6925 -0.3342
14359TIP3    H264493   5.290   2.665  14.439  0.1504  0.0860  0.2638
14360TIP3   OH264494   5.808   2.443   1.051 -0.4643 -0.4540  0.2633
14360TIP3    H164495   5.900   2.437   1.025 -0.7994  0.2163 -1.1675
14360TIP3    H264496   5.806   2.510   1.119  0.2345 -1.2221  1.0687
14361TIP3   OH264497   1.429   0.978   5.759  0.1303  0.0256 -0.0947
14361TIP3    H164498   1.453   0.950   5.848 -0.2304 -2.6234 -0.7620
14361TIP3    H264499   1.496   1.044   5.737  0.8901 -0.0649  1.7066
14362TIP3   OH264500   2.650   1.785  17.034  0.9970 -0.3711  0.5378
14362TIP3    H164501   2.745   1.790  17.029  1.0235 -1.5134 -0.4378
14362TIP3    H264502   2.628   1.699  16.999 -0.3520 -0.4173  1.4215
14363TIP3   OH264503   3.651   5.305   4.860 -0.9373 -0.0303 -1.1513
14363TIP3    H164504   3.658   5.308   4.765 -1.1504  0.0173 -1.1657
14363TIP3    H264505   3.705   5.230   4.886  1.7858  1.8335 -1.0475
14364TIP3   OH264506   1.256   0.025  13.123 -0.1569 -0.0911  0.5253
14364TIP3    H164507   1.302   0.050  13.203  0.0714  1.2728 -0.0134
14364TIP3    H264508   1.324   0.017  13.057 -0.4579 -0.2284  0.2258
14365TIP3   OH264509   1.950   1.802   5.143 -0.3150 -0.3777  0.4122
14365TIP3    H164510   1.953   1.818   5.048 -0.1332  0.1208  0.5005
14365TIP3    H264511   2.012   1.730   5.156  1.1940  0.8685  0.4052
14366TIP3   OH264512   0.614   3.724  13.142 -0.6974 -0.3454 -0.2043
14366TIP3    H164513   0.543   3.765  13.093  1.6502  0.1215 -3.5464
14366TIP3    H264514   0.614   3.633  13.113  0.2060 -0.2839 -0.4123
14367TIP3   OH264515   3.639   6.683   2.378  0.4896 -0.8933 -0.3051
14367TIP3    H164516   3.730   6.693   2.408 -0.2642  1.6038  1.4447
14367TIP3    H264517   3.586   6.714   2.452 -1.7138 -0.1513 -2.1085
14368TIP3   OH264518   3.374   4.355   0.735 -0.4364 -0.0851  0.5728
14368TIP3    H164519   3.316   4.296   0.784  0.0983  0.1569  1.5134
14368TIP3    H264520   3.329   4.368   0.652 -2.2787  0.9264  1.6565
14369TIP3   OH264521   1.768   5.302   4.415  0.0391 -0.5689  0.5555
14369TIP3    H164522   1.859   5.313   4.388 -0.8780  2.1011 -1.9346
14369TIP3    H264523   1.723   5.271   4.337 -2.0173  3.3980 -0.1230
14370TIP3   OH264524   3.177   0.858   3.781 -0.1355  0.1901  0.1032
14370TIP3    H164525   3.191   0.946   3.746 -0.2944 -0.5828 -2.0756
14370TIP3    H264526   3.251   0.807   3.746  0.4809 -0.3721  2.1028
14371TIP3   OH264527   3.472   0.853  11.320 -0.5058 -0.0167  0.4049
14371TIP3    H164528   3.555   0.890  11.350  0.9475 -1.2830 -1.7783
14371TIP3    H264529   3.450   0.788  11.387  0.2744  0.3060  1.0005
14372TIP3   OH264530   2.212   4.182  11.881 -0.2097  0.1595 -0.6978
14372TIP3    H164531   2.184   4.098  11.919 -0.2179  0.2471 -0.5070
14372TIP3    H264532   2.130   4.227  11.860 -0.3041  1.1367  1.4313
14373TIP3   OH264533   5.412   3.853   3.896  0.2634 -0.1757 -0.0514
14373TIP3    H164534   5.328   3.869   3.855  0.1812 -1.8307 -0.5936
14373TIP3    H264535   5.396   3.867   3.989 -0.6887 -0.6781 -0.1216
14374TIP3   OH264536   2.382   0.217   1.497 -0.3136  0.2848 -0.0552
14374TIP3    H164537   2.297   0.188   1.464  0.0057  0.0173 -0.6722
14374TIP3    H264538   2.445   0.184   1.432  0.5048 -1.5833  1.5712
14375TIP3   OH264539   4.594   3.080   2.526 -0.5539  0.2716 -0.3271
14375TIP3    H164540   4.564   3.149   2.586 -3.3002 -0.7305 -0.3810
14375TIP3    H264541   4.634   3.015   2.584  0.4442  1.0727 -0.0822
14376TIP3   OH264542   3.367   6.275   5.316  0.2359 -0.2177  0.3386
14376TIP3    H164543   3.388   6.186   5.346  0.0289 -1.5091 -2.9840
14376TIP3    H264544   3.274   6.273   5.297  0.2901  0.6369 -0.0513
14377TIP3   OH264545   4.306   5.307  14.239 -0.0058 -0.1727  0.5585
14377TIP3    H164546   4.358   5.244  14.289 -0.6677 -0.8525  0.4265
14377TIP3    H264547   4.221   5.264  14.229 -0.5090  0.8034  0.5564
14378TIP3   OH264548   2.919   0.606  13.587  0.1890  0.6717 -0.6539
14378TIP3    H164549   2.923   0.659  13.508  0.2887 -0.2439 -1.2883
14378TIP3    H264550   3.002   0.622  13.632  1.4479 -0.9891 -2.2249
14379TIP3   OH264551   5.709   2.058   5.857  0.0141 -0.5303 -0.5077
14379TIP3    H164552   5.779   2.012   5.810  0.9500  1.2489 -0.9537
14379TIP3    H264553   5.755   2.124   5.910 -1.3162  1.2527 -1.4498
14380TIP3   OH264554   3.370   5.100   5.404  0.6081 -0.5057 -0.5412
14380TIP3    H164555   3.386   5.010   5.375  2.1779 -0.4330 -0.0274
14380TIP3    H264556   3.450   5.124   5.451 -0.8850  0.1669  1.8315
14381TIP3   OH264557   4.707   1.973   5.780 -0.3562  0.0279  0.7558
14381TIP3    H164558   4.778   1.914   5.805  0.1130  0.6849  0.9878
14381TIP3    H264559   4.719   2.050   5.834 -2.1658 -0.4498  1.9385
14382TIP3   OH264560   1.902   6.475  15.003 -0.2620  0.2007  0.5128
14382TIP3    H164561   1.908   6.415  14.928 -2.1515  0.8402 -0.2148
14382TIP3    H264562   1.958   6.436  15.070 -0.1822 -1.5182 -0.4957
14383TIP3   OH264563   1.547   2.179  14.917 -0.4231 -0.1093  0.4616
14383TIP3    H164564   1.516   2.117  14.851  0.8186 -0.1439 -0.1195
14383TIP3    H264565   1.557   2.126  14.996 -3.4020  0.2335  1.1958
14384TIP3   OH264566   5.490   3.072   2.920 -0.2654 -0.2211 -0.0635
14384TIP3    H164567   5.428   3.144   2.917  0.5803  0.5064 -0.8409
14384TIP3    H264568   5.465   3.015   2.847  0.6369  0.6593 -1.0918
14385TIP3   OH264569   3.136   6.503  14.271 -0.0132  0.5379  0.8132
14385TIP3    H164570   3.051   6.545  14.257  0.3676  1.4439  1.1740
14385TIP3    H264571   3.151   6.452  14.192 -2.0776 -1.7581  1.7655
14386TIP3   OH264572   1.570   2.663   3.447 -0.4150  0.1851  0.1083
14386TIP3    H164573   1.532   2.622   3.370  0.8026  0.5924 -0.7384
14386TIP3    H264574   1.655   2.619   3.458  0.2195  1.3795  0.1062
14387TIP3   OH264575   0.591   5.716   2.422  0.2537 -0.4315  0.7353
14387TIP3    H164576   0.660   5.650   2.431 -0.1360 -0.7744  1.3372
14387TIP3    H264577   0.613   5.764   2.343  0.4711 -1.3907  0.1939
14388TIP3   OH264578   6.008   3.052   5.700 -0.3133  0.2227  0.0991
14388TIP3    H164579   6.040   3.057   5.790 -1.2895  3.0500  0.4123
14388TIP3    H264580   6.048   2.974   5.664  2.7299  0.7400  2.0124
14389TIP3   OH264581   5.589   0.012  15.995 -0.0818 -0.3186  0.2030
14389TIP3    H164582   5.556  -0.002  15.907  0.5918  0.8929 -0.2696
14389TIP3    H264583   5.643  -0.065  16.013  2.2520  0.7476 -1.6735
14390TIP3   OH264584   2.516   3.258  16.818 -0.5795  0.8412  0.1153
14390TIP3    H164585   2.455   3.301  16.879  0.4174  0.0218  1.7552
14390TIP3    H264586   2.491   3.166  16.820 -0.6205  0.8205 -0.8632
14391TIP3   OH264587   5.409   1.315  14.263 -0.0761 -0.4831  0.3759
14391TIP3    H164588   5.496   1.353  14.273 -0.3451  0.3345 -0.2936
14391TIP3    H264589   5.349   1.388  14.279 -0.6303 -0.9342  0.3832
14392TIP3   OH264590   0.173   3.344   2.587 -0.2596 -0.0235 -0.4685
14392TIP3    H164591   0.155   3.431   2.622 -0.6006 -0.0482 -0.5796
14392TIP3    H264592   0.126   3.341   2.504 -3.3748 -1.5828  1.1755
14393TIP3   OH264593   1.704   6.060  16.148 -0.7372  0.0919 -0.4898
14393TIP3    H164594   1.774   6.083  16.209 -0.8764 -0.5939 -0.0520
14393TIP3    H264595   1.709   6.126  16.079  0.6812 -0.2460 -0.7422
14394TIP3   OH264596   3.687   5.799  12.749  0.2245 -0.0575  0.0225
14394TIP3    H164597   3.719   5.721  12.703 -1.3427 -0.1626 -0.9872
14394TIP3    H264598   3.754   5.865  12.734  1.2522 -1.0043  0.2999
14395TIP3   OH264599   5.176   0.328   2.717 -0.3194 -0.2065 -0.3473
14395TIP3    H164600   5.158   0.260   2.783 -0.0111  1.7139  1.8474
14395TIP3    H264601   5.262   0.361   2.740 -0.3193  0.7205 -1.5750
14396TIP3   OH264602   0.501   4.956  14.851  0.4535 -0.8856  0.0207
14396TIP3    H164603   0.496   5.034  14.795  0.8583 -0.8025  0.0967
14396TIP3    H264604   0.552   4.893  14.799  2.7808 -0.0547  1.1332
14397TIP3   OH264605   6.250   0.188  14.285 -0.1002  0.0882  0.1946
14397TIP3    H164606   6.198   0.218  14.211 -0.1097 -0.8060 -0.1771
14397TIP3    H264607   6.254   0.092  14.275  0.1065 -0.0258  1.2056
14398TIP3   OH264608   2.562   4.970  13.405 -0.3827  0.2090  0.2075
14398TIP3    H164609   2.498   4.980  13.335 -1.9218 -1.8526  1.1997
14398TIP3    H264610   2.518   5.004  13.483  0.2258 -0.0391  0.6659
14399TIP3   OH264611   5.649   2.499   1.823 -0.3783 -1.0941  0.3227
14399TIP3    H164612   5.604   2.516   1.741  1.1818 -1.4309 -0.6482
14399TIP3    H264613   5.651   2.584   1.867 -1.4512 -0.9651  0.1513
14400TIP3   OH264614   1.791   6.133  12.011  0.2911 -0.0410  0.4349
14400TIP3    H164615   1.769   6.223  12.035 -0.3936 -0.2245  0.5170
14400TIP3    H264616   1.820   6.092  12.093  0.1306 -0.0340  0.4947
14401TIP3   OH264617   1.794   3.350   3.759 -0.2094 -0.1245 -0.3905
14401TIP3    H164618   1.794   3.440   3.791 -0.3572 -0.4084  0.4381
14401TIP3    H264619   1.874   3.342   3.708  0.8110 -0.0707  1.1436
14402TIP3   OH264620   3.983   2.373   4.712 -0.3955 -0.3423  0.4556
14402TIP3    H164621   3.952   2.286   4.683 -0.2927 -0.5077  0.8455
14402TIP3    H264622   4.044   2.355   4.783  1.6554 -0.0940 -1.1513
14403TIP3   OH264623   1.933   2.991  16.650 -0.0906  0.4470 -0.4926
14403TIP3    H164624   1.949   2.967  16.741  0.4395 -0.4648 -0.8130
14403TIP3    H264625   1.838   3.001  16.644 -0.2588 -0.7789 -0.1444
14404TIP3   OH264626   2.901   2.294  15.076  0.3075 -0.3741  0.0451
14404TIP3    H164627   2.930   2.271  15.164  0.0105 -0.1671  0.1988
14404TIP3    H264628   2.873   2.385  15.082  2.0972  0.2828 -0.7127
14405TIP3   OH264629   2.358   1.270  13.481 -0.3477  0.2948  0.3329
14405TIP3    H164630   2.328   1.269  13.390  1.2163 -2.8341 -0.3079
14405TIP3    H264631   2.284   1.236  13.531 -0.3224 -0.5406 -0.1825
14406TIP3   OH264632   5.987   3.169  14.128 -0.0167 -0.3716 -0.8004
14406TIP3    H164633   6.060   3.116  14.159  0.6050 -0.3476 -2.1356
14406TIP3    H264634   6.028   3.237  14.075 -0.9733 -0.0582 -1.1584
14407TIP3   OH264635   2.408   4.802   3.490  0.5809  0.0328  0.4726
14407TIP3    H164636   2.437   4.715   3.519 -0.0417 -0.3477 -0.0262
14407TIP3    H264637   2.407   4.797   3.395  0.2750  0.5005  0.4472
14408TIP3   OH264638   5.569   3.630  11.203  0.0466  0.1114 -0.1817
14408TIP3    H164639   5.556   3.556  11.143  0.1180  0.8017 -1.0741
14408TIP3    H264640   5.574   3.590  11.289 -0.5889 -0.8640 -0.5770
14409TIP3   OH264641   1.025   3.590   3.416 -0.1732 -0.2127  0.4378
14409TIP3    H164642   1.084   3.649   3.462 -0.3557  0.0763  0.2996
14409TIP3    H264643   0.943   3.639   3.407 -1.4820 -1.5998  3.2707
14410TIP3   OH264644   4.440   4.286   1.407  0.7470 -0.0919 -1.0412
14410TIP3    H164645   4.353   4.255   1.382  0.3854 -0.1338  0.2464
14410TIP3    H264646   4.466   4.342   1.334 -0.7619  0.7024 -1.0097
14411TIP3   OH264647   4.310   6.806  13.084 -0.2863  0.0334  0.0248
14411TIP3    H164648   4.374   6.786  13.152 -0.3502  1.3215  0.4709
14411TIP3    H264649   4.356   6.864  13.024 -0.8233  0.4373 -0.0060
14412TIP3   OH264650   3.061   2.492  12.172 -0.2923  0.0388 -0.4697
14412TIP3    H164651   3.068   2.474  12.266 -1.0659  0.6364 -0.2803
14412TIP3    H264652   2.968   2.480  12.153 -0.4332  1.4752 -0.8011
14413TIP3   OH264653   5.949   1.115  13.474 -0.3972 -0.2666 -0.2607
14413TIP3    H164654   5.995   1.122  13.391  0.8784 -1.0520  0.3513
14413TIP3    H264655   5.960   1.201  13.515 -0.1198 -0.2117 -0.4511
14414TIP3   OH264656   6.688   3.732  13.742  0.4879 -0.5114  0.0434
14414TIP3    H164657   6.749   3.784  13.688  1.4448  0.3800  1.8935
14414TIP3    H264658   6.610   3.787  13.748 -0.6259 -1.6708 -2.3629
14415TIP3   OH264659   4.572   1.385   3.066  0.0383 -0.3714  0.2734
14415TIP3    H164660   4.565   1.474   3.030  3.3634  0.0907  0.4651
14415TIP3    H264661   4.581   1.398   3.160  4.8152 -0.3778  0.0251
14416TIP3   OH264662   3.583   3.521  12.237 -0.4505  0.5411 -0.3779
14416TIP3    H164663   3.663   3.508  12.187 -0.9015 -2.5062 -0.4787
14416TIP3    H264664   3.579   3.445  12.296 -3.5579  0.2587 -0.8154
14417TIP3   OH264665   0.130   1.583   5.691  0.0865 -0.0205 -0.1425
14417TIP3    H164666   0.167   1.551   5.774  1.3650 -0.3148 -0.7934
14417TIP3    H264667   0.204   1.580   5.630 -0.8919 -0.0240 -1.3560
14418TIP3   OH264668   2.162   0.527  11.733  0.1367  0.6675  0.1310
14418TIP3    H164669   2.142   0.554  11.822  0.4043  1.0974  0.0648
14418TIP3    H264670   2.149   0.605  11.680 -1.1150  0.1383 -0.3903
14419TIP3   OH264671   0.371   3.164   4.351  0.1116  0.3343 -0.0399
14419TIP3    H164672   0.378   3.081   4.305 -0.2759  1.5233 -2.3516
14419TIP3    H264673   0.412   3.228   4.293 -0.3205  1.9014  1.3007
14420TIP3   OH264674   3.156   1.293   1.325  0.4898 -0.2377 -0.8002
14420TIP3    H164675   3.094   1.340   1.381  0.5145  0.4934 -1.3785
14420TIP3    H264676   3.146   1.333   1.239  1.2444 -0.6108 -1.0711
14421TIP3   OH264677   2.017   5.634  10.621 -0.2195 -0.4283  0.8083
14421TIP3    H164678   2.043   5.726  10.616  0.4846 -0.6941 -1.6813
14421TIP3    H264679   1.944   5.634  10.684 -0.9860  2.0219  0.0753
14422TIP3   OH264680   0.516   2.060   3.888  0.6037 -0.2924 -0.2194
14422TIP3    H164681   0.583   2.007   3.844  0.2866 -1.0814  0.2277
14422TIP3    H264682   0.434   2.036   3.844  0.4386 -0.2802  0.0803
14423TIP3   OH264683   5.330   2.956  17.043 -0.0173 -0.0497  0.4249
14423TIP3    H164684   5.242   2.973  17.078  0.4115  0.7819  1.1420
14423TIP3    H264685   5.347   2.864  17.065  0.3724  0.5058  2.8052
14424TIP3   OH264686   0.106   5.888  14.746 -0.2714 -0.1587  0.1209
14424TIP3    H164687   0.128   5.943  14.671 -0.2106 -0.8769 -0.4025
14424TIP3    H264688   0.010   5.891  14.751 -0.2065  1.4163  1.2090
14425TIP3   OH264689   1.959   1.863   3.525  0.3351 -0.1848  0.3442
14425TIP3    H164690   1.962   1.958   3.538  0.3094 -0.1778  0.2964
14425TIP3    H264691   2.028   1.830   3.583  0.9835 -0.0647 -0.3472
14426TIP3   OH264692   5.912   5.490   6.412  0.2394  0.5506 -0.7311
14426TIP3    H164693   5.918   5.582   6.383  1.1705  0.8205  0.2470
14426TIP3    H264694   5.980   5.482   6.479 -1.7230 -0.0932  1.2761
14427TIP3   OH264695   5.476   3.248   0.605  0.0482 -0.8553  0.0496
14427TIP3    H164696   5.491   3.235   0.512 -1.7109  0.9534 -0.5650
14427TIP3    H264697   5.541   3.314   0.631 -0.6007 -0.0275 -0.3630
14428TIP3   OH264698   0.786   6.116  11.434  1.4943 -0.9913  0.1157
14428TIP3    H164699   0.748   6.051  11.493  0.7057 -0.0050  0.7545
14428TIP3    H264700   0.879   6.095  11.430  1.0746 -2.9063 -0.7159
14429TIP3   OH264701   4.942   0.806  11.008 -0.2798 -0.1313  0.4148
14429TIP3    H164702   4.888   0.739  10.966  0.5932 -0.0851 -0.8368
14429TIP3    H264703   4.981   0.854  10.935  0.1750  0.8795  1.2955
14430TIP3   OH264704   4.688   4.381  14.887 -0.2945 -0.3225  0.0455
14430TIP3    H164705   4.594   4.364  14.897 -0.6122  1.0796 -0.2739
14430TIP3    H264706   4.695   4.476  14.894  1.2847 -0.4984  1.3952
14431TIP3   OH264707   0.768   1.441  13.520  0.7919 -0.0246 -0.1675
14431TIP3    H164708   0.771   1.458  13.426 -1.7695  0.8180 -0.1495
14431TIP3    H264709   0.675   1.436  13.542  1.3079 -0.2933  2.3170
14432TIP3   OH264710   3.322   0.187  16.758  0.0145 -0.2062 -0.4781
14432TIP3    H164711   3.387   0.124  16.787 -0.5928 -1.0234 -0.8406
14432TIP3    H264712   3.239   0.138  16.759 -0.5164  0.6587 -0.5154
14433TIP3   OH264713   4.202   1.239  15.585  0.0502 -0.2042 -0.0485
14433TIP3    H164714   4.116   1.241  15.626 -0.0755 -1.6497 -0.1956
14433TIP3    H264715   4.189   1.188  15.505  0.9006  0.1346 -0.4072
14434TIP3   OH264716   0.286   6.700  16.163  0.2113 -0.3709  0.4318
14434TIP3    H164717   0.255   6.751  16.088  1.4202 -0.7323 -0.3459
14434TIP3    H264718   0.309   6.765  16.228  0.8804  0.0567 -0.2120
14435TIP3   OH264719   0.847   0.808   5.012  0.9822  0.5818  0.2562
14435TIP3    H164720   0.883   0.823   4.925  1.2016  1.0510  0.4263
14435TIP3    H264721   0.879   0.881   5.065 -3.1406  3.2287 -0.3972
14436TIP3   OH264722   1.977   5.827   4.897 -0.1554  0.5809 -0.4443
14436TIP3    H164723   1.964   5.732   4.892 -1.4867  0.7674 -1.0600
14436TIP3    H264724   1.894   5.860   4.931  0.5438  1.4740  0.4545
14437TIP3   OH264725   4.559   4.051   5.155 -0.6162 -0.6023 -0.3346
14437TIP3    H164726   4.561   3.980   5.090  0.0515 -0.0231 -0.9603
14437TIP3    H264727   4.467   4.078   5.158 -0.6330 -0.5607 -1.1185
14438TIP3   OH264728   2.289   0.802   4.807 -0.3294 -0.4265  0.2426
14438TIP3    H164729   2.252   0.787   4.894 -0.9777 -1.8029 -0.2449
14438TIP3    H264730   2.262   0.891   4.784 -2.4312 -0.9903  0.3610
14439TIP3   OH264731   0.221   1.610   4.164 -0.9456 -0.5644  0.2075
14439TIP3    H164732   0.285   1.598   4.093 -0.4243  1.2829  0.3042
14439TIP3    H264733   0.197   1.521   4.191  0.2514 -1.2935 -1.0326
14440TIP3   OH264734   4.843   2.489  15.025 -0.7779 -0.4674  0.1756
14440TIP3    H164735   4.890   2.562  14.984  0.1711 -0.4054  1.3262
14440TIP3    H264736   4.759   2.487  14.979  0.0387 -0.1051 -1.4222
14441TIP3   OH264737   0.464   6.589   3.387  0.4281 -0.3947  0.2678
14441TIP3    H164738   0.449   6.542   3.305 -0.3556  0.6352 -0.1989
14441TIP3    H264739   0.556   6.576   3.406  0.4090 -1.4420 -0.2720
14442TIP3   OH264740   5.850   1.675  11.007  0.3916 -0.8226 -0.2826
14442TIP3    H164741   5.822   1.751  11.058 -0.5975 -0.9773 -0.5707
14442TIP3    H264742   5.788   1.670  10.934  1.2822 -1.1031 -1.0368
14443TIP3   OH264743   2.558   6.726  10.841 -0.0894  0.7604 -0.8318
14443TIP3    H164744   2.565   6.700  10.933 -0.3660  1.0988 -0.7152
14443TIP3    H264745   2.582   6.647  10.792  0.8532  0.8048 -0.4647
14444TIP3   OH264746   0.309   4.559  14.910 -0.5857 -0.3839 -0.0869
14444TIP3    H164747   0.324   4.591  14.821  0.5499 -1.9591 -0.5112
14444TIP3    H264748   0.214   4.550  14.917 -0.6518 -1.1160 -1.4965
14445TIP3   OH264749   3.612   2.024   2.146 -0.2389  0.2392 -0.5633
14445TIP3    H164750   3.595   2.089   2.078  1.5098  0.4943 -0.8020
14445TIP3    H264751   3.634   1.944   2.098  0.2268  0.2085 -0.3044
14446TIP3   OH264752   4.203   6.432   0.080 -0.1752  0.7832 -0.5013
14446TIP3    H164753   4.170   6.358   0.029 -0.8122  0.4159  0.4308
14446TIP3    H264754   4.221   6.500   0.014  0.4323 -0.1884 -1.3601
14447TIP3   OH264755   0.412   1.206   1.791  0.1765  0.4632  0.1273
14447TIP3    H164756   0.365   1.283   1.824 -1.0506 -0.5874  0.9386
14447TIP3    H264757   0.460   1.173   1.868  0.7057  0.4111 -0.2180
14448TIP3   OH264758   3.465   1.469  12.012 -0.1845 -0.2843 -0.0691
14448TIP3    H164759   3.459   1.551  12.062 -3.0775 -1.0413  1.0248
14448TIP3    H264760   3.456   1.400  12.078  0.7675 -1.4619 -1.1331
14449TIP3   OH264761   4.219   4.616  12.442  0.4542  0.2638  0.3534
14449TIP3    H164762   4.168   4.542  12.475 -0.4880  0.4238 -0.6705
14449TIP3    H264763   4.263   4.652  12.519 -1.3884  0.4256  1.3808
14450TIP3   OH264764   3.636   1.926   3.023 -0.0164 -0.0352 -0.0498
14450TIP3    H164765   3.547   1.951   3.046  0.0220  0.0847 -0.0308
14450TIP3    H264766   3.660   1.858   3.087 -0.1417 -0.1643 -0.1397
14451TIP3   OH264767   1.399   3.175   4.014  0.3355  0.3374  0.1502
14451TIP3    H164768   1.427   3.206   3.928 -0.4510  1.4632  0.2796
14451TIP3    H264769   1.476   3.131   4.050  0.6918 -0.0929 -1.0984
14452TIP3   OH264770   6.745   3.391   4.481 -0.6977 -0.2733 -0.4170
14452TIP3    H164771   6.806   3.449   4.526  0.5210  1.1916 -3.6162
14452TIP3    H264772   6.799   3.316   4.454 -1.0839 -0.5205 -0.5145
14453TIP3   OH264773   4.696   0.865   1.535 -0.1347  0.1886  0.3432
14453TIP3    H164774   4.653   0.788   1.572 -0.4169  0.6224  0.9398
14453TIP3    H264775   4.648   0.939   1.571 -1.5118  0.6341 -2.1986
14454TIP3   OH264776   5.267   5.879   1.637  0.0854  0.3895 -0.2578
14454TIP3    H164777   5.362   5.889   1.646  0.1513 -1.3641  1.7651
14454TIP3    H264778   5.233   5.903   1.723 -1.0578 -1.2601 -0.2200
14455TIP3   OH264779   1.882   2.645   1.780 -0.9483 -0.9504  0.4586
14455TIP3    H164780   1.822   2.572   1.794 -0.0805 -1.9262 -0.6805
14455TIP3    H264781   1.901   2.643   1.686 -0.3007  0.2718  0.5352
14456TIP3   OH264782   4.188   4.640   1.154  0.6569 -0.0201  0.0635
14456TIP3    H164783   4.256   4.664   1.091 -0.2675 -0.1485 -1.0108
14456TIP3    H264784   4.129   4.715   1.155  0.2827 -0.3155  0.2406
14457TIP3   OH264785   1.714   1.476   0.567 -0.2188 -0.6230 -0.5550
14457TIP3    H164786   1.686   1.427   0.644 -0.3462 -0.5248 -0.5383
14457TIP3    H264787   1.704   1.568   0.593  1.3386 -0.5595 -0.0753
14458TIP3   OH264788   0.204   1.159   6.004  0.2265  0.1249 -0.1672
14458TIP3    H164789   0.211   1.192   6.094 -1.0172 -0.9044  0.3457
14458TIP3    H264790   0.136   1.212   5.964  0.0735 -0.0727 -0.1734
14459TIP3   OH264791   4.379   1.565  10.828 -0.1846  0.3122 -0.0988
14459TIP3    H164792   4.406   1.474  10.832  0.3948  0.5322  2.1935
14459TIP3    H264793   4.362   1.581  10.735  1.0162 -1.7248 -0.7273
14460TIP3   OH264794   3.851   1.588   5.011  0.2645  0.1538  0.0049
14460TIP3    H164795   3.946   1.579   5.000  0.3335  0.6826  0.1219
14460TIP3    H264796   3.815   1.505   4.981  0.6407  0.5396 -1.5978
14461TIP3   OH264797   0.099   1.583   2.127 -0.6892 -0.1827 -0.0641
14461TIP3    H164798   0.138   1.504   2.091 -0.8906  0.2764 -1.3386
14461TIP3    H264799   0.173   1.641   2.145 -0.6389 -0.1195 -0.4727
14462TIP3   OH264800   5.395   4.308  13.039 -0.1247  0.1261 -0.1496
14462TIP3    H164801   5.381   4.350  13.124 -2.5013  0.9045 -0.8646
14462TIP3    H264802   5.391   4.380  12.976 -2.7938 -0.8701 -1.2676
14463TIP3   OH264803   1.405   3.082   1.084  0.5336 -0.0472 -0.3644
14463TIP3    H164804   1.326   3.128   1.111  0.8228  1.8306 -2.3523
14463TIP3    H264805   1.377   3.028   1.010  1.0074  0.4253 -0.9058
14464TIP3   OH264806   1.460   3.264  13.295 -0.0998  0.0270 -0.0210
14464TIP3    H164807   1.539   3.243  13.345 -0.0561  0.8292  0.2537
14464TIP3    H264808   1.463   3.205  13.220  0.0293 -0.9365  0.7157
14465TIP3   OH264809   6.583   5.375   3.553  0.0992 -0.6797 -0.2681
14465TIP3    H164810   6.548   5.457   3.587  0.7755 -1.0483  1.4301
14465TIP3    H264811   6.641   5.401   3.482 -0.0210  0.2872 -0.0271
14466TIP3   OH264812   5.098   2.016  16.295  0.1986  0.0208  0.2405
14466TIP3    H164813   5.014   2.036  16.254 -0.7179 -0.3478  1.8896
14466TIP3    H264814   5.092   2.054  16.382  1.2234 -1.1677  0.8562
14467TIP3   OH264815   4.846   5.434  15.874 -0.1175 -0.1870  0.3075
14467TIP3    H164816   4.850   5.527  15.893  2.5266 -0.2459  0.3734
14467TIP3    H264817   4.890   5.392  15.948  0.1675 -1.3395 -0.4885
14468TIP3   OH264818   2.628   1.187  16.708  0.5819 -0.1305  0.3284
14468TIP3    H164819   2.698   1.252  16.703  0.5151 -0.1483 -1.5377
14468TIP3    H264820   2.650   1.133  16.784  2.2337  0.2756  0.1703
14469TIP3   OH264821   5.647   4.351   1.683  0.4361 -0.6589 -0.2306
14469TIP3    H164822   5.678   4.294   1.613  2.1835 -0.3165  0.2306
14469TIP3    H264823   5.713   4.344   1.752 -0.1464  0.6560  0.5064
14470TIP3   OH264824   5.893   5.250   1.652  0.2297 -1.0619 -0.0812
14470TIP3    H164825   5.890   5.328   1.708 -0.9951 -0.8147 -0.4705
14470TIP3    H264826   5.977   5.209   1.673  0.7050  0.1336  0.4337
14471TIP3   OH264827   0.012   5.697  15.357  0.4134 -0.7738  0.0206
14471TIP3    H164828   0.014   5.639  15.281  1.1071 -1.3871  0.4984
14471TIP3    H264829  -0.040   5.650  15.422  0.7219 -0.7212  0.3039
14472TIP3   OH264830   1.015   4.309   4.540  0.1415  0.5678 -0.6546
14472TIP3    H164831   0.984   4.398   4.521  0.0609  0.7787  0.3749
14472TIP3    H264832   1.070   4.286   4.465 -1.3455  0.7343 -1.8541
14473TIP3   OH264833   0.644   3.261  11.924 -0.0488  0.2629 -0.0784
14473TIP3    H164834   0.631   3.237  12.015  1.0723  2.9008  0.8788
14473TIP3    H264835   0.724   3.214  11.898  2.1000  2.6372  1.7274
14474TIP3   OH264836   2.333   4.659  10.540  0.5355  0.0777 -0.1775
14474TIP3    H164837   2.301   4.739  10.580  0.4991 -0.3381  0.6543
14474TIP3    H264838   2.267   4.637  10.474  0.0338  0.2006  0.2782
14475TIP3   OH264839   5.775   5.047   0.937 -0.0561 -0.3223 -0.1284
14475TIP3    H164840   5.796   5.126   0.986 -0.3710 -0.5382  0.3553
14475TIP3    H264841   5.725   4.993   0.997  0.3281 -0.9828 -0.3876
14476TIP3   OH264842   1.395   3.747  12.443  1.0941  0.7508  0.1223
14476TIP3    H164843   1.457   3.790  12.500  2.9798  0.3888 -1.5309
14476TIP3    H264844   1.366   3.670  12.492  1.1709  1.4681  1.3134
14477TIP3   OH264845   3.368   4.880  11.164  0.6551  0.1308  0.2522
14477TIP3    H164846   3.393   4.789  11.183  2.2335  0.4897 -0.0029
14477TIP3    H264847   3.434   4.933  11.208 -0.3100  1.1831  0.4863
14478TIP3   OH264848   3.573   1.017   1.971  0.2447  0.1066  0.7077
14478TIP3    H164849   3.531   1.021   2.057 -1.1295 -1.0010  0.1307
14478TIP3    H264850   3.650   1.073   1.979  1.5524 -1.8322  3.4435
14479TIP3   OH264851   0.200   6.658   5.004 -1.0159 -0.1026 -0.2787
14479TIP3    H164852   0.253   6.713   4.947 -0.3232  0.0421  0.4918
14479TIP3    H264853   0.129   6.714   5.033 -1.1148 -0.0430 -0.6322
14480TIP3   OH264854   0.958   5.261   2.480 -0.5357 -0.4841  0.5963
14480TIP3    H164855   0.985   5.241   2.390  1.8769 -2.7169  1.6907
14480TIP3    H264856   1.038   5.253   2.532 -2.1106 -0.7397  3.1642
14481TIP3   OH264857   6.623   1.827   4.070  0.2175 -0.1740 -0.3436
14481TIP3    H164858   6.565   1.870   4.132  0.9018 -0.7305  0.7068
14481TIP3    H264859   6.663   1.898   4.020 -0.3001  0.2758 -0.1234
14482TIP3   OH264860   1.182   4.663   6.137 -0.1300 -0.0683 -0.3078
14482TIP3    H164861   1.222   4.748   6.118  0.7671 -0.4085 -0.0142
14482TIP3    H264862   1.092   4.683   6.159  0.3027  0.9174  0.6554
14483TIP3   OH264863   2.153   1.224   3.609  0.2327 -0.3832  0.8057
14483TIP3    H164864   2.115   1.280   3.676 -1.8550  0.6635 -1.1074
14483TIP3    H264865   2.198   1.284   3.549  1.8230 -1.2590  1.0431
14484TIP3   OH264866   5.679   2.823  10.629  0.2899 -0.3211 -0.1052
14484TIP3    H164867   5.747   2.870  10.580 -0.1532 -0.4381 -0.8614
14484TIP3    H264868   5.720   2.740  10.653  0.9290  0.2532  0.8501
14485TIP3   OH264869   2.574   3.755   5.786  0.3215  0.1896 -0.0991
14485TIP3    H164870   2.629   3.677   5.787 -1.5825 -1.2199  0.3305
14485TIP3    H264871   2.491   3.725   5.750 -0.4615  2.0298  0.0663
14486TIP3   OH264872   5.801   2.547  12.709 -0.4947  0.4393  0.1500
14486TIP3    H164873   5.780   2.503  12.792 -0.3025  0.7007  0.3388
14486TIP3    H264874   5.765   2.490  12.642  0.2244 -0.2918  0.3682
14487TIP3   OH264875   0.883   1.629  16.638 -0.2531  0.1244 -0.3171
14487TIP3    H164876   0.856   1.569  16.708  1.1009 -0.5527 -0.3405
14487TIP3    H264877   0.846   1.590  16.558  0.3079 -0.4832 -0.2843
14488TIP3   OH264878   0.293   2.784   1.440  0.0471 -0.0876  0.8269
14488TIP3    H164879   0.265   2.875   1.452  0.6389  0.2982 -0.4458
14488TIP3    H264880   0.215   2.732   1.455 -0.4765  0.6911  0.8640
14489TIP3   OH264881   3.831   2.864  16.326  0.5796  0.0702  0.2292
14489TIP3    H164882   3.824   2.793  16.389 -1.5910 -1.2339 -1.3274
14489TIP3    H264883   3.824   2.944  16.379  2.4134 -0.8257  1.9398
14490TIP3   OH264884   1.949   3.852  12.366 -0.4606  0.0846 -0.3109
14490TIP3    H164885   1.975   3.811  12.283  2.5014  0.9194  0.0863
14490TIP3    H264886   1.890   3.923  12.339  1.2067  0.9665 -1.8517
14491TIP3   OH264887   0.220   4.940   6.385  0.3759 -0.6836 -0.2634
14491TIP3    H164888   0.294   4.898   6.428 -0.1858 -0.3818  1.0549
14491TIP3    H264889   0.145   4.884   6.406 -0.0024 -0.2413 -0.4075
14492TIP3   OH264890   0.461   1.080  11.677 -0.5600  0.0288 -0.3080
14492TIP3    H164891   0.495   0.997  11.643 -2.0336 -0.5740 -0.3870
14492TIP3    H264892   0.486   1.080  11.770  0.1159 -0.1403 -0.4879
14493TIP3   OH264893   2.232   0.329   0.249  0.2217 -0.1452  0.4353
14493TIP3    H164894   2.313   0.374   0.223 -0.6593  0.4126 -1.5596
14493TIP3    H264895   2.203   0.376   0.327  0.1818  1.8017 -0.6765
14494TIP3   OH264896   1.310   1.933  12.446 -0.4089 -0.7940  0.5475
14494TIP3    H164897   1.381   1.981  12.488 -0.2174  0.3820 -0.9966
14494TIP3    H264898   1.232   1.986  12.462 -0.1023  0.4891 -1.6551
14495TIP3   OH264899   0.421   5.668  12.712  0.2001  0.1191  0.6683
14495TIP3    H164900   0.466   5.720  12.644  0.4535  1.3054  1.7115
14495TIP3    H264901   0.434   5.718  12.792 -0.9007 -0.7912  1.4326
14496TIP3   OH264902   5.873   1.127   4.248 -0.3761 -0.0825 -0.0913
14496TIP3    H164903   5.884   1.067   4.322  1.1452  1.3235  0.8865
14496TIP3    H264904   5.785   1.163   4.259 -0.3610 -0.2828  0.7305
14497TIP3   OH264905   5.732   6.007   1.948 -0.4737 -0.2577 -0.0374
14497TIP3    H164906   5.761   5.921   1.977  0.5414  0.9393  2.8574
14497TIP3    H264907   5.640   6.012   1.975 -0.9178 -0.8478 -1.3593
14498TIP3   OH264908   3.157   6.427  15.258 -0.3370  0.7011 -0.2401
14498TIP3    H164909   3.191   6.514  15.235 -0.5227  0.6091 -0.8859
14498TIP3    H264910   3.206   6.367  15.202 -0.2936  0.3980  0.1218
14499TIP3   OH264911   4.955   1.648  16.996 -0.4623 -0.2985  0.0784
14499TIP3    H164912   5.015   1.626  16.924 -1.2855  0.7080 -0.9503
14499TIP3    H264913   4.996   1.724  17.038 -1.2101  0.6796 -0.9127
14500TIP3   OH264914   5.399   0.518   2.664  0.2573 -0.0766  0.7089
14500TIP3    H164915   5.452   0.539   2.741  0.8251  1.2001  0.0017
14500TIP3    H264916   5.325   0.579   2.668 -1.2910 -1.9092  1.7374
14501TIP3   OH264917   6.312   6.312  15.179  0.0901 -0.3925 -0.1928
14501TIP3    H164918   6.407   6.313  15.167  0.5993  0.0016  2.9749
14501TIP3    H264919   6.282   6.393  15.139  0.9982 -0.7694 -1.6933
14502TIP3   OH264920   1.220   4.813  11.685 -0.1016 -0.3537 -0.0055
14502TIP3    H164921   1.192   4.722  11.696 -1.8971 -0.4962 -3.9938
14502TIP3    H264922   1.191   4.857  11.765 -3.2662 -2.4923  0.2140
14503TIP3   OH264923   5.788   0.532  16.822  0.1649  0.1287 -0.6363
14503TIP3    H164924   5.695   0.507  16.826  0.4487 -1.3156 -2.0664
14503TIP3    H264925   5.820   0.493  16.741  2.7366 -1.9705  1.2031
14504TIP3   OH264926   3.181   5.673  10.800 -0.2331  0.1631  0.1814
14504TIP3    H164927   3.272   5.650  10.819 -0.1648  0.3934  0.1363
14504TIP3    H264928   3.138   5.590  10.781  0.0061  0.0721  0.0389
14505TIP3   OH264929   3.346   2.182   1.988 -0.8120  0.1523  0.3204
14505TIP3    H164930   3.358   2.141   1.902 -2.4175  1.5169 -0.6253
14505TIP3    H264931   3.429   2.227   2.005 -0.0926 -1.0285  0.0062
14506TIP3   OH264932   4.876   6.739   4.204  0.0683  0.3428 -0.6061
14506TIP3    H164933   4.876   6.647   4.231  0.1798  0.9400  1.6364
14506TIP3    H264934   4.968   6.764   4.207  0.0176  0.5835 -1.0388
14507TIP3   OH264935   3.067   6.332   0.260  0.0166 -0.0187  0.4795
14507TIP3    H164936   3.141   6.356   0.204  0.3331 -2.5467 -0.2960
14507TIP3    H264937   2.990   6.342   0.204 -0.2782  2.3445  1.2043
14508TIP3   OH264938   5.990   1.526   0.349  0.7630  0.7666  0.0347
14508TIP3    H164939   5.912   1.500   0.398  1.3022  1.4581  1.2918
14508TIP3    H264940   5.963   1.520   0.257 -1.1484  2.0754  0.4462
14509TIP3   OH264941   0.459   5.507   2.055 -0.6381  0.0961 -0.0618
14509TIP3    H164942   0.534   5.522   2.112 -0.3464  0.1406 -0.4495
14509TIP3    H264943   0.492   5.447   1.988 -0.4601  1.4176 -1.1952
14510TIP3   OH264944   3.929   1.356   3.359 -0.1952  0.6041  0.1353
14510TIP3    H164945   3.877   1.349   3.279  0.2351  0.9858 -0.1869
14510TIP3    H264946   4.003   1.412   3.334  0.3094  0.1554  0.6138
14511TIP3   OH264947   2.263   6.546  15.640 -0.3188 -0.4195 -0.2809
14511TIP3    H164948   2.347   6.573  15.603  0.1871 -1.1110  0.3448
14511TIP3    H264949   2.218   6.502  15.567  0.1477 -0.6600 -0.4294
14512TIP3   OH264950   4.762   4.383  10.525 -0.4569 -0.3656 -0.2824
14512TIP3    H164951   4.821   4.453  10.552 -0.6052 -0.4748  0.3436
14512TIP3    H264952   4.749   4.397  10.431  2.4473 -1.7204 -0.9901
14513TIP3   OH264953   6.019   4.409  13.983  0.5486 -0.4249 -0.4492
14513TIP3    H164954   6.106   4.378  13.961  0.9046 -0.1224  0.4919
14513TIP3    H264955   6.001   4.477  13.919  1.2189 -0.1363 -0.3399
14514TIP3   OH264956   3.830   5.966   1.181  0.6085  0.0474 -0.3098
14514TIP3    H164957   3.776   6.030   1.134  0.0762 -0.6520 -0.6662
14514TIP3    H264958   3.898   6.019   1.224 -1.0444  1.0725  1.1413
14515TIP3   OH264959   1.085   0.669  11.984  0.0700 -0.2889 -0.3533
14515TIP3    H164960   1.096   0.664  11.889 -1.3547  0.7280 -0.6016
14515TIP3    H264961   0.990   0.672  11.997  0.2578  0.1209  1.0700
14516TIP3   OH264962   0.762   6.788   2.269 -0.2785 -0.4011  0.0302
14516TIP3    H164963   0.712   6.867   2.290 -3.3539 -2.0952 -0.3867
14516TIP3    H264964   0.770   6.789   2.173 -0.7470 -0.8115 -0.0165
14517TIP3   OH264965   3.215   5.812  14.324  0.0189 -0.2917 -0.4874
14517TIP3    H164966   3.178   5.900  14.324 -0.8582 -0.6079  1.6206
14517TIP3    H264967   3.280   5.813  14.394 -0.9093 -1.6355  0.4426
14518TIP3   OH264968   1.149   4.457   4.258  0.6838 -0.7085 -0.1470
14518TIP3    H164969   1.136   4.363   4.264  2.3943 -0.8649  2.7870
14518TIP3    H264970   1.241   4.467   4.230  0.0239  0.1766 -2.2163
14519TIP3   OH264971   5.879   2.270  13.606 -0.4713 -0.7404  1.0023
14519TIP3    H164972   5.875   2.364  13.623  1.0838 -0.4388 -0.0953
14519TIP3    H264973   5.846   2.260  13.517 -0.9249 -1.2763  1.2255
14520TIP3   OH264974   4.543   5.032  13.782 -0.0135 -0.1020  0.1354
14520TIP3    H164975   4.553   5.017  13.688 -2.0786 -0.0002 -0.1645
14520TIP3    H264976   4.602   4.970  13.824  0.9708 -0.1188 -1.2342
14521TIP3   OH264977   3.263   2.792  14.264  0.2576  0.0204  0.4106
14521TIP3    H164978   3.281   2.763  14.354 -2.6359 -2.0751  0.4572
14521TIP3    H264979   3.168   2.787  14.256  0.4503 -0.2570 -2.9272
14522TIP3   OH264980   4.137   4.881   2.783 -0.2270 -0.1173  0.2901
14522TIP3    H164981   4.161   4.900   2.692  1.0848  0.9189  0.8339
14522TIP3    H264982   4.139   4.965   2.827 -0.2788 -0.6853  1.4228
14523TIP3   OH264983   3.844   1.144   1.978  0.3677 -0.0755  0.1855
14523TIP3    H164984   3.805   1.118   2.062 -1.7570 -0.1200 -0.7695
14523TIP3    H264985   3.890   1.066   1.948  0.1503 -0.4302  0.7641
14524TIP3   OH264986   3.074   2.621   5.734 -0.1367  0.3172 -0.0974
14524TIP3    H164987   3.053   2.685   5.666 -0.0703  0.7794  0.3100
14524TIP3    H264988   2.992   2.612   5.784 -0.3313 -0.3884 -0.5258
14525TIP3   OH264989   1.751   0.889  13.808  0.1233  0.1200  0.2757
14525TIP3    H164990   1.700   0.822  13.853  1.2573 -1.4451 -0.6802
14525TIP3    H264991   1.795   0.842  13.737  0.2290  2.0594 -1.0072
14526TIP3   OH264992   4.124   6.791  15.844 -0.7371  0.5353 -0.1063
14526TIP3    H164993   4.166   6.791  15.930 -2.0548  0.7076  0.5602
14526TIP3    H264994   4.046   6.736  15.854 -0.2705 -0.4570 -1.5386
14527TIP3   OH264995   0.877   3.183  15.511  0.2257  0.1347  0.0009
14527TIP3    H164996   0.922   3.098  15.512  0.2995  0.1561 -0.7033
14527TIP3    H264997   0.917   3.230  15.437 -0.1631  0.5912  0.0777
14528TIP3   OH264998   2.780   2.164   2.025  0.1489  0.3089  0.2669
14528TIP3    H164999   2.802   2.080   1.985 -0.0226  0.6739 -0.5980
14528TIP3    H265000   2.862   2.212   2.028 -0.4189  1.8150 -3.2920
14529TIP3   OH265001   0.511   4.156   3.267  0.7266 -0.2400  0.4207
14529TIP3    H165002   0.579   4.107   3.313  0.3155  0.0586  1.3893
14529TIP3    H265003   0.483   4.223   3.330 -1.0407 -0.8920  0.3766
14530TIP3   OH265004   0.758   1.368  12.359 -0.3835  0.5287 -0.0556
14530TIP3    H165005   0.810   1.348  12.281  0.6634  0.0444  0.7440
14530TIP3    H265006   0.819   1.358  12.431 -1.8282 -1.0857  1.0294
14531TIP3   OH265007   4.575   0.077   5.067 -0.6649  0.1759 -0.5172
14531TIP3    H165008   4.544   0.090   4.977  1.1584  0.7206 -1.1120
14531TIP3    H265009   4.621  -0.007   5.064 -1.1757 -0.1342  0.0958
14532TIP3   OH265010   0.614   2.080   3.264 -0.1887  0.3911 -0.1701
14532TIP3    H165011   0.562   2.051   3.189 -2.2889 -0.0999  1.3868
14532TIP3    H265012   0.569   2.043   3.340  2.2322  0.2991  1.3334
14533TIP3   OH265013   1.332   1.353  11.187  0.6327 -0.1142  0.0556
14533TIP3    H165014   1.321   1.287  11.255  1.4671 -0.6969 -0.3677
14533TIP3    H265015   1.259   1.337  11.126  1.0786 -0.9520 -0.2812
14534TIP3   OH265016   3.888   2.262   4.160  0.4308  0.2349 -0.2249
14534TIP3    H165017   3.850   2.252   4.247  1.7637 -1.5188  0.2336
14534TIP3    H265018   3.838   2.332   4.119 -0.9953  0.3107  1.5263
14535TIP3   OH265019   0.689   6.795  12.217 -0.4167  0.6712 -0.2013
14535TIP3    H165020   0.680   6.890  12.212 -1.6074  0.5509 -0.5287
14535TIP3    H265021   0.600   6.761  12.212 -0.0307 -0.4586  0.1879
14536TIP3   OH265022   3.653   2.735   0.076 -0.4843 -0.1574 -0.1082
14536TIP3    H165023   3.727   2.753   0.017  0.9817  0.6685  1.8670
14536TIP3    H265024   3.669   2.646   0.108 -0.0929  0.1699  0.6310
14537TIP3   OH265025   2.821   4.918  16.803  0.3564 -0.2721  0.5973
14537TIP3    H165026   2.832   5.010  16.826 -2.6918  0.4570 -0.4166
14537TIP3    H265027   2.865   4.909  16.719 -0.2289  0.5607  0.1855
14538TIP3   OH265028   3.475   1.754   2.621  0.6223 -0.7020  0.0795
14538TIP3    H165029   3.444   1.760   2.531  2.5399 -1.0795 -0.6571
14538TIP3    H265030   3.508   1.841   2.642  1.4668 -0.9618 -0.1132
14539TIP3   OH265031   5.504   1.220   1.109  0.2122 -0.1905 -0.0113
14539TIP3    H165032   5.410   1.236   1.100  0.1135 -0.7446 -0.0038
14539TIP3    H265033   5.534   1.204   1.019  0.6168  1.5915 -0.2379
14540TIP3   OH265034   3.870   2.078   5.195 -0.0943  0.0528  0.1066
14540TIP3    H165035   3.928   2.152   5.179  0.5891 -0.7042 -1.1037
14540TIP3    H265036   3.785   2.106   5.161 -0.1437  0.7000  0.7397
14541TIP3   OH265037   2.552   1.665   5.484  0.0313 -0.2263  0.4308
14541TIP3    H165038   2.617   1.604   5.448 -0.4792 -0.6721  0.2469
14541TIP3    H265039   2.472   1.645   5.436  0.1816  1.5671 -0.6838
14542TIP3   OH265040   4.020   0.852   6.275 -0.2713  0.6704  0.4788
14542TIP3    H165041   4.023   0.928   6.217  0.3534  0.3138  0.0365
14542TIP3    H265042   4.108   0.845   6.311  0.2839 -1.0134 -1.0282
14543TIP3   OH265043   5.867   2.555   4.011  0.1133 -0.4283  0.4293
14543TIP3    H165044   5.843   2.553   4.104  1.8394  0.7618  0.9489
14543TIP3    H265045   5.934   2.488   4.002 -0.7074 -1.1888 -0.1915
14544TIP3   OH265046   5.744   3.045   5.498  0.2370 -0.5087  0.4088
14544TIP3    H165047   5.725   3.043   5.405  0.7530  0.1478  0.2793
14544TIP3    H265048   5.723   2.957   5.529  0.5746 -0.8947 -0.4265
14545TIP3   OH265049   6.423   2.249   6.429 -0.5462  0.1870  0.5629
14545TIP3    H165050   6.457   2.178   6.484  0.3823  0.1215 -0.0644
14545TIP3    H265051   6.470   2.327   6.458  1.6060 -0.2114 -1.4976
14546TIP3   OH265052   4.363   4.818  10.999  0.5626 -0.0233 -0.0524
14546TIP3    H165053   4.327   4.827  11.087  1.2909  0.5392  0.1967
14546TIP3    H265054   4.287   4.798  10.944  0.1251 -0.5123  0.7155
14547TIP3   OH265055   3.275   0.598   0.166  0.1314 -0.5113  0.1403
14547TIP3    H165056   3.248   0.528   0.105  1.0074 -0.8163  0.0855
14547TIP3    H265057   3.259   0.679   0.118 -1.3012 -0.6445  0.3640
14548TIP3   OH265058   3.330   0.194  15.486  0.1668 -0.5433 -0.5355
14548TIP3    H165059   3.369   0.259  15.428  0.7181 -0.7732 -0.4230
14548TIP3    H265060   3.312   0.242  15.567  0.3491 -0.4744 -0.5356
14549TIP3   OH265061   3.126   3.010   2.562  0.5419 -0.1562  0.1502
14549TIP3    H165062   3.193   3.076   2.582 -0.0583 -0.1900  2.5275
14549TIP3    H265063   3.043   3.052   2.586 -0.0824 -0.9729 -0.5046
14550TIP3   OH265064   0.762   3.190  16.888  0.2975 -0.0093  0.2944
14550TIP3    H165065   0.729   3.193  16.978 -2.0676  0.9221 -0.5237
14550TIP3    H265066   0.747   3.100  16.860 -1.6021  0.3546 -0.0143
14551TIP3   OH265067   1.157   0.311   2.037  0.2507  0.0252 -0.3425
14551TIP3    H165068   1.177   0.267   1.954  3.5834  0.2850  0.1904
14551TIP3    H265069   1.172   0.244   2.103  1.7423  0.8931  0.2446
14552TIP3   OH265070   5.328   4.580   6.009  0.1605  0.1211  0.9707
14552TIP3    H165071   5.256   4.641   6.029  0.0423  0.3871 -0.2173
14552TIP3    H265072   5.288   4.514   5.952  0.4828 -0.6435  1.6166
14553TIP3   OH265073   2.561   3.100   4.563  0.3241  0.5254 -0.0809
14553TIP3    H165074   2.574   3.026   4.622  1.1412  0.8599  0.1806
14553TIP3    H265075   2.524   3.062   4.483 -0.8532  0.0782  0.6639
14554TIP3   OH265076   4.363   6.578   5.474 -0.5330 -0.1906  0.2509
14554TIP3    H165077   4.337   6.647   5.534 -0.6440 -0.4308  0.4829
14554TIP3    H265078   4.458   6.573   5.483 -0.2690  1.2571 -1.2133
14555TIP3   OH265079   4.077   2.565  16.220  0.2973  0.0160  0.4008
14555TIP3    H165080   3.987   2.535  16.229  0.8483 -1.2549  2.1056
14555TIP3    H265081   4.105   2.533  16.134 -0.0922 -1.7965  0.9224
14556TIP3   OH265082   1.571   4.699  15.832  0.2837 -0.2633 -0.2319
14556TIP3    H165083   1.513   4.647  15.776  1.1969 -0.4408 -1.0503
14556TIP3    H265084   1.550   4.790  15.810  1.4730 -0.3211 -1.8348
14557TIP3   OH265085   4.198   5.169  13.305 -0.2705  0.3068 -0.3015
14557TIP3    H165086   4.132   5.102  13.286 -2.0612  2.1079 -0.9042
14557TIP3    H265087   4.282   5.125  13.296 -1.3105 -1.4130 -2.4717
14558TIP3   OH265088   2.786   6.798   5.192  0.7767 -0.0592 -0.5133
14558TIP3    H165089   2.698   6.827   5.213  0.8306  1.6634 -2.3454
14558TIP3    H265090   2.785   6.785   5.097  1.8684 -2.4021 -0.2772
14559TIP3   OH265091   6.068   4.802   0.784  0.1479  0.1933 -0.4894
14559TIP3    H165092   6.065   4.893   0.813  0.2783  0.3052 -0.8110
14559TIP3    H265093   6.065   4.808   0.688  2.0369 -0.0423 -0.6027
14560TIP3   OH265094   3.157   3.263   0.574  0.6822  0.0476  0.8842
14560TIP3    H165095   3.182   3.355   0.587 -0.8753  0.3760  1.9016
14560TIP3    H265096   3.067   3.268   0.542 -0.2751 -1.1344  3.1994
14561TIP3   OH265097   0.102   0.095   4.076 -0.2343 -0.1071 -0.2628
14561TIP3    H165098   0.143   0.163   4.129 -0.1779  0.4510 -1.0079
14561TIP3    H265099   0.011   0.094   4.107 -0.0231 -0.3321  0.3766
14562TIP3   OH265100   0.638   6.323  16.000  0.1822 -0.0163  0.4532
14562TIP3    H165101   0.599   6.397  16.045  0.1297 -0.1872  0.6881
14562TIP3    H265102   0.564   6.267  15.975  0.3669 -1.4485  2.8117
14563TIP3   OH265103   3.062   6.261  16.548 -0.4481  0.4506 -0.5294
14563TIP3    H165104   3.071   6.172  16.515  1.6882  0.4823 -0.1185
14563TIP3    H265105   3.031   6.250  16.638 -0.9411  0.1806 -0.7240
14564TIP3   OH265106   4.738   4.764   3.779  0.1874  0.1765 -0.5653
14564TIP3    H165107   4.829   4.770   3.749 -0.5079 -0.1886 -2.9688
14564TIP3    H265108   4.723   4.670   3.789  0.2107  0.2642  0.4048
14565TIP3   OH265109   1.864   2.294  16.404  0.0232 -0.5427 -0.0687
14565TIP3    H165110   1.940   2.284  16.462  0.1603  1.1574  0.0783
14565TIP3    H265111   1.793   2.322  16.462 -0.4363 -1.0212 -0.3869
14566TIP3   OH265112   2.338   0.558  15.355  0.5112  0.6821 -0.3551
14566TIP3    H165113   2.416   0.565  15.411 -0.4376  1.2128  0.9631
14566TIP3    H265114   2.352   0.625  15.287  0.4293  2.0204  0.8940
14567TIP3   OH265115   5.146   4.166  13.783  0.1541 -0.1117 -0.5944
14567TIP3    H165116   5.163   4.073  13.767 -0.3582 -0.2359 -0.4402
14567TIP3    H265117   5.228   4.210  13.760  0.2937 -0.5662 -0.9811
14568TIP3   OH265118   5.385   4.582  12.273  0.1037  0.2696  0.1500
14568TIP3    H165119   5.387   4.674  12.297 -0.1714  0.6703 -1.3093
14568TIP3    H265120   5.299   4.551  12.303 -0.8829  1.1537 -1.6135
14569TIP3   OH265121   5.923   0.199   0.870 -0.5450  0.5568  0.2835
14569TIP3    H165122   5.913   0.199   0.775 -1.5751 -0.9649  0.3646
14569TIP3    H265123   5.942   0.290   0.892  0.3084  0.8279 -1.4293
14570TIP3   OH265124   5.535   0.064   4.477 -0.4908 -0.0547 -0.2599
14570TIP3    H165125   5.537   0.047   4.571 -2.7103 -0.5022 -0.2514
14570TIP3    H265126   5.566   0.154   4.468 -2.7458  0.9588  1.2109
14571TIP3   OH265127   4.252   6.322  12.870  0.3466 -1.1955 -0.1838
14571TIP3    H165128   4.313   6.261  12.829 -1.9631 -2.1269 -2.5100
14571TIP3    H265129   4.204   6.361  12.797 -0.5396  0.9687  1.4246
14572TIP3   OH265130   1.553   1.341  13.838 -0.6454 -0.0910 -0.4351
14572TIP3    H165131   1.559   1.405  13.767  0.1815  2.0506  1.4318
14572TIP3    H265132   1.640   1.301  13.840 -0.1873  0.8812  0.2138
14573TIP3   OH265133   4.233   3.660  16.064 -0.4252 -0.0649 -0.2323
14573TIP3    H165134   4.307   3.666  16.004 -0.1077 -0.8092  0.0635
14573TIP3    H265135   4.188   3.744  16.057  0.7283  0.5866 -0.0685
14574TIP3   OH265136   6.134   5.178  12.228 -0.2908  0.4602 -0.3795
14574TIP3    H165137   6.148   5.267  12.197  2.4994  0.3404  0.2524
14574TIP3    H265138   6.166   5.122  12.157  0.4879  0.0530  0.2721
14575TIP3   OH265139   2.141   1.469  17.058 -0.2503  0.2689  0.0410
14575TIP3    H165140   2.088   1.414  17.001 -1.6363  0.4838  1.0820
14575TIP3    H265141   2.207   1.410  17.095 -1.1699 -0.5076  0.4652
14576TIP3   OH265142   4.075   5.133  16.891  0.4040  0.1165 -0.2117
14576TIP3    H165143   3.988   5.103  16.863 -1.1243  1.7880  2.3122
14576TIP3    H265144   4.097   5.077  16.965  1.0229  0.3537 -0.2074
14577TIP3   OH265145   0.195   2.458   5.841  0.5248 -0.0697  0.3002
14577TIP3    H165146   0.281   2.427   5.811  0.0084  0.5480 -2.0424
14577TIP3    H265147   0.164   2.514   5.769 -1.2445  0.8480  1.7000
14578TIP3   OH265148   3.426   1.295  11.394 -0.4010  0.1419  0.4582
14578TIP3    H165149   3.364   1.331  11.457 -1.0173  0.3553 -0.2562
14578TIP3    H265150   3.460   1.371  11.347  0.7659  0.0721  1.1510
14579TIP3   OH265151   6.265   6.161   6.162  0.8899  0.1169 -0.3156
14579TIP3    H165152   6.303   6.229   6.217 -0.2442  0.3564  0.1848
14579TIP3    H265153   6.336   6.138   6.102  1.6533  0.9326  0.2352
14580TIP3   OH265154   5.726   0.562   4.521  0.8111  0.0427  0.2302
14580TIP3    H165155   5.801   0.577   4.463 -0.7380  4.5496 -1.0767
14580TIP3    H265156   5.666   0.509   4.468  1.0958  0.6301 -0.7165
14581TIP3   OH265157   6.677   0.283  11.441 -0.1886 -0.7689 -0.2646
14581TIP3    H165158   6.726   0.335  11.504  0.3309 -2.3224  0.6888
14581TIP3    H265159   6.707   0.313  11.355  0.2569  0.3018  0.2589
14582TIP3   OH265160   0.268   5.188   0.117 -0.8377 -0.0281  0.1852
14582TIP3    H165161   0.337   5.229   0.063  0.3806  0.1316  1.7796
14582TIP3    H265162   0.269   5.096   0.091  1.4259 -0.4601  1.5357
14583TIP3   OH265163   3.247   1.155   1.998 -0.4601  0.5096  0.3799
14583TIP3    H165164   3.229   1.233   1.946  0.2771 -0.3591 -1.2440
14583TIP3    H265165   3.261   1.189   2.087 -1.3964  2.0692 -0.0286
14584TIP3   OH265166   0.756   3.482   1.215  0.5629  0.1822 -0.1050
14584TIP3    H165167   0.677   3.435   1.188  0.5187  0.2979 -0.1746
14584TIP3    H265168   0.750   3.486   1.311  0.5539  0.0680 -0.1006
14585TIP3   OH265169   5.803   0.290   3.631 -0.2182 -0.8357 -0.6803
14585TIP3    H165170   5.854   0.366   3.604  1.1329 -1.0751  0.9828
14585TIP3    H265171   5.722   0.326   3.666  0.5379 -0.1023  0.3677
14586TIP3   OH265172   5.557   6.591   5.598 -0.3513  0.0483  0.2422
14586TIP3    H165173   5.509   6.668   5.568 -0.9391 -1.1287 -2.1573
14586TIP3    H265174   5.503   6.555   5.669 -0.4592  1.4085  0.8684
14587TIP3   OH265175   3.142   6.416  13.061  0.0074  0.1989  0.3732
14587TIP3    H165176   3.129   6.371  12.978 -0.5177 -0.8426  1.0058
14587TIP3    H265177   3.237   6.423  13.070  0.0887 -0.6088  0.1763
14588TIP3   OH265178   5.665   4.066   0.164 -0.4760 -0.2022  0.0201
14588TIP3    H165179   5.693   4.089   0.075  0.1888 -1.2078 -0.0436
14588TIP3    H265180   5.743   4.081   0.218 -0.0342 -2.1790 -0.0127
14589TIP3   OH265181   1.853   4.719  16.107 -0.0366  0.8377  0.3067
14589TIP3    H165182   1.898   4.708  16.191  1.2661 -0.1079 -0.4676
14589TIP3    H265183   1.903   4.788  16.063  3.7044 -2.9947 -2.3116
14590TIP3   OH265184   5.106   5.740  10.957 -0.6844 -0.2480 -0.2427
14590TIP3    H165185   5.176   5.773  11.014  0.3208 -2.1949 -0.2658
14590TIP3    H265186   5.043   5.701  11.018 -2.4863  2.6018 -0.1174
14591TIP3   OH265187   1.225   2.096  13.854 -0.2514 -0.2025  0.0706
14591TIP3    H165188   1.190   2.182  13.831  1.4448  1.0418  1.8495
14591TIP3    H265189   1.148   2.047  13.884 -0.9056  1.6811  1.7290
14592TIP3   OH265190   3.439   1.885  12.379 -0.1289  0.0508  0.0181
14592TIP3    H165191   3.443   1.858  12.471 -2.1238  0.6782  0.3469
14592TIP3    H265192   3.528   1.873  12.347  0.4399 -0.9661  1.8031
14593TIP3   OH265193   3.997   2.644  14.744 -0.0151  0.5197 -0.0401
14593TIP3    H165194   3.983   2.563  14.792 -0.0570  0.8411  0.5010
14593TIP3    H265195   4.091   2.660  14.750  0.4177 -0.7364 -2.2119
14594TIP3   OH265196   2.934   2.909   3.394 -0.3901  0.0249 -0.7295
14594TIP3    H165197   2.881   2.862   3.330 -0.4846  1.2510 -1.5905
14594TIP3    H265198   2.870   2.961   3.444 -0.4034 -1.4301  0.8691
14595TIP3   OH265199   3.085   2.995  12.246  0.4220 -0.2629 -0.1484
14595TIP3    H165200   3.042   2.958  12.169 -1.6110 -0.2241  0.8976
14595TIP3    H265201   3.171   3.024  12.214 -1.0042  1.4329 -2.8567
14596TIP3   OH265202   1.079   3.841  11.384  0.0309 -0.5887 -0.3407
14596TIP3    H165203   1.133   3.852  11.463  1.0680 -0.5257 -1.0353
14596TIP3    H265204   1.038   3.926  11.371  2.9726  0.6873 -2.0647
14597TIP3   OH265205   2.851   6.393   0.083  0.1572  0.2860  0.5011
14597TIP3    H165206   2.817   6.481   0.070 -2.3939 -0.7631 -0.6151
14597TIP3    H265207   2.884   6.367  -0.003 -2.9881 -1.2656 -0.3872
14598TIP3   OH265208   4.982   1.066  14.131 -0.0684  0.1536  0.0834
14598TIP3    H165209   4.889   1.088  14.133 -0.0811  0.0659  0.6943
14598TIP3    H265210   4.995   1.011  14.208  0.2736 -0.7156 -0.5785
14599TIP3   OH265211   0.163   5.956   6.429  0.6823 -0.5050 -0.1996
14599TIP3    H165212   0.108   6.032   6.449  1.4019 -0.5753  2.2776
14599TIP3    H265213   0.160   5.902   6.507  1.4108 -2.3067 -1.3522
14600TIP3   OH265214   4.195   2.150  15.360  0.8168  0.0662 -0.6253
14600TIP3    H165215   4.177   2.102  15.279 -1.3168 -1.2314  0.5392
14600TIP3    H265216   4.274   2.110  15.395 -0.3457 -1.9811 -0.2130
14601TIP3   OH265217   1.999   1.564  15.843  0.3265 -0.1439  0.5695
14601TIP3    H165218   1.973   1.530  15.758 -0.4013 -1.4370  1.2845
14601TIP3    H265219   1.992   1.659  15.834 -0.7198 -0.2983 -0.5055
14602TIP3   OH265220   5.229   4.354   1.760 -0.7534  0.0316 -0.3684
14602TIP3    H165221   5.247   4.429   1.702 -1.9471  1.0308  0.4866
14602TIP3    H265222   5.138   4.366   1.786 -0.3108 -0.4916  1.5506
14603TIP3   OH265223   6.700   4.593   0.072 -0.1818 -0.5906 -0.0330
14603TIP3    H165224   6.653   4.632  -0.001  1.4965  0.0890 -0.7960
14603TIP3    H265225   6.750   4.521   0.033  1.5847  0.4529  0.1728
14604TIP3   OH265226   0.976   2.971   0.404  0.2638  0.6124 -0.3469
14604TIP3    H165227   0.895   2.937   0.442 -0.3027  3.4714  1.2867
14604TIP3    H265228   0.949   3.004   0.318 -0.3390  1.5093  0.1669
14605TIP3   OH265229   1.160   5.760   1.452 -0.0342  0.0771  0.3621
14605TIP3    H165230   1.120   5.706   1.384 -1.1492  0.6467  0.5380
14605TIP3    H265231   1.194   5.836   1.405 -3.4477  1.9914  0.6446
14606TIP3   OH265232   3.338   2.814   4.494  0.1835  0.0415  0.0855
14606TIP3    H165233   3.413   2.804   4.552 -1.9841 -0.1029  3.0489
14606TIP3    H265234   3.297   2.727   4.492  1.1522 -0.5317 -3.3400
14607TIP3   OH265235   5.288   3.852  14.181 -0.6700  0.5935  0.0398
14607TIP3    H165236   5.285   3.773  14.127  0.2093  0.6424 -0.0915
14607TIP3    H265237   5.370   3.894  14.158 -0.2628  0.6138  1.4139
14608TIP3   OH265238   2.800   1.594  10.756  0.0524  0.1729 -0.4567
14608TIP3    H165239   2.837   1.611  10.670  0.7445  0.6866 -0.0653
14608TIP3    H265240   2.852   1.647  10.816 -2.1970  2.0756 -0.0176
14609TIP3   OH265241   1.238   2.671   2.272  0.2475 -0.4425  0.4655
14609TIP3    H165242   1.199   2.756   2.252 -1.7218 -1.3641  0.1173
14609TIP3    H265243   1.229   2.662   2.367 -1.8483 -1.2294  0.2607
14610TIP3   OH265244   1.991   5.994   1.360 -0.0661 -1.1106 -0.1244
14610TIP3    H165245   1.957   5.973   1.273  1.4758 -0.2233 -0.9846
14610TIP3    H265246   2.083   5.967   1.357  0.0282 -0.9841  1.2013
14611TIP3   OH265247   5.778   5.245   4.212 -0.0275  0.4688  0.2065
14611TIP3    H165248   5.809   5.160   4.243 -1.5097 -0.7820 -1.5159
14611TIP3    H265249   5.683   5.234   4.204  0.0315  1.1354 -3.0774
14612TIP3   OH265250   5.369   2.824  14.174 -0.1706  0.3880  0.0461
14612TIP3    H165251   5.458   2.855  14.158 -1.0333  3.5703  0.6868
14612TIP3    H265252   5.318   2.863  14.103 -1.2427 -0.5019  0.3015
14613TIP3   OH265253   3.085   3.860   4.050 -0.0399 -0.2225 -0.3861
14613TIP3    H165254   3.018   3.805   4.092 -0.4642  0.7378  0.2371
14613TIP3    H265255   3.168   3.824   4.081 -0.3192 -0.2650  0.3497
14614TIP3   OH265256   6.262   5.580  14.614 -0.0608  0.5420 -0.1581
14614TIP3    H165257   6.217   5.626  14.543 -1.3197 -1.4985 -0.7854
14614TIP3    H265258   6.302   5.504  14.571  1.2992  0.5858  0.9457
14615TIP3   OH265259   5.080   1.345   5.565 -0.8971  0.1364  0.2593
14615TIP3    H165260   5.040   1.420   5.522 -0.9154 -0.5765 -1.0225
14615TIP3    H265261   5.014   1.276   5.559 -0.0596 -0.6229 -0.5751
14616TIP3   OH265262   3.676   5.032  16.388  0.0545  0.4616  0.2911
14616TIP3    H165263   3.702   5.019  16.297 -0.1077  1.5526  0.0675
14616TIP3    H265264   3.689   4.947  16.430  0.9320  0.1677 -0.5509
14617TIP3   OH265265   1.948   2.890   2.094  0.0759 -0.0227  0.4822
14617TIP3    H165266   1.975   2.884   2.002  1.9904  1.5164  0.8931
14617TIP3    H265267   1.853   2.875   2.091 -0.4732  2.8484 -2.1762
14618TIP3   OH265268   0.574   4.096   3.547 -0.1889  0.1378  0.2670
14618TIP3    H165269   0.622   4.178   3.540  3.7867 -1.3917  4.4163
14618TIP3    H265270   0.503   4.114   3.607  1.1968  0.5160  1.8718
14619TIP3   OH265271   5.627   6.552  16.149  0.2538  0.3812 -0.4758
14619TIP3    H165272   5.602   6.490  16.081  0.7248  0.9011 -1.1289
14619TIP3    H265273   5.723   6.549  16.150  0.2487  0.1495  0.3853
14620TIP3   OH265274   0.988   4.291   2.977  0.3591  0.2291 -0.1468
14620TIP3    H165275   1.053   4.330   2.918  0.7676  0.5076  0.4730
14620TIP3    H265276   1.001   4.337   3.060 -0.2274 -0.1358  0.1515
14621TIP3   OH265277   2.766   2.477  12.196 -0.0658  0.2642  0.2594
14621TIP3    H165278   2.710   2.549  12.224  1.4577  2.0174 -0.9506
14621TIP3    H265279   2.744   2.463  12.104  0.9541  0.5326 -0.0477
14622TIP3   OH265280   5.513   1.255   3.684  0.5119  0.4134 -0.3657
14622TIP3    H165281   5.550   1.220   3.603  3.4766 -0.7696  1.3229
14622TIP3    H265282   5.497   1.348   3.665  0.2023 -0.0249 -2.5303
14623TIP3   OH265283   1.350   0.453   5.550  0.1266 -0.1909  0.1886
14623TIP3    H165284   1.428   0.399   5.561  0.4823  0.2113 -0.2955
14623TIP3    H265285   1.282   0.393   5.521 -0.3517 -0.9531  2.6052
14624TIP3   OH265286   3.557   2.710  10.852 -0.2757 -0.3155 -0.4517
14624TIP3    H165287   3.535   2.750  10.768 -0.0378 -2.1915 -1.4485
14624TIP3    H265288   3.473   2.680  10.887 -0.6611  2.1032  0.9517
14625TIP3   OH265289   1.966   0.518   2.325 -0.0700 -0.5159  0.3677
14625TIP3    H165290   2.011   0.565   2.395  0.8054 -0.4375 -0.2316
14625TIP3    H265291   2.026   0.521   2.251 -1.1809 -0.1650 -0.5566
14626TIP3   OH265292   5.083   2.621  16.558  0.0519 -0.0070 -0.2439
14626TIP3    H165293   5.068   2.621  16.652 -1.4901 -0.5532 -0.4548
14626TIP3    H265294   5.175   2.598  16.548  0.6463  1.5591  1.1584
14627TIP3   OH265295   2.844   5.038   5.030 -0.4077 -0.3621  1.0801
14627TIP3    H165296   2.858   4.975   4.959 -1.5836 -0.4200  0.8708
14627TIP3    H265297   2.909   5.106   5.016  0.0363 -0.8902  0.5502
14628TIP3   OH265298   0.664   0.912  12.049  0.1905  0.5596 -0.1091
14628TIP3    H165299   0.657   0.933  12.142  0.1761  0.5582 -0.1103
14628TIP3    H265300   0.696   0.993  12.009  0.0076  0.6200 -0.1320
14629TIP3   OH265301   0.334   1.008  13.022 -0.1376  0.1893 -0.1946
14629TIP3    H165302   0.301   0.918  13.023  0.0448  0.1115 -0.8356
14629TIP3    H265303   0.257   1.063  13.011 -0.0803  0.0104 -1.6647
14630TIP3   OH265304   2.724   5.655   3.706  0.1930 -0.5393  0.0965
14630TIP3    H165305   2.648   5.611   3.668  0.0439 -0.1064 -0.1150
14630TIP3    H265306   2.701   5.666   3.799 -0.6174  0.8546 -0.2444
14631TIP3   OH265307   2.561   3.434   6.167  0.1268  0.2440  0.5020
14631TIP3    H165308   2.650   3.421   6.198 -0.7026 -0.6005  2.7828
14631TIP3    H265309   2.522   3.347   6.168 -1.3103  0.8546  1.6206
14632TIP3   OH265310   3.027   5.519   1.112  0.2024  0.1744 -0.3092
14632TIP3    H165311   2.951   5.473   1.076  1.1392 -3.2331  1.7042
14632TIP3    H265312   3.100   5.492   1.056  0.6110 -0.0312  0.3171
14633TIP3   OH265313   5.075   2.016   4.676 -0.3124 -0.3410 -0.0508
14633TIP3    H165314   5.083   1.931   4.633 -0.0279  0.1605 -1.0382
14633TIP3    H265315   5.014   2.002   4.747 -1.6854 -0.9636 -1.3036
14634TIP3   OH265316   4.338   3.429  16.174  0.2048 -0.4375 -0.1125
14634TIP3    H165317   4.348   3.410  16.268  1.0845 -1.9168 -0.4719
14634TIP3    H265318   4.289   3.511  16.172  0.2366 -0.3219  1.6457
14635TIP3   OH265319   6.313   0.239   1.072  0.1404  0.0496 -0.5382
14635TIP3    H165320   6.360   0.287   1.004  1.4234 -0.5438 -0.0943
14635TIP3    H265321   6.371   0.167   1.096 -0.1690  0.3762  1.3482
14636TIP3   OH265322   0.598   2.919   3.047 -0.0671 -0.5801  0.3920
14636TIP3    H165323   0.584   2.830   3.016  0.2571  0.2241 -2.2854
14636TIP3    H265324   0.510   2.956   3.057 -0.2147 -0.1420 -2.0056
14637TIP3   OH265325   1.723   0.553  11.036  0.1821  0.1881  1.1398
14637TIP3    H165326   1.635   0.542  10.998 -0.4028  1.4700  2.0388
14637TIP3    H265327   1.753   0.637  11.002  1.3883 -0.5711  0.2717
14638TIP3   OH265328   0.599   4.817  13.095 -0.2120 -0.5122 -0.3828
14638TIP3    H165329   0.507   4.841  13.102  0.2423  0.8752  2.1899
14638TIP3    H265330   0.645   4.901  13.086  0.8904 -1.0228  0.2438
14639TIP3   OH265331   1.855   5.751   2.476  0.0098 -0.1675 -0.3403
14639TIP3    H165332   1.929   5.809   2.495  0.8899 -1.0794 -0.9169
14639TIP3    H265333   1.787   5.810   2.444  0.8155  0.5759 -0.7342
14640TIP3   OH265334   1.565   3.450  11.284 -0.6213  0.2254 -0.8541
14640TIP3    H165335   1.590   3.378  11.225 -0.1850 -1.0421  0.8139
14640TIP3    H265336   1.642   3.507  11.286  0.4153 -1.1306  0.4942
14641TIP3   OH265337   0.451   2.384   4.385 -0.2323  0.2398  0.1809
14641TIP3    H165338   0.545   2.402   4.383 -0.1165 -0.0866  1.6329
14641TIP3    H265339   0.412   2.461   4.426 -0.6999  0.6448 -0.9690
14642TIP3   OH265340   4.526   0.627   2.350  0.2020  0.5858 -0.3245
14642TIP3    H165341   4.445   0.666   2.380 -0.2093 -0.7937  0.4632
14642TIP3    H265342   4.595   0.676   2.396 -0.2433  0.9489 -0.0353
14643TIP3   OH265343   3.343   6.311  12.155 -0.3803 -0.1480  0.2442
14643TIP3    H165344   3.329   6.337  12.064 -1.7975 -0.0791  0.4547
14643TIP3    H265345   3.416   6.365  12.185 -0.6750  0.6893 -0.5109
14644TIP3   OH265346   1.567   0.542   0.782  0.6571  0.0558 -0.1498
14644TIP3    H165347   1.506   0.504   0.719  1.8563 -0.3946 -1.0730
14644TIP3    H265348   1.574   0.634   0.756 -1.5769  0.8118  1.5582
14645TIP3   OH265349   1.463   1.520  15.807 -0.2537 -0.1439  0.5439
14645TIP3    H165350   1.481   1.435  15.845 -0.1251 -0.0899  0.6032
14645TIP3    H265351   1.464   1.505  15.712  0.6541 -0.0345  0.5263
14646TIP3   OH265352   5.236   1.054   5.527  0.3408  0.1535  0.5208
14646TIP3    H165353   5.162   1.008   5.567 -1.7851  1.7708 -1.2860
14646TIP3    H265354   5.278   0.988   5.471 -1.2285 -0.2263 -0.2586
14647TIP3   OH265355   0.939   4.589   1.736 -0.0304  0.1128 -0.4708
14647TIP3    H165356   1.010   4.567   1.796  0.0450  0.7636 -0.3100
14647TIP3    H265357   0.982   4.619   1.656 -0.1067  0.9265 -0.2189
14648TIP3   OH265358   6.180   6.554   1.644 -0.2311  0.4422 -0.3284
14648TIP3    H165359   6.232   6.478   1.672 -0.2231  0.2600 -0.8223
14648TIP3    H265360   6.222   6.582   1.562 -1.3775 -0.2002 -1.1739
14649TIP3   OH265361   3.925   3.592   0.515 -0.1410 -0.2339 -0.2872
14649TIP3    H165362   4.018   3.610   0.502 -0.4321  0.5134 -1.4804
14649TIP3    H265363   3.887   3.678   0.535 -0.8134 -0.2739 -1.3589
14650TIP3   OH265364   0.995   5.795  12.086 -0.4809  0.2441  0.1407
14650TIP3    H165365   0.928   5.860  12.109 -4.1074 -4.2008  4.1439
14650TIP3    H265366   1.071   5.821  12.139 -1.5683  1.5959  1.1554
14651TIP3   OH265367   2.012   5.045  12.373 -0.1649 -0.0232  0.3740
14651TIP3    H165368   1.927   5.006  12.394  1.1422 -2.0466  2.2670
14651TIP3    H265369   2.034   5.097  12.450  0.6529 -0.1308  0.2177
14652TIP3   OH265370   4.902   2.229  16.212  0.3633 -0.5321 -0.6900
14652TIP3    H165371   4.816   2.200  16.245 -1.0375  0.4237 -3.2006
14652TIP3    H265372   4.904   2.323  16.231  0.1867 -0.2678 -1.9323
14653TIP3   OH265373   2.269   5.689   5.311  0.0253 -0.3468  0.3548
14653TIP3    H165374   2.212   5.758   5.277 -0.7807 -1.3939 -0.5046
14653TIP3    H265375   2.226   5.660   5.392 -0.3283 -0.6705  0.0612
14654TIP3   OH265376   4.597   0.375  16.145  0.5202 -0.1149  0.2692
14654TIP3    H165377   4.588   0.301  16.085 -1.1376  1.4751 -1.5951
14654TIP3    H265378   4.679   0.418  16.118  1.0675 -0.7758  0.8304
14655TIP3   OH265379   1.681   0.755  14.086 -0.3289 -0.6360  0.0969
14655TIP3    H165380   1.587   0.740  14.072 -0.5396  0.8624 -0.3581
14655TIP3    H265381   1.685   0.800  14.171  0.0030 -0.9233  0.2331
14656TIP3   OH265382   6.616   6.235  11.210  0.2637  0.0915  0.0570
14656TIP3    H165383   6.643   6.325  11.190  1.4085 -0.1929  0.2724
14656TIP3    H265384   6.690   6.181  11.183 -0.5501 -0.8338 -0.3997
14657TIP3   OH265385   0.580   0.905   4.450 -0.2340  0.2126 -0.2090
14657TIP3    H165386   0.526   0.866   4.519  1.1173 -1.1195  0.1644
14657TIP3    H265387   0.668   0.906   4.488  0.2917  0.7370 -1.4173
14658TIP3   OH265388   0.800   0.332  11.788  0.0782  0.1721  0.1979
14658TIP3    H165389   0.843   0.288  11.862 -3.4091 -0.1049  2.3102
14658TIP3    H265390   0.732   0.385  11.830 -0.2993  2.1934 -2.7365
14659TIP3   OH265391   3.893   4.251   1.604  0.3862  0.3635  0.3238
14659TIP3    H165392   3.918   4.166   1.640  0.7623  0.9196  1.4186
14659TIP3    H265393   3.945   4.314   1.654  0.2670  1.2233 -0.6144
14660TIP3   OH265394   1.968   3.381  12.301 -0.5962  0.5706  0.0744
14660TIP3    H165395   1.998   3.391  12.392 -0.1473  0.9125 -0.1064
14660TIP3    H265396   2.039   3.419  12.249 -1.5947  1.9231 -0.3489
14661TIP3   OH265397   3.944   5.184  16.343  0.2148 -0.6522  0.6145
14661TIP3    H165398   3.877   5.115  16.338  1.2717 -1.5937 -1.4488
14661TIP3    H265399   3.897   5.264  16.318 -0.7666 -0.7511  1.9827
14662TIP3   OH265400   4.999   4.271   2.164  0.2949  0.5282  0.5259
14662TIP3    H165401   4.982   4.298   2.074  0.5275 -2.7757 -0.6242
14662TIP3    H265402   4.911   4.258   2.202  0.0098 -2.7773 -0.9090
14663TIP3   OH265403   1.362   5.903  12.576  0.1544  0.5225  0.7300
14663TIP3    H165404   1.355   5.968  12.506  1.3294  1.6918  1.6361
14663TIP3    H265405   1.319   5.825  12.541  0.6625  1.0712 -1.2690
14664TIP3   OH265406   4.179   5.619   0.111  0.8017  0.2698  0.1494
14664TIP3    H165407   4.122   5.545   0.132 -0.4217  0.8839 -0.8505
14664TIP3    H265408   4.256   5.607   0.166  0.6616 -1.7658 -0.0350
14665TIP3   OH265409   2.617   2.003  16.880  0.1643  0.0456  0.1053
14665TIP3    H165410   2.639   1.959  16.798 -2.7899 -3.0633  0.7555
14665TIP3    H265411   2.611   1.932  16.944 -2.5027  1.6722  1.8598
14666TIP3   OH265412   3.740   3.728   2.435 -0.5514  0.1274 -0.3531
14666TIP3    H165413   3.777   3.652   2.390 -0.7570 -0.6203  0.6990
14666TIP3    H265414   3.800   3.744   2.508 -0.2443  1.2919 -0.8368
14667TIP3   OH265415   5.561   6.116   0.961  0.6325  0.3666  0.5702
14667TIP3    H165416   5.631   6.124   0.896 -0.4736 -0.5328 -0.7783
14667TIP3    H265417   5.573   6.029   0.999  0.2943  0.2421  0.3929
14668TIP3   OH265418   0.195   2.071   3.490 -0.2645 -0.6261 -0.2285
14668TIP3    H165419   0.116   2.041   3.444  0.1359 -0.2208 -1.2147
14668TIP3    H265420   0.169   2.154   3.530 -0.3075 -0.4068 -0.6956
14669TIP3   OH265421   1.712   2.061  14.417 -0.3689 -0.3893 -0.1094
14669TIP3    H165422   1.780   2.077  14.352 -0.4501 -1.5193 -0.5133
14669TIP3    H265423   1.632   2.052  14.365 -0.3319 -1.9390  0.0452
14670TIP3   OH265424   0.464   5.029  16.273 -0.3310 -0.0367  0.3325
14670TIP3    H165425   0.559   5.018  16.268 -0.3789 -0.6857  0.7016
14670TIP3    H265426   0.450   5.093  16.343 -0.1819 -0.2282  0.5373
14671TIP3   OH265427   0.274   3.021   2.691  0.4117  1.2763 -0.0285
14671TIP3    H165428   0.360   3.015   2.649 -0.1756  2.0400 -1.4255
14671TIP3    H265429   0.214   2.981   2.628 -0.2199  0.3531  1.1162
14672TIP3   OH265430   4.828   2.233  15.106 -0.5096  0.2492  0.7894
14672TIP3    H165431   4.873   2.312  15.075 -0.9213  0.9563  1.9539
14672TIP3    H265432   4.738   2.243  15.075 -0.6478  0.4089  1.2401
14673TIP3   OH265433   2.151   3.277   5.054 -0.2446  0.2930 -0.2138
14673TIP3    H165434   2.117   3.197   5.094  0.7567  0.1183  0.3035
14673TIP3    H265435   2.167   3.253   4.963  0.9992 -0.4004  0.1697
14674TIP3   OH265436   1.474   1.696   3.479  0.2369  0.3682 -0.0737
14674TIP3    H165437   1.457   1.744   3.561  0.2553 -2.1645  1.5337
14674TIP3    H265438   1.548   1.741   3.440  0.0461  1.8446  1.1506
14675TIP3   OH265439   0.604   3.950   2.469 -0.1861 -0.0179  0.2021
14675TIP3    H165440   0.568   3.904   2.545 -2.5853  0.3695 -0.6247
14675TIP3    H265441   0.682   3.899   2.445 -0.6825 -1.4753  1.5260
14676TIP3   OH265442   5.979   1.702   5.848  0.2781 -0.1466  0.5223
14676TIP3    H165443   5.994   1.705   5.943  1.7298 -0.0460  0.3133
14676TIP3    H265444   6.053   1.651   5.814 -1.3583 -2.0762 -0.3509
14677TIP3   OH265445   3.376   5.933  14.892 -0.0468 -0.3949  0.8097
14677TIP3    H165446   3.376   5.886  14.976  1.4985  3.2010  3.0639
14677TIP3    H265447   3.320   6.009  14.908  1.4542  1.1393 -0.9367
14678TIP3   OH265448   5.368   4.489   0.895  0.1919  0.4817 -0.1118
14678TIP3    H165449   5.414   4.494   0.811  0.9047 -2.1032  0.0359
14678TIP3    H265450   5.358   4.395   0.911 -1.2333  0.9335  2.0109
14679TIP3   OH265451   2.168   1.198  16.575 -0.4016 -0.6577  0.2208
14679TIP3    H165452   2.103   1.192  16.505  0.3782  0.4404 -0.6172
14679TIP3    H265453   2.252   1.198  16.530  0.1572 -1.0757  1.2375
14680TIP3   OH265454   1.903   4.256  15.642 -0.2372 -0.7049  0.3392
14680TIP3    H165455   1.841   4.300  15.700 -2.3787 -1.8495 -0.9504
14680TIP3    H265456   1.878   4.164  15.646  0.7600 -1.0631 -0.9750
14681TIP3   OH265457   2.656   1.906  13.230  0.2232  0.3262 -0.2516
14681TIP3    H165458   2.575   1.929  13.277 -0.3272 -0.2934 -0.8734
14681TIP3    H265459   2.675   1.817  13.257  2.3093  1.3526  2.0832
14682TIP3   OH265460   3.205   6.816   2.421  0.2410 -0.0752 -0.3998
14682TIP3    H165461   3.117   6.835   2.387 -0.0614 -1.5873 -0.5131
14682TIP3    H265462   3.258   6.890   2.392 -0.8016  0.4532 -1.0416
14683TIP3   OH265463   4.559   5.514   2.600  0.5646  0.3425  0.2077
14683TIP3    H165464   4.526   5.491   2.513 -0.3762 -0.4187  0.7452
14683TIP3    H265465   4.628   5.578   2.583  1.9921 -1.4434 -1.2554
14684TIP3   OH265466   5.647   3.995   3.458  0.3459  0.0039 -0.0205
14684TIP3    H165467   5.646   3.967   3.549  0.6774 -0.1095 -0.0516
14684TIP3    H265468   5.645   3.914   3.408  4.5933 -0.2206 -0.1435
14685TIP3   OH265469   4.706   2.216   3.248 -0.1802 -0.0255 -0.1409
14685TIP3    H165470   4.694   2.122   3.240 -0.0534 -0.0411 -0.1488
14685TIP3    H265471   4.759   2.240   3.173 -1.4120  0.2769 -0.9428
14686TIP3   OH265472   1.246   1.891   2.052 -0.8009 -0.6772 -0.3556
14686TIP3    H165473   1.304   1.817   2.067 -1.6047 -1.2143  0.1468
14686TIP3    H265474   1.169   1.873   2.105 -0.1634  1.5140  1.4697
14687TIP3   OH265475   2.704   3.698   1.817  0.4590 -0.7710 -0.0056
14687TIP3    H165476   2.707   3.771   1.755  1.8673 -0.8191 -0.0215
14687TIP3    H265477   2.626   3.714   1.869  1.8808  2.0542  1.4949
14688TIP3   OH265478   5.528   6.221  13.002 -0.1243  0.0678 -0.4044
14688TIP3    H165479   5.571   6.243  12.919  1.3679  0.4341  0.4360
14688TIP3    H265480   5.555   6.131  13.020 -1.2626 -0.3697 -0.7883
14689TIP3   OH265481   1.044   1.873  16.658  0.0228  0.2868 -0.6218
14689TIP3    H165482   0.974   1.807  16.657 -0.2020  0.5044 -2.5626
14689TIP3    H265483   1.071   1.878  16.750 -3.1967  0.9418  0.3998
14690TIP3   OH265484   0.023   1.694  13.041  0.2526 -0.2472 -0.4488
14690TIP3    H165485   0.023   1.693  12.945 -1.9138 -0.1549 -0.4935
14690TIP3    H265486  -0.067   1.673  13.065  0.4325  1.0389  1.5635
14691TIP3   OH265487   0.129   5.825  14.044 -0.0446  0.1413 -0.5212
14691TIP3    H165488   0.037   5.804  14.031  0.0648  0.7216 -2.6291
14691TIP3    H265489   0.174   5.785  13.969  1.6152 -1.1127  1.0350
14692TIP3   OH265490   1.823   3.941   5.343  0.2639  0.2683 -0.4271
14692TIP3    H165491   1.806   3.851   5.373 -0.9689  0.1183 -1.4802
14692TIP3    H265492   1.893   3.931   5.277 -0.3065 -0.0251 -1.0058
14693TIP3   OH265493   5.164   6.288   2.386 -1.0764  0.1282  0.1936
14693TIP3    H165494   5.216   6.255   2.312 -1.4889  0.5391 -0.2880
14693TIP3    H265495   5.095   6.340   2.345 -1.5582  0.0195  0.8522
14694TIP3   OH265496   6.067   3.193   0.450  0.3578 -0.3603  0.1953
14694TIP3    H165497   6.122   3.258   0.406  1.6089 -1.1814  0.5149
14694TIP3    H265498   6.002   3.168   0.383  0.7847  0.1224 -0.4146
14695TIP3   OH265499   4.532   1.514   3.941 -0.0963  0.5308 -0.2729
14695TIP3    H165500   4.479   1.549   3.871 -0.1070 -1.1815 -1.1864
14695TIP3    H265501   4.620   1.505   3.903  0.6272  2.2611  0.8608
14696TIP3   OH265502   2.797   6.743  13.044  0.0742 -0.5929 -0.4512
14696TIP3    H165503   2.788   6.719  12.952  1.8858 -1.9427 -0.3394
14696TIP3    H265504   2.788   6.660  13.091 -2.0482  0.2492  0.7252
14697TIP3   OH265505   6.519   1.480   2.206 -0.5044 -0.3952 -0.0389
14697TIP3    H165506   6.475   1.414   2.260 -2.5897  1.8168  1.1325
14697TIP3    H265507   6.481   1.468   2.119 -0.4232 -1.0878  0.0086
14698TIP3   OH265508   2.407   6.086   2.007  0.5533 -0.1404  0.3597
14698TIP3    H165509   2.390   6.059   1.916  0.0055  1.9169 -0.2112
14698TIP3    H265510   2.490   6.135   2.002 -0.1438  1.1150  0.6872
14699TIP3   OH265511   6.198   0.907  13.995 -0.5820 -0.1292 -0.4048
14699TIP3    H165512   6.141   0.974  13.957 -1.3030  0.0350  0.9338
14699TIP3    H265513   6.167   0.825  13.956 -1.7744 -0.0459  0.3431
14700TIP3   OH265514   5.870   1.542   3.162  0.3876  0.0826  0.1857
14700TIP3    H165515   5.837   1.629   3.185  0.0144 -0.0960  0.3340
14700TIP3    H265516   5.812   1.512   3.092 -0.9095 -0.9640  1.6355
14701TIP3   OH265517   1.588   0.750  13.375 -0.0892  0.3319  0.0224
14701TIP3    H165518   1.607   0.819  13.439 -0.3997 -0.4032  0.9289
14701TIP3    H265519   1.672   0.707  13.362 -0.2250 -0.1901  0.7676
14702TIP3   OH265520   2.510   4.387  13.679  0.0729 -0.2561  0.1216
14702TIP3    H165521   2.525   4.331  13.603 -0.9345 -1.7805  0.9959
14702TIP3    H265522   2.475   4.468  13.643  3.0221  0.5272 -1.3278
14703TIP3   OH265523   2.636   4.074   2.204 -0.5096  0.0287 -0.1113
14703TIP3    H165524   2.711   4.015   2.205  0.7274  1.5468  0.5825
14703TIP3    H265525   2.602   4.067   2.114  3.1455  2.4609 -1.9406
14704TIP3   OH265526   5.958   4.060  11.645  0.6140  0.0892 -0.5964
14704TIP3    H165527   5.896   4.112  11.595  0.7355  0.1151 -0.7212
14704TIP3    H265528   6.039   4.111  11.644  0.0930  1.0503  1.2919
14705TIP3   OH265529   2.649   0.754   0.165  0.3123  0.1984  0.3768
14705TIP3    H165530   2.653   0.841   0.206 -1.6068  0.5267 -0.0499
14705TIP3    H265531   2.740   0.724   0.165  1.2552  2.7181 -0.5383
14706TIP3   OH265532   4.029   3.018  14.680  0.1245 -0.2799 -0.0705
14706TIP3    H165533   4.039   3.109  14.654 -0.5742 -0.3198 -0.5187
14706TIP3    H265534   4.092   2.971  14.625  0.5826 -0.0542  0.2607
14707TIP3   OH265535   5.733   0.930   0.364 -0.3748  0.0555 -0.1332
14707TIP3    H165536   5.756   0.995   0.297  2.1358 -0.9414 -0.3220
14707TIP3    H265537   5.817   0.903   0.400 -1.5152 -1.5935  1.3881
14708TIP3   OH265538   4.704   5.472  14.777  0.1843  0.4821  0.1742
14708TIP3    H165539   4.703   5.534  14.850 -1.1338  0.1303  0.4836
14708TIP3    H265540   4.793   5.436  14.777  0.3855  0.9403  1.2207
14709TIP3   OH265541   2.005   1.266  14.076 -0.4458  0.2361 -0.4658
14709TIP3    H165542   2.099   1.282  14.078 -0.2497 -0.5852 -1.9386
14709TIP3    H265543   1.970   1.334  14.019 -0.5173 -0.3826 -1.1815
14710TIP3   OH265544   4.387   3.471   6.143 -0.1859 -0.4992 -0.7008
14710TIP3    H165545   4.365   3.388   6.185 -2.4431 -0.7171 -2.1075
14710TIP3    H265546   4.473   3.456   6.105  0.4805 -1.3596  1.0509
14711TIP3   OH265547   5.659   1.938   5.480  0.0587 -0.1047 -0.2079
14711TIP3    H165548   5.651   1.989   5.561  0.6705  0.1661 -0.3152
14711TIP3    H265549   5.739   1.970   5.439  3.1029 -4.1257  1.8593
14712TIP3   OH265550   5.640   4.506  14.947 -0.2285 -0.1243  0.1724
14712TIP3    H165551   5.623   4.418  14.914 -1.6459  0.2034 -0.0280
14712TIP3    H265552   5.562   4.528  14.999 -0.2474  1.3079 -0.4102
14713TIP3   OH265553   0.674   6.147   1.484  0.1541 -0.7934 -0.1006
14713TIP3    H165554   0.740   6.179   1.546  0.1915 -1.4286  0.1917
14713TIP3    H265555   0.624   6.226   1.460 -0.8595 -0.7447  1.9166
14714TIP3   OH265556   4.591   1.345  14.434 -0.3625  0.2861 -0.0757
14714TIP3    H165557   4.514   1.292  14.415  0.8441 -1.6426  0.2126
14714TIP3    H265558   4.633   1.357  14.349  0.3708 -0.8659  0.1115
14715TIP3   OH265559   5.058   1.863  15.428 -0.7673 -0.4538  0.1794
14715TIP3    H165560   5.046   1.842  15.520 -1.1470 -1.8910 -0.1699
14715TIP3    H265561   5.002   1.800  15.381  0.8516 -1.0235 -1.0915
14716TIP3   OH265562   3.530   6.373   1.926  0.0914 -0.3522  0.4047
14716TIP3    H165563   3.473   6.434   1.880  1.3268 -0.7522 -1.7935
14716TIP3    H265564   3.538   6.298   1.866  2.7994 -0.3506  0.6661
14717TIP3   OH265565   5.955   4.883   1.262 -0.3672 -0.0383  0.5406
14717TIP3    H165566   5.947   4.843   1.176 -0.7378  2.3057 -0.6132
14717TIP3    H265567   5.896   4.832   1.318 -1.1988 -0.7586 -0.9283
14718TIP3   OH265568   0.865   0.860  13.786 -0.3362  0.0966 -0.5215
14718TIP3    H165569   0.905   0.872  13.872 -0.5056 -0.8702 -0.2929
14718TIP3    H265570   0.794   0.924  13.784  0.5387  1.1065 -0.5191
14719TIP3   OH265571   6.635   2.804   3.979 -0.1557 -0.5822 -0.2602
14719TIP3    H165572   6.561   2.744   3.971 -0.8266 -0.0411  1.5785
14719TIP3    H265573   6.688   2.786   3.901 -0.6356 -3.1356 -0.0898
14720TIP3   OH265574   4.264   5.233  13.591  0.3700  0.6623  0.2297
14720TIP3    H165575   4.170   5.238  13.574  0.2891 -0.7263  0.1192
14720TIP3    H265576   4.302   5.208  13.506  0.5213 -1.3843  0.8490
14721TIP3   OH265577   6.274   0.644  15.358  0.3499  0.1584 -0.1601
14721TIP3    H165578   6.249   0.707  15.290  1.4182  0.4861 -0.2795
14721TIP3    H265579   6.348   0.596  15.320  0.2209 -0.4493  0.3368
14722TIP3   OH265580   2.633   4.098   4.278 -0.2043  1.0230 -0.4550
14722TIP3    H165581   2.666   4.018   4.236 -2.1024  0.5497 -1.1682
14722TIP3    H265582   2.712   4.149   4.297  1.1573 -1.3499  0.7970
14723TIP3   OH265583   4.981   4.089  14.546 -0.1264  0.2008 -0.3879
14723TIP3    H165584   4.924   4.089  14.624 -0.0053  1.0710 -0.2908
14723TIP3    H265585   4.952   4.013  14.496  1.5164 -2.0011  1.7414
14724TIP3   OH265586   6.153   0.222  14.037 -0.0305 -0.4395  0.2277
14724TIP3    H165587   6.152   0.316  14.056 -0.3652 -0.8861  2.8274
14724TIP3    H265588   6.066   0.204  14.000 -0.0606  0.2122 -0.0296
14725TIP3   OH265589   0.819   5.463   0.872  0.3524 -0.5092 -0.1418
14725TIP3    H165590   0.845   5.504   0.790 -1.5066 -0.1993 -0.6258
14725TIP3    H265591   0.868   5.510   0.939  1.7429 -0.6269 -1.0522
14726TIP3   OH265592   3.152   0.206   6.007 -0.0640  0.5140  0.2684
14726TIP3    H165593   3.231   0.226   5.958 -0.7325  0.2498 -0.9584
14726TIP3    H265594   3.175   0.129   6.059  0.1055 -0.3999 -1.0963
14727TIP3   OH265595   6.357   2.873   4.661 -0.7523  0.0481  0.0324
14727TIP3    H165596   6.281   2.831   4.701  0.6168 -0.8505  1.8659
14727TIP3    H265597   6.417   2.800   4.642  0.6255  0.9117  0.8883
14728TIP3   OH265598   4.237   4.474   4.967 -0.1156 -0.0512 -0.1974
14728TIP3    H165599   4.205   4.521   5.044 -0.0291 -1.5436  0.7868
14728TIP3    H265600   4.318   4.433   4.996  1.3629  1.4956 -1.8828
14729TIP3   OH265601   0.865   0.287  13.965  0.3643  0.2457  0.8276
14729TIP3    H165602   0.825   0.253  13.885  0.8907  0.4712  0.4634
14729TIP3    H265603   0.862   0.382  13.954  0.6983  0.2701  0.9469
14730TIP3   OH265604   3.990   5.835  15.445 -0.4660 -0.5744 -0.2973
14730TIP3    H165605   4.046   5.833  15.367  0.4962 -1.8185  0.3850
14730TIP3    H265606   3.906   5.866  15.413  0.4760  0.9239 -1.4465
14731TIP3   OH265607   2.023   2.410  14.678  0.2175 -0.1219 -0.2012
14731TIP3    H165608   2.009   2.472  14.749 -0.0663  0.1259 -0.4715
14731TIP3    H265609   2.044   2.327  14.722  1.2289  0.3062  0.1588
14732TIP3   OH265610   1.146   2.729  12.450  0.3117  0.2496  0.2420
14732TIP3    H165611   1.122   2.637  12.437  0.3288  0.2260  0.3830
14732TIP3    H265612   1.074   2.766  12.501  1.0937 -0.0850  1.6091
14733TIP3   OH265613   1.572   1.553  14.800  0.4596  0.7084  0.2831
14733TIP3    H165614   1.579   1.640  14.840 -0.2946  0.2410  1.4968
14733TIP3    H265615   1.479   1.531  14.805  0.7270 -0.4443  0.6064
14734TIP3   OH265616   3.364   1.606  15.739  1.0782 -0.7276 -0.3934
14734TIP3    H165617   3.440   1.626  15.684  1.4809 -0.2839  0.3122
14734TIP3    H265618   3.343   1.689  15.782  1.4142 -1.2919  0.9195
14735TIP3   OH265619   6.811   4.115   3.093  0.1346  0.0249  0.3251
14735TIP3    H165620   6.785   4.054   3.024  0.9395  1.0095 -0.8900
14735TIP3    H265621   6.895   4.081   3.125 -0.4157 -0.6410  1.1231
14736TIP3   OH265622   1.134   3.004   2.644  0.1265 -0.0054 -0.2980
14736TIP3    H165623   1.157   3.089   2.682  2.3142 -0.3276 -0.7158
14736TIP3    H265624   1.159   2.940   2.711 -1.5364 -0.3501  0.0275
14737TIP3   OH265625   6.674   3.161  15.358  0.7439 -0.5319  0.0589
14737TIP3    H165626   6.619   3.239  15.353  1.2186 -0.1527  0.6518
14737TIP3    H265627   6.651   3.120  15.442  0.6653 -0.9083 -0.1429
14738TIP3   OH265628   1.220   5.425  13.691 -0.2985 -0.0663  0.1904
14738TIP3    H165629   1.287   5.478  13.735  0.7329 -2.1163  1.2137
14738TIP3    H265630   1.140   5.477  13.697  0.5250  1.0982  1.6719
14739TIP3   OH265631   2.979   5.749   3.309  0.0549  0.5964 -0.4078
14739TIP3    H165632   2.984   5.653   3.318  1.7423  0.6136 -0.8434
14739TIP3    H265633   2.904   5.774   3.363 -0.6535 -1.0084 -0.5846
14740TIP3   OH265634   6.721   6.783   3.794 -0.4584  0.4258  0.2654
14740TIP3    H165635   6.733   6.874   3.767 -0.1072  0.7897  1.5914
14740TIP3    H265636   6.779   6.772   3.870 -1.9763 -0.3291  1.3592
14741TIP3   OH265637   2.552   0.616  14.219  0.5352  0.0874 -0.2911
14741TIP3    H165638   2.585   0.579  14.137  1.1609 -0.7554  0.3261
14741TIP3    H265639   2.588   0.559  14.287 -1.4460 -0.3229  0.4740
14742TIP3   OH265640   6.427   5.639   3.626  0.7895 -0.2697  0.3532
14742TIP3    H165641   6.424   5.652   3.721  1.1897 -1.3742  0.5336
14742TIP3    H265642   6.357   5.577   3.608  0.9148 -0.3011 -0.0291
14743TIP3   OH265643   4.112   1.718   0.191 -0.1445 -0.1240 -0.3574
14743TIP3    H165644   4.200   1.698   0.225 -0.1421 -1.5072 -1.1258
14743TIP3    H265645   4.098   1.810   0.216  1.2842 -0.0397  0.2690
14744TIP3   OH265646   4.682   6.246  13.696 -0.6730  0.3609  0.2162
14744TIP3    H165647   4.652   6.164  13.737  0.7983 -0.9859 -1.2646
14744TIP3    H265648   4.664   6.235  13.603  0.7552  1.1384 -0.1877
14745TIP3   OH265649   3.234   0.403  17.060  0.5299  0.3521 -0.2523
14745TIP3    H165650   3.272   0.316  17.058 -0.6182 -0.1721 -0.1268
14745TIP3    H265651   3.168   0.403  16.991  0.1625  0.9459  0.0860
14746TIP3   OH265652   0.084   2.850  13.206 -0.0275 -0.4604  0.4033
14746TIP3    H165653  -0.009   2.860  13.184 -0.4538 -2.0130  1.3205
14746TIP3    H265654   0.090   2.762  13.243  1.5760  0.1013  1.5719
14747TIP3   OH265655   3.891   5.968   2.253 -0.2781 -0.2925  0.3533
14747TIP3    H165656   3.910   5.895   2.313 -1.6309 -0.1598  0.9730
14747TIP3    H265657   3.872   5.925   2.170 -0.8028 -0.6528  0.6484
14748TIP3   OH265658   4.472   2.382   1.933  0.0021 -0.1272  0.2029
14748TIP3    H165659   4.436   2.466   1.905 -0.0590  0.0437  0.7926
14748TIP3    H265660   4.535   2.360   1.864  0.6924  0.8492  0.4979
14749TIP3   OH265661   4.090   2.638  14.191 -0.0833 -0.6732 -0.2541
14749TIP3    H165662   4.113   2.653  14.099 -0.2758 -1.9471 -0.5266
14749TIP3    H265663   4.151   2.571  14.221  1.0075  0.8353  1.0359
14750TIP3   OH265664   0.936   6.728   5.700  0.2440  0.0463  0.0851
14750TIP3    H165665   0.912   6.761   5.613 -2.2879 -1.6307  0.0368
14750TIP3    H265666   0.890   6.785   5.761  0.3987  0.0223  0.2239
14751TIP3   OH265667   3.385   4.527   6.475 -0.3360  0.2504  0.7327
14751TIP3    H165668   3.389   4.545   6.569 -0.7495 -2.1792  1.2792
14751TIP3    H265669   3.296   4.495   6.461  0.4982 -1.9515  0.0653
14752TIP3   OH265670   3.311   3.779   0.947 -0.5524 -0.0284  0.3829
14752TIP3    H165671   3.373   3.767   0.875 -1.0126  2.2476 -0.4898
14752TIP3    H265672   3.352   3.736   1.022  0.7231 -1.0191 -0.8288
14753TIP3   OH265673   1.303   5.560   4.949  0.0209 -0.1613  0.0055
14753TIP3    H165674   1.261   5.640   4.919 -0.2908  0.1286  1.1603
14753TIP3    H265675   1.266   5.491   4.894  0.1839  0.4528 -0.8990
14754TIP3   OH265676   4.375   3.417  11.267 -0.4698 -0.4107  0.4151
14754TIP3    H165677   4.359   3.509  11.285  1.3755 -0.1340  0.8240
14754TIP3    H265678   4.365   3.373  11.352 -2.0900 -0.7374  0.0871
14755TIP3   OH265679   1.449   4.977   1.620  0.3200 -0.6880  0.2698
14755TIP3    H165680   1.387   4.952   1.552 -0.0121 -0.9752  0.6745
14755TIP3    H265681   1.436   4.913   1.689  0.6761 -0.4155  0.5929
14756TIP3   OH265682   5.450   6.647   2.670  0.1180  0.4308 -0.2089
14756TIP3    H165683   5.415   6.558   2.667 -1.0104  0.8748 -0.4148
14756TIP3    H265684   5.399   6.696   2.606 -0.6158  1.6917  1.2656
14757TIP3   OH265685   5.424   0.117   2.589  0.2495  0.3931 -0.4221
14757TIP3    H165686   5.458   0.061   2.519 -0.0981  0.7891 -0.9187
14757TIP3    H265687   5.424   0.205   2.552  0.3984  0.6635  0.2052
14758TIP3   OH265688   0.978   4.879  12.946 -0.2971  0.4914  0.4607
14758TIP3    H165689   0.917   4.809  12.969 -1.4918  0.8134 -1.4490
14758TIP3    H265690   0.967   4.890  12.851  1.6370  1.6153  0.3121
14759TIP3   OH265691   6.564   3.306  11.271 -0.1551 -0.1032  0.2191
14759TIP3    H165692   6.567   3.308  11.176  2.2945  2.2475  0.2079
14759TIP3    H265693   6.471   3.308  11.293 -0.7543  0.1053 -2.1180
14760TIP3   OH265694   1.182   3.872   5.362  0.3176  0.4776 -0.5007
14760TIP3    H165695   1.229   3.928   5.301  0.8154  0.8492  0.2124
14760TIP3    H265696   1.250   3.836   5.419  0.0051 -0.7952 -0.8845
14761TIP3   OH265697   5.546   4.975  14.985  0.4083 -0.2399 -0.2369
14761TIP3    H165698   5.606   5.004  15.054  1.1664  0.5285 -1.2050
14761TIP3    H265699   5.586   4.896  14.949  0.7839  0.2016 -0.7978
14762TIP3   OH265700   0.819   6.434   0.583 -0.0769 -0.0020  0.1279
14762TIP3    H165701   0.828   6.529   0.588 -0.4724  0.0404  0.0632
14762TIP3    H265702   0.727   6.417   0.600 -0.3808 -0.2309 -1.5504
14763TIP3   OH265703   1.969   5.940  11.597  0.0085  0.2831 -0.3488
14763TIP3    H165704   2.062   5.963  11.596  0.1614 -0.2623  0.3976
14763TIP3    H265705   1.967   5.851  11.562  0.1318 -0.8338  2.2369
14764TIP3   OH265706   0.718   3.298  16.063  0.1161 -0.2052 -0.3020
14764TIP3    H165707   0.712   3.321  16.156  2.6139 -1.3700  0.2304
14764TIP3    H265708   0.711   3.382  16.018 -0.1900  0.4965  0.9864
14765TIP3   OH265709   5.118   4.716   6.137  0.2411  0.4841 -0.3819
14765TIP3    H165710   5.066   4.668   6.201  1.7536  0.1923  0.6916
14765TIP3    H265711   5.135   4.801   6.179  2.9778 -0.4556  0.5841
14766TIP3   OH265712   5.190   0.037  11.360  0.4239  0.2087 -0.3026
14766TIP3    H165713   5.099   0.060  11.380  1.1121  0.3442  3.3493
14766TIP3    H265714   5.191  -0.059  11.357  0.1280  0.2144 -0.6266
14767TIP3   OH265715   0.886   3.711   1.512 -0.5424 -0.4341  0.1676
14767TIP3    H165716   0.830   3.634   1.509 -1.0577 -0.1103  1.0739
14767TIP3    H265717   0.833   3.781   1.476 -0.3150 -0.3606 -0.0281
14768TIP3   OH265718   4.125   6.477  15.990 -1.0316  0.1850  0.1101
14768TIP3    H165719   4.097   6.387  15.976 -0.9173 -0.2626  2.3837
14768TIP3    H265720   4.221   6.472  15.999 -1.0954  0.3935  1.0142
14769TIP3   OH265721   4.625   0.435  10.582 -0.0352 -0.3654 -0.6320
14769TIP3    H165722   4.543   0.437  10.533 -0.8531  1.0931  0.6752
14769TIP3    H265723   4.608   0.491  10.658  1.7731 -1.0397  0.3293
14770TIP3   OH265724   6.008   1.225  11.407  0.4676 -0.0811  0.1883
14770TIP3    H165725   5.993   1.256  11.496  2.8246 -0.2555  0.6958
14770TIP3    H265726   5.996   1.130  11.412 -0.1073 -0.0199  0.1238
14771TIP3   OH265727   1.084   3.407   5.340 -0.7520  0.1541 -0.4685
14771TIP3    H165728   1.021   3.347   5.381 -2.2103  0.5835 -2.0162
14771TIP3    H265729   1.159   3.351   5.318 -1.2754 -0.7056 -0.1179
14772TIP3   OH265730   2.485   1.844   0.249 -0.0161 -0.1435  0.2677
14772TIP3    H165731   2.541   1.773   0.215 -0.3909 -0.5280  0.4453
14772TIP3    H265732   2.429   1.867   0.175  1.1329  1.0436 -0.2857
14773TIP3   OH265733   0.743   1.310  10.998 -0.7001 -0.5739 -0.5786
14773TIP3    H165734   0.675   1.316  11.065  0.4115 -0.3810  0.5715
14773TIP3    H265735   0.822   1.342  11.041 -0.3869  1.8020 -2.6706
14774TIP3   OH265736   2.852   1.448   5.814  0.7419 -0.3957 -0.2943
14774TIP3    H165737   2.874   1.429   5.905 -0.8487  0.1047  0.2301
14774TIP3    H265738   2.768   1.405   5.799  1.2118 -0.8794 -1.6892
14775TIP3   OH265739   5.665   1.768   0.374 -0.0896 -0.5285 -0.4051
14775TIP3    H165740   5.577   1.806   0.380 -0.8934 -2.5063  3.4694
14775TIP3    H265741   5.652   1.686   0.325 -0.5897 -1.1493  0.7394
14776TIP3   OH265742   6.648   6.638  16.151  0.2028 -0.3605 -0.4284
14776TIP3    H165743   6.649   6.732  16.129  2.9236  0.2049  1.5677
14776TIP3    H265744   6.566   6.626  16.198  0.6501  1.5566  0.9987
14777TIP3   OH265745   3.900   5.353  16.576 -0.5464  0.2528  0.7508
14777TIP3    H165746   3.926   5.397  16.495 -1.1839 -1.4010 -0.4060
14777TIP3    H265747   3.947   5.270  16.575  0.4853  0.7366  2.7849
14778TIP3   OH265748   2.715   5.781   0.210  0.3580  0.1462  0.3720
14778TIP3    H165749   2.668   5.863   0.192  0.3818 -0.0931 -0.8428
14778TIP3    H265750   2.648   5.713   0.202  0.3739  0.0116  1.2184
14779TIP3   OH265751   5.554   4.485  15.901  0.0333 -0.6699 -0.0617
14779TIP3    H165752   5.509   4.448  15.977 -0.2362  1.0651  0.6668
14779TIP3    H265753   5.623   4.540  15.938 -1.5403  2.0567 -0.9239
14780TIP3   OH265754   1.998   1.757   0.258 -0.0055 -0.0353 -0.8254
14780TIP3    H165755   2.037   1.730   0.175  1.8640  1.0790 -0.3764
14780TIP3    H265756   1.963   1.844   0.242 -2.1739 -0.8932 -1.1290
14781TIP3   OH265757   5.665   4.122  16.106 -0.0669 -0.3702  1.0365
14781TIP3    H165758   5.631   4.095  16.021  1.3879 -1.4658  0.7756
14781TIP3    H265759   5.643   4.049  16.164  0.1131 -0.2083  1.3091
14782TIP3   OH265760   1.327   0.311   2.530  0.8555  0.5688 -0.1613
14782TIP3    H165761   1.353   0.237   2.474  0.4124  0.5633 -0.3585
14782TIP3    H265762   1.346   0.389   2.477  0.3340  0.5603 -0.3683
14783TIP3   OH265763   0.838   6.144   2.075  0.4006  0.1988 -0.0395
14783TIP3    H165764   0.813   6.152   1.982 -1.4385  0.0467  0.3986
14783TIP3    H265765   0.830   6.233   2.109  3.1330  0.6876 -0.4365
14784TIP3   OH265766   1.603   6.345  13.112  0.0482  0.5168 -0.4060
14784TIP3    H165767   1.687   6.381  13.086  0.0153  0.0317 -1.2330
14784TIP3    H265768   1.544   6.366  13.039 -0.3532  0.1730 -0.1871
14785TIP3   OH265769   4.724   2.390  16.887  0.5440 -0.0412  0.4312
14785TIP3    H165770   4.751   2.392  16.795  1.2003 -0.0913  0.6186
14785TIP3    H265771   4.659   2.459  16.895  0.5426  0.0138 -0.0534
14786TIP3   OH265772   3.764   3.376   1.355  0.0087  0.5108 -0.7430
14786TIP3    H165773   3.792   3.452   1.304  0.7850  0.0654 -1.0004
14786TIP3    H265774   3.809   3.302   1.314  2.8847  0.4141  2.1936
14787TIP3   OH265775   1.555   2.375   2.571  0.0556 -0.2175 -0.1121
14787TIP3    H165776   1.518   2.307   2.627  3.4564 -1.2549  1.1166
14787TIP3    H265777   1.559   2.334   2.484  0.5444 -0.9835  0.2606
14788TIP3   OH265778   3.256   4.072  14.395  0.1993  0.2880  0.3140
14788TIP3    H165779   3.286   4.154  14.434 -0.4577  0.9939 -0.6048
14788TIP3    H265780   3.324   4.048  14.333  0.7882 -0.3226  1.1766
14789TIP3   OH265781   6.130   1.692   0.736  0.7279  0.5952 -0.3459
14789TIP3    H165782   6.124   1.737   0.652 -0.2051  0.0343 -0.5928
14789TIP3    H265783   6.056   1.725   0.787  1.0147  0.5855  0.0782
14790TIP3   OH265784   4.883   5.369  10.951 -0.7077 -0.1317  0.1458
14790TIP3    H165785   4.889   5.276  10.974 -0.1103  0.1974  1.3549
14790TIP3    H265786   4.865   5.414  11.033  0.3010  0.9525 -0.1949
14791TIP3   OH265787   1.616   4.117  13.802 -0.3628  0.1286  0.3044
14791TIP3    H165788   1.635   4.061  13.878  0.2289 -0.1812 -0.0608
14791TIP3    H265789   1.526   4.096  13.779 -0.0577 -0.8894  0.0043
14792TIP3   OH265790   1.509   6.266  16.230  0.0708  0.3472  0.0594
14792TIP3    H165791   1.496   6.179  16.193  0.3080  0.9045 -1.3817
14792TIP3    H265792   1.421   6.304  16.234 -0.5734 -1.0334  3.7027
14793TIP3   OH265793   2.514   6.629  15.601 -0.3470  0.4935 -0.3793
14793TIP3    H165794   2.566   6.624  15.681  0.9776 -0.4147 -1.2605
14793TIP3    H265795   2.578   6.633  15.530 -1.4462 -1.2296 -1.5562
14794TIP3   OH265796   6.371   5.955  16.392 -0.4891  0.0435  0.0208
14794TIP3    H165797   6.417   5.938  16.310 -0.7327 -0.1317 -0.0792
14794TIP3    H265798   6.286   5.990  16.366 -0.1928  0.9334  0.2181
14795TIP3   OH265799   2.857   3.500   2.651  0.3330 -0.3282  0.6071
14795TIP3    H165800   2.885   3.409   2.636 -0.2824 -0.5418  0.7085
14795TIP3    H265801   2.923   3.553   2.607  0.5786 -0.8355  0.3532
14796TIP3   OH265802   2.500   6.011  12.525 -0.4535 -0.5430 -0.0742
14796TIP3    H165803   2.513   5.976  12.613  0.5007  0.5688  0.2548
14796TIP3    H265804   2.547   5.952  12.467 -0.4947 -0.8865  0.2442
14797TIP3   OH265805   0.831   5.569   3.057  0.0281 -0.5000  0.0928
14797TIP3    H165806   0.854   5.509   3.128  0.5090 -0.2182  0.1828
14797TIP3    H265807   0.874   5.651   3.081 -1.0188  0.0258  0.2230
14798TIP3   OH265808   4.758   1.693  11.736  0.0494  0.1823 -0.3400
14798TIP3    H165809   4.697   1.714  11.665  1.0733 -1.0889 -1.6438
14798TIP3    H265810   4.821   1.764  11.735  0.6895 -0.3809 -1.4637
14799TIP3   OH265811   6.183   0.264  10.762 -0.1551 -0.0464 -0.6403
14799TIP3    H165812   6.162   0.285  10.671 -0.7612  0.6176 -0.3566
14799TIP3    H265813   6.270   0.224  10.758  0.2438  0.8596 -1.4221
14800TIP3   OH265814   2.227   6.225  16.420 -0.3431  0.1803 -0.0142
14800TIP3    H165815   2.267   6.235  16.334  2.4518 -2.0777  0.8824
14800TIP3    H265816   2.134   6.211  16.402  0.3510 -1.6521 -2.8101
14801TIP3   OH265817   2.285   2.857  12.261  0.1877 -0.4487  0.0094
14801TIP3    H165818   2.291   2.767  12.229 -0.0794 -0.4086 -0.1541
14801TIP3    H265819   2.224   2.899  12.201  0.8629  0.0336 -0.3503
14802TIP3   OH265820   5.379   3.101   2.228  0.0561 -0.2448  0.1440
14802TIP3    H165821   5.359   3.139   2.142 -0.9470 -0.1823  0.3907
14802TIP3    H265822   5.466   3.136   2.250 -0.7428  1.7931  0.2822
14803TIP3   OH265823   0.954   5.082   3.447 -0.0096 -0.4851  0.1095
14803TIP3    H165824   0.955   5.175   3.469 -1.4028 -0.3673 -0.1827
14803TIP3    H265825   0.863   5.055   3.464  0.2169 -1.6342 -0.4138
14804TIP3   OH265826   1.549   2.315  13.906  0.2380  0.6482 -0.5881
14804TIP3    H165827   1.640   2.340  13.921  0.2200  0.4378 -0.1268
14804TIP3    H265828   1.522   2.366  13.829  0.4796  1.3529 -0.2132
14805TIP3   OH265829   3.910   5.252   1.996  0.2439 -0.6128 -0.6392
14805TIP3    H165830   3.986   5.196   2.014 -0.7836 -2.3546 -1.4630
14805TIP3    H265831   3.839   5.190   1.978 -1.0337  0.9852 -1.2679
14806TIP3   OH265832   1.113   3.061   2.986 -0.0645 -0.3429 -0.2439
14806TIP3    H165833   1.086   3.101   3.068 -0.4949  0.4454 -0.7529
14806TIP3    H265834   1.058   3.104   2.920 -0.3898 -1.6359 -0.8329
14807TIP3   OH265835   1.645   4.470   2.353 -0.1291 -0.2792 -0.1984
14807TIP3    H165836   1.695   4.523   2.291  1.0741  0.6827  1.4990
14807TIP3    H265837   1.685   4.383   2.347  0.9679  0.1764  0.2516
14808TIP3   OH265838   4.087   1.065  15.070 -0.3214 -0.5747 -0.0428
14808TIP3    H165839   4.095   0.972  15.093  0.4433  0.0428  2.4440
14808TIP3    H265840   4.171   1.104  15.095 -0.2378  0.6513 -2.0112
14809TIP3   OH265841   5.332   5.909  16.810  0.0092 -0.1628  0.1304
14809TIP3    H165842   5.386   5.878  16.883  1.2774 -1.3856 -1.2643
14809TIP3    H265843   5.370   5.993  16.785  0.8414 -0.6781 -0.3763
14810TIP3   OH265844   3.805   0.818  15.899 -0.1471  0.4744  0.3064
14810TIP3    H165845   3.865   0.864  15.959 -1.2703  2.0130  0.3260
14810TIP3    H265846   3.746   0.770  15.957 -0.9158  1.5543  0.4445
14811TIP3   OH265847   2.185   3.034   5.955  0.0218 -0.4232  0.3155
14811TIP3    H165848   2.130   3.080   6.018  1.5894  0.5759  1.0313
14811TIP3    H265849   2.131   2.962   5.923 -1.9613  0.9576  0.3658
14812TIP3   OH265850   0.734   6.551  14.281  0.8040  0.1466  1.4359
14812TIP3    H165851   0.792   6.627  14.283  0.8359  0.1410  0.8246
14812TIP3    H265852   0.649   6.586  14.253  0.7116  0.0188  1.5504
14813TIP3   OH265853   1.706   0.978  12.410 -0.7962 -0.4787 -0.0440
14813TIP3    H165854   1.751   0.984  12.494 -1.4586  0.7042  0.2557
14813TIP3    H265855   1.752   0.908  12.363  0.0960 -0.6153  0.9827
14814TIP3   OH265856   5.509   6.488  13.555 -0.6459 -1.0258  0.0763
14814TIP3    H165857   5.482   6.422  13.618 -1.9344  1.4485  2.3243
14814TIP3    H265858   5.439   6.553  13.558  0.6246  0.5343 -1.8903
14815TIP3   OH265859   3.418   2.212   2.520 -0.1368  0.0160 -0.2095
14815TIP3    H165860   3.487   2.146   2.522  2.3976  2.4492  0.4770
14815TIP3    H265861   3.376   2.200   2.435  0.2642 -2.3501 -0.1459
14816TIP3   OH265862   1.118   6.743   5.340  0.5259 -0.1172 -0.5184
14816TIP3    H165863   1.183   6.791   5.390  0.9592 -2.3225  1.2001
14816TIP3    H265864   1.036   6.758   5.387  0.7269 -1.2831  0.2346
14817TIP3   OH265865   6.549   1.454  15.399  0.1489  0.2777 -0.0361
14817TIP3    H165866   6.457   1.466  15.419 -0.1624 -1.8716  0.0460
14817TIP3    H265867   6.577   1.539  15.365 -1.2956  1.6121  1.8805
14818TIP3   OH265868   2.015   2.720  15.177 -0.0672  0.2722  0.3154
14818TIP3    H165869   1.923   2.699  15.195 -0.0822 -0.9082 -0.9421
14818TIP3    H265870   2.031   2.802  15.224 -1.1964 -0.5137  2.1944
14819TIP3   OH265871   4.910   2.613  12.168  0.7188  0.5520 -0.0399
14819TIP3    H165872   4.829   2.653  12.137  1.2303  1.6429 -0.0242
14819TIP3    H265873   4.905   2.620  12.264 -0.2327 -1.5687  0.1351
14820TIP3   OH265874   3.211   1.356  15.982  0.6791 -0.1171 -0.5279
14820TIP3    H165875   3.280   1.311  15.933  1.4969 -0.7390  1.1020
14820TIP3    H265876   3.231   1.338  16.074 -1.1079  0.5180  0.0412
14821TIP3   OH265877   5.107   3.157   5.649 -0.2962  0.4850 -0.5798
14821TIP3    H165878   5.174   3.099   5.613  0.3945  1.0391 -0.2187
14821TIP3    H265879   5.052   3.100   5.703  0.2806  0.1317 -0.3545
14822TIP3   OH265880   5.848   2.157  12.564 -0.0138  0.0952 -1.0177
14822TIP3    H165881   5.939   2.142  12.540  0.2791 -1.3167  0.7992
14822TIP3    H265882   5.802   2.078  12.536 -0.4525  0.2550 -0.7599
14823TIP3   OH265883   0.186   5.238   0.384  0.0760 -0.0683  0.1709
14823TIP3    H165884   0.092   5.222   0.392 -0.9633  3.3769 -2.4425
14823TIP3    H265885   0.205   5.227   0.291  1.7163  1.5727  0.2473
14824TIP3   OH265886   1.054   6.184  13.577  0.0912  0.2796  0.0513
14824TIP3    H165887   1.062   6.271  13.539  0.8503  0.8656  1.4695
14824TIP3    H265888   0.963   6.158  13.560  0.3347  0.5900 -1.8935
14825TIP3   OH265889   2.429   0.373  14.646 -0.4533  0.2651  0.7506
14825TIP3    H165890   2.435   0.435  14.718 -1.9454 -0.8411  1.8954
14825TIP3    H265891   2.335   0.356  14.636 -0.1199 -1.4602  0.1925
14826TIP3   OH265892   5.316   5.836   3.364  0.2345  0.2860 -0.1601
14826TIP3    H165893   5.403   5.799   3.355  0.5803  0.3355  2.2974
14826TIP3    H265894   5.326   5.906   3.428 -1.1382  2.1248 -1.8184
14827TIP3   OH265895   0.060   5.564   2.928 -0.1816  0.5042 -0.0896
14827TIP3    H165896   0.128   5.584   2.994 -1.3109 -1.2553  1.7489
14827TIP3    H265897   0.108   5.518   2.859  1.1731  3.0624 -0.9658
14828TIP3   OH265898   4.832   1.341  12.716  0.3684  0.6541  0.1051
14828TIP3    H165899   4.882   1.399  12.775  3.5989 -1.8993  0.1595
14828TIP3    H265900   4.810   1.265  12.769 -0.2287  0.0687 -0.9428
14829TIP3   OH265901   5.987   1.078  14.656 -0.2218  0.2805 -0.1449
14829TIP3    H165902   6.000   1.038  14.742 -1.0623  1.1109  0.3826
14829TIP3    H265903   5.943   1.161  14.675  0.1809  0.7790 -1.3299
14830TIP3   OH265904   4.583   3.670  13.182  0.4656 -0.3921 -0.5891
14830TIP3    H165905   4.535   3.618  13.247 -1.0994  0.2967 -1.1552
14830TIP3    H265906   4.539   3.652  13.099  1.4346 -0.0154 -1.2132
14831TIP3   OH265907   3.775   5.670   5.401 -0.7479  0.7312 -0.1601
14831TIP3    H165908   3.728   5.595   5.364 -1.2833 -0.2245  2.2865
14831TIP3    H265909   3.855   5.677   5.348 -0.6089 -1.6694 -0.3510
14832TIP3   OH265910   6.606   5.744   6.193 -0.0130 -0.7732  0.0087
14832TIP3    H165911   6.603   5.733   6.288 -0.3399 -0.2717  0.0583
14832TIP3    H265912   6.690   5.706   6.168 -0.4625 -2.0492  0.3406
14833TIP3   OH265913   4.069   1.623  14.461 -0.1260 -0.1894 -0.0408
14833TIP3    H165914   4.022   1.703  14.483 -0.1013 -0.5038  1.2039
14833TIP3    H265915   4.161   1.647  14.462 -0.1563 -0.0530 -0.4450
14834TIP3   OH265916   0.354   4.595  11.879 -0.7273  0.0407  0.1943
14834TIP3    H165917   0.369   4.643  11.797 -1.0607 -0.2909 -0.0661
14834TIP3    H265918   0.275   4.634  11.916  0.5760  1.6149  1.4376
14835TIP3   OH265919   3.657   1.870  13.932  0.7439 -0.4094  0.7122
14835TIP3    H165920   3.675   1.943  13.991 -0.0895  2.4906 -2.3109
14835TIP3    H265921   3.718   1.883  13.860 -2.7763  0.5541 -2.3922
14836TIP3   OH265922   3.264   0.514   4.444 -0.3884 -0.3743 -0.1276
14836TIP3    H165923   3.283   0.421   4.456  1.7752 -0.2206 -1.6863
14836TIP3    H265924   3.186   0.516   4.390  0.8163 -1.4112 -2.0284
14837TIP3   OH265925   2.119   0.700  13.681  0.2888 -0.4930  0.2369
14837TIP3    H165926   2.104   0.698  13.587  0.8739 -0.5730  0.1449
14837TIP3    H265927   2.032   0.711  13.719  0.3405  3.0090 -0.3946
14838TIP3   OH265928   5.257   3.838  16.461  0.2108 -0.7708 -0.0060
14838TIP3    H165929   5.228   3.860  16.550 -0.3564 -0.0822 -0.3595
14838TIP3    H265930   5.322   3.768  16.475  0.6723 -0.1700  0.9997
14839TIP3   OH265931   6.408   6.534   5.717 -0.1083 -0.6129  0.5223
14839TIP3    H165932   6.336   6.594   5.736 -0.7896 -1.4770  0.7268
14839TIP3    H265933   6.468   6.543   5.791  0.7989  1.2378 -0.3705
14840TIP3   OH265934   5.992   5.357   4.925  0.5556 -0.4632 -0.3035
14840TIP3    H165935   5.997   5.303   4.846 -1.4254 -2.1290  0.6216
14840TIP3    H265936   5.926   5.314   4.980 -0.0960  2.1415  1.1224
14841TIP3   OH265937   0.350   6.135   2.683  0.4429 -0.3908  0.1003
14841TIP3    H165938   0.427   6.181   2.716  0.2672 -1.7164  2.5501
14841TIP3    H265939   0.384   6.054   2.645  0.4312  0.1313 -1.0822
14842TIP3   OH265940   3.363   2.514   5.163  0.1437  0.0176 -0.4103
14842TIP3    H165941   3.394   2.463   5.089 -1.2868  0.5612 -1.4407
14842TIP3    H265942   3.292   2.462   5.200  0.2962  0.1405  0.0668
14843TIP3   OH265943   6.471   2.110   0.271  0.5726  0.2052 -0.3544
14843TIP3    H165944   6.464   2.019   0.243  0.7011  0.0195  0.2160
14843TIP3    H265945   6.418   2.115   0.350  0.4415  0.6659 -0.4662
14844TIP3   OH265946   0.645   0.913   1.001 -0.5286 -0.1215  0.3535
14844TIP3    H165947   0.661   0.819   0.995  0.1700 -0.1951  2.4474
14844TIP3    H265948   0.691   0.950   0.926  0.1415 -1.3618  0.1273
14845TIP3   OH265949   2.414   2.048  13.728  0.0081 -0.5241 -0.3110
14845TIP3    H165950   2.429   2.123  13.785  0.2174  0.0007 -1.0323
14845TIP3    H265951   2.500   2.029  13.690  0.1474 -1.7176  0.5467
14846TIP3   OH265952   6.340   0.067   3.536  0.6139 -0.2852  0.5392
14846TIP3    H165953   6.300  -0.013   3.503  0.1850  0.0507  0.2339
14846TIP3    H265954   6.373   0.043   3.622  1.2937 -1.0335  0.0825
14847TIP3   OH265955   0.378   2.416   4.107  0.0341 -0.2535 -0.8744
14847TIP3    H165956   0.318   2.482   4.140  0.7314  0.6103 -1.2937
14847TIP3    H265957   0.422   2.382   4.185  0.2551  0.3649 -0.7269
14848TIP3   OH265958   5.507   1.746  15.718 -0.3779  0.1799 -0.3315
14848TIP3    H165959   5.428   1.766  15.767  0.5389  0.3510  1.1397
14848TIP3    H265960   5.490   1.780  15.630 -1.9960  0.0318 -0.1097
14849TIP3   OH265961   0.841   2.454   1.159 -0.1179 -0.0051 -0.3185
14849TIP3    H165962   0.762   2.449   1.212  1.9876 -0.2884  3.0970
14849TIP3    H265963   0.873   2.544   1.170 -0.0707  0.2101 -1.9177
14850TIP3   OH265964   4.215   5.682  16.776 -0.4153 -0.4941  0.1729
14850TIP3    H165965   4.249   5.753  16.831  0.7759 -0.1645 -0.9482
14850TIP3    H265966   4.162   5.726  16.710  2.0372 -0.3157 -1.8521
14851TIP3   OH265967   5.385   4.609  15.427  0.2012 -0.1616 -0.3555
14851TIP3    H165968   5.397   4.559  15.507  1.7689  0.8743  0.1102
14851TIP3    H265969   5.324   4.557  15.375  0.5335 -1.7411  0.7627
14852TIP3   OH265970   2.379   4.602   3.019  0.2998 -0.3071  0.0837
14852TIP3    H165971   2.474   4.590   3.015  0.2044 -1.0343 -0.1645
14852TIP3    H265972   2.354   4.569   3.105  0.6348  2.7790  1.5026
14853TIP3   OH265973   2.676   6.722  16.500  0.2072 -0.1604 -0.0550
14853TIP3    H165974   2.661   6.668  16.423 -0.2477 -0.3240  0.1431
14853TIP3    H265975   2.705   6.806  16.466 -0.9400  0.0957 -0.4583
14854TIP3   OH265976   3.419   2.017   4.761 -0.3708 -0.0376 -0.1264
14854TIP3    H165977   3.488   2.059   4.710  0.1935 -0.9532 -0.1342
14854TIP3    H265978   3.381   1.953   4.701  0.8826 -1.7488  0.8350
14855TIP3   OH265979   4.758   1.597  16.264 -0.0799 -0.3841 -0.3810
14855TIP3    H165980   4.744   1.690  16.281  1.4869  0.0491 -1.2962
14855TIP3    H265981   4.847   1.580  16.295 -0.6363 -1.7969  0.5552
14856TIP3   OH265982   5.010   3.280  15.329 -0.0135 -0.5831  0.2188
14856TIP3    H165983   5.003   3.196  15.374 -0.8979 -0.3154  0.6040
14856TIP3    H265984   5.049   3.339  15.393  0.6750 -0.7066 -0.0752
14857TIP3   OH265985   3.201   0.753   3.009  0.0357 -0.1715  0.1951
14857TIP3    H165986   3.292   0.728   3.026 -0.2625 -0.5648  1.2475
14857TIP3    H265987   3.205   0.848   2.995  0.7298 -0.3200 -0.7302
14858TIP3   OH265988   2.323   0.552   5.483 -0.6307  0.6745  0.3894
14858TIP3    H165989   2.394   0.499   5.450  0.1027  1.4795  0.6379
14858TIP3    H265990   2.259   0.553   5.412 -1.1654 -1.3977  0.7799
14859TIP3   OH265991   0.691   4.121  13.616  0.1390 -0.2404  0.4748
14859TIP3    H165992   0.703   4.050  13.678 -0.2704 -0.7892 -0.0623
14859TIP3    H265993   0.742   4.194  13.652  0.3191 -0.7105  1.1790
14860TIP3   OH265994   5.106   6.038  12.694 -0.1969  0.1209 -0.3842
14860TIP3    H165995   5.170   6.078  12.635  0.5287  0.9075  0.8755
14860TIP3    H265996   5.156   6.018  12.773 -1.0445 -1.3176 -0.1735
14861TIP3   OH265997   1.760   4.679   1.051 -0.2717 -0.2525  0.2851
14861TIP3    H165998   1.721   4.621   0.986  0.2577  0.1141 -0.3672
14861TIP3    H265999   1.793   4.753   1.001  1.9670 -0.9065  0.6903
14862TIP3   OH266000   1.073   2.088   5.163 -0.0676 -0.3064  0.1533
14862TIP3    H166001   0.999   2.044   5.206  0.3447 -5.2446 -3.3296
14862TIP3    H266002   1.035   2.167   5.124 -2.6870 -1.0020  1.0938
14863TIP3   OH266003   5.054   3.890   3.158 -0.1333 -0.4432  0.1125
14863TIP3    H166004   5.010   3.956   3.212 -0.7183 -1.3999  0.8459
14863TIP3    H266005   4.984   3.853   3.104 -0.1086 -1.4044  0.7018
14864TIP3   OH266006   3.097   0.062  16.783  0.2094  0.0944  0.3767
14864TIP3    H166007   3.033   0.044  16.714 -0.5889  1.2979  0.7734
14864TIP3    H266008   3.097  -0.018  16.837 -0.0594 -0.3764 -0.3081
14865TIP3   OH266009   0.881   1.497   3.476 -0.3355 -0.0762 -0.1672
14865TIP3    H166010   0.884   1.549   3.557 -1.5413  0.7185 -0.6027
14865TIP3    H266011   0.937   1.545   3.415 -0.0622 -0.2399 -0.0456
14866TIP3   OH266012   4.967   0.685  16.386 -0.4696 -0.4601 -0.1220
14866TIP3    H166013   4.968   0.756  16.321  1.5586  0.6935  1.0710
14866TIP3    H266014   4.879   0.647  16.379 -1.5618  2.0413 -0.9553
14867TIP3   OH266015   3.500   1.678   5.386 -0.3143  0.1207  0.2169
14867TIP3    H166016   3.478   1.770   5.378 -3.7819 -0.6039 -0.4671
14867TIP3    H266017   3.515   1.649   5.296 -1.0640 -0.2983  0.2135
14868TIP3   OH266018   2.863   5.913  16.288 -0.6184  0.0597  0.6840
14868TIP3    H166019   2.917   5.920  16.367 -1.6528 -0.5150  1.4615
14868TIP3    H266020   2.833   5.822  16.287 -1.3477  0.2932  0.1154
14869TIP3   OH266021   6.228   0.783   1.263 -0.5516 -0.1744  0.1610
14869TIP3    H166022   6.279   0.863   1.275 -0.9028  0.3248 -1.4763
14869TIP3    H266023   6.162   0.787   1.333 -0.1424  0.6194  0.5206
14870TIP3   OH266024   4.249   6.627  14.790  0.1318  0.1872  0.0062
14870TIP3    H166025   4.254   6.653  14.698 -0.6186 -1.0202 -0.4065
14870TIP3    H266026   4.213   6.703  14.834  1.8800  1.3199 -0.4224
14871TIP3   OH266027   1.122   1.503  15.595  0.5455  0.4130  0.3314
14871TIP3    H166028   1.143   1.560  15.669 -0.4108 -0.6168  1.4519
14871TIP3    H266029   1.118   1.415  15.633 -1.6417  0.0529 -0.5568
14872TIP3   OH266030   3.814   2.369  13.228 -0.2025  0.0206  0.1748
14872TIP3    H166031   3.853   2.450  13.194 -0.6091 -0.6606 -2.0970
14872TIP3    H266032   3.885   2.305  13.225 -0.7861 -0.6091 -1.6604
14873TIP3   OH266033   4.700   4.520  12.990 -0.4134  0.4109  0.3081
14873TIP3    H166034   4.641   4.458  12.947  0.5393 -1.3371  1.4001
14873TIP3    H266035   4.732   4.576  12.919 -0.7488 -0.8077 -0.8405
14874TIP3   OH266036   3.264   6.089  13.124  0.0921 -0.7530  0.2105
14874TIP3    H166037   3.206   6.128  13.190  2.8780 -1.1220  3.1498
14874TIP3    H266038   3.221   6.007  13.099 -1.5371 -0.1054  0.7499
14875TIP3   OH266039   6.196   3.404   1.368  0.7209  0.2212  0.0280
14875TIP3    H166040   6.242   3.461   1.307  0.5940  0.5386  0.2251
14875TIP3    H266041   6.252   3.327   1.376  0.1161 -0.4220 -1.5001
14876TIP3   OH266042   1.169   5.680   0.337  0.3410  0.8473  0.3893
14876TIP3    H166043   1.209   5.759   0.374  2.2989  0.1691 -0.1304
14876TIP3    H266044   1.229   5.610   0.361 -1.9916 -0.7538  1.9261
14877TIP3   OH266045   3.689   2.463   1.778  0.4827 -0.2367  0.6332
14877TIP3    H166046   3.765   2.496   1.729  0.5026 -0.3097  0.6150
14877TIP3    H266047   3.633   2.423   1.712 -0.0393  0.6834  0.5057
14878TIP3   OH266048   0.592   1.615  10.739  0.4078  0.1601  0.7493
14878TIP3    H166049   0.516   1.586  10.789 -1.6523  0.3826 -1.9967
14878TIP3    H266050   0.575   1.585  10.649  2.9121  1.4271 -0.2569
14879TIP3   OH266051   2.051   4.697  14.268  0.2072 -0.4479 -0.0981
14879TIP3    H166052   2.115   4.635  14.303  0.4926  0.3509  0.8117
14879TIP3    H266053   2.102   4.775  14.247 -0.2944 -0.2112 -0.4596
14880TIP3   OH266054   5.672   0.971  10.966  0.9796 -0.8522 -0.6642
14880TIP3    H166055   5.716   0.977  11.050 -1.8475  0.0161  0.8751
14880TIP3    H266056   5.676   0.878  10.943 -0.2664 -1.5569  1.6887
14881TIP3   OH266057   2.518   1.239   3.119 -0.0126 -0.1621  0.1024
14881TIP3    H166058   2.484   1.325   3.144 -1.9166 -0.5825 -0.8912
14881TIP3    H266059   2.442   1.191   3.089  1.2146 -1.8172 -0.4901
14882TIP3   OH266060   6.397   1.759   2.435 -0.3582  0.5266  0.0466
14882TIP3    H166061   6.465   1.778   2.370  0.3491 -1.6506  0.0808
14882TIP3    H266062   6.318   1.742   2.384 -0.5370  1.5786 -0.0612
14883TIP3   OH266063   2.518   0.250   3.128  0.3942 -0.0914 -0.6706
14883TIP3    H166064   2.522   0.336   3.087  0.6647  0.3099  0.1923
14883TIP3    H266065   2.457   0.260   3.201  2.4399  0.1064  1.1119
14884TIP3   OH266066   1.303   0.122  11.871  0.3857  0.0292 -0.4679
14884TIP3    H166067   1.377   0.121  11.810 -1.0825  1.7315 -2.4257
14884TIP3    H266068   1.228   0.148  11.817 -1.8629 -2.3675  1.2295
14885TIP3   OH266069   1.203   6.282  12.961 -0.6135 -0.2485 -0.5544
14885TIP3    H166070   1.184   6.239  13.044  0.6907 -0.9175 -0.5789
14885TIP3    H266071   1.217   6.211  12.899  0.1129  0.2146 -0.9396
14886TIP3   OH266072   2.764   2.319  15.505 -0.4635  0.3744 -0.0436
14886TIP3    H166073   2.677   2.283  15.522 -0.0995 -1.5091 -1.8125
14886TIP3    H266074   2.748   2.412  15.486 -2.1584 -0.0449 -0.8409
14887TIP3   OH266075   1.311   1.310  15.092  0.9130 -0.2274 -0.1230
14887TIP3    H166076   1.272   1.256  15.023 -0.7680 -0.4904  0.9783
14887TIP3    H266077   1.306   1.400  15.058 -1.6575 -0.1173  0.3646
14888TIP3   OH266078   5.600   6.359   3.060  0.6777 -0.1504 -0.1752
14888TIP3    H166079   5.686   6.320   3.047  0.0669 -2.0702  1.0341
14888TIP3    H266080   5.593   6.371   3.155  0.2579  1.6291 -0.3946
14889TIP3   OH266081   4.030   0.716  12.122 -0.1641 -0.0351  0.0160
14889TIP3    H166082   4.037   0.809  12.104  0.4486  0.1048  0.9074
14889TIP3    H266083   3.972   0.710  12.198 -0.1854 -0.3778 -0.0238
14890TIP3   OH266084   3.616   5.409  13.577 -0.4819  0.6603 -0.4686
14890TIP3    H166085   3.617   5.445  13.488  0.9445  0.4267 -0.5659
14890TIP3    H266086   3.573   5.476  13.630 -0.5532  1.1867 -1.1836
14891TIP3   OH266087   5.857   3.844   2.016 -0.2893  0.3572  0.4947
14891TIP3    H166088   5.762   3.856   2.013 -0.5739 -1.2851  1.5299
14891TIP3    H266089   5.871   3.754   1.988  0.9726  0.5581  0.3964
14892TIP3   OH266090   4.601   4.645  15.396  0.2103  0.5390  0.0632
14892TIP3    H166091   4.567   4.714  15.339 -1.5223 -0.3938 -0.0971
14892TIP3    H266092   4.523   4.600  15.428  1.2467 -0.3888  1.3810
14893TIP3   OH266093   4.393   0.548   0.083 -0.4807 -0.2614  0.6363
14893TIP3    H166094   4.366   0.617   0.022  1.7723  1.8715  1.8762
14893TIP3    H266095   4.330   0.477   0.068 -3.0777  2.1047 -0.5752
14894TIP3   OH266096   1.778   3.076  10.924 -0.1055 -0.1067 -0.1925
14894TIP3    H166097   1.695   3.093  10.881  0.1505  0.4042 -0.4895
14894TIP3    H266098   1.766   2.992  10.967 -0.6817 -0.1650 -0.4643
14895TIP3   OH266099   5.921   6.195   5.438 -0.4696 -0.4124  0.3790
14895TIP3    H166100   5.841   6.244   5.457  0.3465  1.1162  0.0582
14895TIP3    H266101   5.910   6.164   5.348  0.4457  2.3349 -0.7937
14896TIP3   OH266102   1.741   0.514  13.601  0.7425  0.8324 -0.3940
14896TIP3    H166103   1.812   0.477  13.550 -1.0492 -0.0831 -2.3679
14896TIP3    H266104   1.741   0.465  13.683 -0.4432 -2.4618 -2.2089
14897TIP3   OH266105   3.854   3.031  10.305  0.0706  0.4963 -0.0656
14897TIP3    H166106   3.835   3.018  10.398 -0.9039  0.1137 -0.2993
14897TIP3    H266107   3.797   2.968  10.260  1.1652  0.0520 -0.8898
14898TIP3   OH266108   0.585   1.803   2.274 -0.0424  0.0281 -0.0042
14898TIP3    H166109   0.648   1.733   2.265  0.9318  0.6999  1.2794
14898TIP3    H266110   0.597   1.836   2.363 -2.2499  0.1456  0.3237
14899TIP3   OH266111   2.983   3.959   2.424  0.2183  0.0021 -0.3929
14899TIP3    H166112   2.928   3.888   2.392 -0.4832 -0.2003  1.1678
14899TIP3    H266113   2.932   4.000   2.493  1.3329  0.9150 -0.0744
14900TIP3   OH266114   2.884   6.258  14.379  0.3554  0.5350 -0.0631
14900TIP3    H166115   2.821   6.188  14.360  0.7984  0.0715  0.1724
14900TIP3    H266116   2.857   6.330  14.322  0.0531  0.0822 -0.4972
14901TIP3   OH266117   3.745   6.720   3.451 -0.0297 -0.2562 -0.5333
14901TIP3    H166118   3.678   6.663   3.490 -0.3666 -1.1015 -2.2391
14901TIP3    H266119   3.768   6.782   3.521 -0.7740 -1.5112  0.8922
14902TIP3   OH266120   1.388   1.089  13.428 -0.0095  0.3068  0.7828
14902TIP3    H166121   1.468   1.140  13.417  0.6806 -0.7010  0.9804
14902TIP3    H266122   1.385   1.068  13.522 -1.4259  1.7584  1.1195
14903TIP3   OH266123   6.148   2.827   5.584  0.4246  0.5872 -0.1190
14903TIP3    H166124   6.201   2.894   5.540 -0.6486  1.1499 -0.5753
14903TIP3    H266125   6.066   2.825   5.535 -0.5234  0.7304  1.3999
14904TIP3   OH266126   6.417   4.159   2.713  0.3324  0.1553 -0.0465
14904TIP3    H166127   6.331   4.202   2.714  0.0725 -0.3647  0.1357
14904TIP3    H266128   6.401   4.075   2.671  0.9881  0.5391 -1.1143
14905TIP3   OH266129   3.417   5.971   4.829 -0.2632  0.3799 -0.0735
14905TIP3    H166130   3.351   5.936   4.889  0.7285  2.6665  2.6032
14905TIP3    H266131   3.494   5.916   4.844 -0.2294  0.5190  0.2934
14906TIP3   OH266132   2.160   2.490  17.016  0.0476 -0.4159 -0.2124
14906TIP3    H166133   2.201   2.422  16.963 -1.3664 -2.0169  0.6711
14906TIP3    H266134   2.153   2.565  16.957 -1.5199 -2.1361 -2.3717
14907TIP3   OH266135   3.006   6.541  13.277  0.8133  0.0602  0.2904
14907TIP3    H166136   3.063   6.503  13.210  0.9819  0.1385  0.3872
14907TIP3    H266137   2.918   6.512  13.253  1.0255 -1.0882  0.8474
14908TIP3   OH266138   5.987   6.787  11.599  0.1845 -0.3742 -0.3799
14908TIP3    H166139   5.996   6.808  11.692  0.1056 -0.1870 -0.4127
14908TIP3    H266140   5.897   6.755  11.591  0.3545 -0.8715 -0.3040
14909TIP3   OH266141   1.413   4.390  16.938 -0.0960 -0.0740  0.5583
14909TIP3    H166142   1.387   4.298  16.944  4.4153 -1.5247  1.9862
14909TIP3    H266143   1.410   4.422  17.028  1.5046  0.0796  0.5806
14910TIP3   OH266144   4.078   1.637   1.926  0.0192  0.5663  0.3270
14910TIP3    H166145   4.102   1.604   2.013 -1.4074 -0.1749  0.4790
14910TIP3    H266146   4.100   1.730   1.929  1.6727  0.1998  0.8285
14911TIP3   OH266147   0.322   1.885  15.769  0.5024  0.4630 -0.4645
14911TIP3    H166148   0.277   1.939  15.833  0.9887 -0.2687  0.5239
14911TIP3    H266149   0.374   1.947  15.717  3.0120  0.8191  2.2187
14912TIP3   OH266150   3.559   1.644   2.206  0.0515  0.1426  0.3963
14912TIP3    H166151   3.614   1.593   2.266  0.5249  0.0601 -0.0953
14912TIP3    H266152   3.582   1.610   2.119  0.0098  0.8577  0.1046
14913TIP3   OH266153   0.164   4.462   4.738 -0.1947 -0.7598  0.3758
14913TIP3    H166154   0.121   4.485   4.655 -1.5510  1.1075  1.5405
14913TIP3    H266155   0.141   4.370   4.752 -0.9093 -0.7702 -0.7259
14914TIP3   OH266156   0.677   4.041  16.318  0.1716  0.0947  0.1463
14914TIP3    H166157   0.691   3.948  16.305  2.0713  0.4477 -0.6304
14914TIP3    H266158   0.655   4.049  16.411 -2.1022 -1.2804 -0.1851
14915TIP3   OH266159   6.772   3.577   2.403  0.7068 -0.2785  0.2045
14915TIP3    H166160   6.760   3.628   2.323  1.1253 -1.3161 -0.5264
14915TIP3    H266161   6.810   3.494   2.375 -2.1877 -2.0637  1.0225
14916TIP3   OH266162   5.417   3.281   5.179  0.3779  0.0894 -0.5556
14916TIP3    H166163   5.357   3.329   5.236  1.0803 -0.1913  0.4485
14916TIP3    H266164   5.464   3.221   5.238  0.4795 -0.8690 -1.5695
14917TIP3   OH266165   3.087   6.258   5.312 -0.6191 -0.0766  0.0589
14917TIP3    H166166   3.071   6.347   5.283  0.5001 -0.3403 -1.5473
14917TIP3    H266167   3.062   6.204   5.237 -0.1273 -1.0195  0.5574
14918TIP3   OH266168   6.120   0.244  15.914  0.3919 -0.0023 -0.1522
14918TIP3    H166169   6.083   0.155  15.905 -1.8697  0.9406 -1.1692
14918TIP3    H266170   6.134   0.255  16.008 -1.1941 -0.7633  0.2139
14919TIP3   OH266171   3.418   3.402   3.671 -0.5367  0.2438  0.2555
14919TIP3    H166172   3.425   3.491   3.706  1.8095  0.4125 -0.4889
14919TIP3    H266173   3.346   3.363   3.720 -1.2371  2.3438  1.0327
14920TIP3   OH266174   1.262   1.898  14.954  0.0156  0.0943  0.1539
14920TIP3    H166175   1.237   1.950  14.878  0.2695 -0.8856 -0.6180
14920TIP3    H266176   1.254   1.958  15.028  1.2373  1.4990 -0.8144
14921TIP3   OH266177   5.359   4.829  16.840  0.0270 -0.0821  0.3217
14921TIP3    H166178   5.403   4.902  16.884  0.4216 -0.1984  0.1226
14921TIP3    H266179   5.276   4.820  16.887  0.3946 -0.1356  0.9845
14922TIP3   OH266180   2.571   5.111  16.293 -0.3713  0.2422  0.0015
14922TIP3    H166181   2.619   5.092  16.212 -0.3689  0.9620 -0.1683
14922TIP3    H266182   2.578   5.030  16.344  0.4848  0.1223 -0.2885
14923TIP3   OH266183   6.405   3.560   5.277  0.3746 -0.0011 -0.0720
14923TIP3    H166184   6.422   3.466   5.282 -0.6342 -0.1352  2.0609
14923TIP3    H266185   6.482   3.596   5.233  0.2906 -1.9016 -1.9636
14924TIP3   OH266186   6.495   5.446   2.110 -0.3705  0.2171  0.0779
14924TIP3    H166187   6.585   5.414   2.107  0.3212  1.8726  1.4434
14924TIP3    H266188   6.487   5.501   2.032  0.1745  0.9031  0.4881
14925TIP3   OH266189   1.711   1.113  11.648  0.1989  0.0455  0.3672
14925TIP3    H166190   1.752   1.047  11.704  1.9245  0.9601  0.2322
14925TIP3    H266191   1.655   1.163  11.708 -0.3497 -0.8775  0.6531
14926TIP3   OH266192   1.103   1.113   4.671  0.1449  0.1393 -0.1016
14926TIP3    H166193   1.114   1.207   4.685  1.2234  0.1074 -0.5881
14926TIP3    H266194   1.184   1.075   4.707 -1.2310 -0.8314  2.1535
14927TIP3   OH266195   2.647   2.819   3.478  0.5460 -0.1422  0.3948
14927TIP3    H166196   2.603   2.903   3.464 -0.4263 -0.4768  1.3171
14927TIP3    H266197   2.680   2.794   3.391 -2.8385 -0.8445 -0.8299
14928TIP3   OH266198   4.441   4.863   2.107  0.2805  0.5244 -0.1406
14928TIP3    H166199   4.418   4.818   2.189  3.1496 -2.0749 -0.5742
14928TIP3    H266200   4.530   4.893   2.121 -0.2786  2.9829 -1.2775
14929TIP3   OH266201   6.476   2.426  12.892  0.0819 -0.0257 -0.1366
14929TIP3    H166202   6.407   2.363  12.910  0.0022  0.2518  0.5455
14929TIP3    H266203   6.450   2.467  12.809 -0.6406  0.1668  0.1785
14930TIP3   OH266204   2.138   3.917   1.540  0.4035 -0.1213  0.0337
14930TIP3    H166205   2.117   3.843   1.597  0.0086 -0.7027 -0.8327
14930TIP3    H266206   2.224   3.896   1.504  0.3382 -0.1078 -0.1304
14931TIP3   OH266207   4.386   1.169   5.011 -0.2269 -0.1262 -0.2838
14931TIP3    H166208   4.424   1.239   4.957  0.3061  1.0760  1.5644
14931TIP3    H266209   4.459   1.110   5.028 -0.1260  0.0697 -0.0191
14932TIP3   OH266210   6.762   3.668  12.458 -0.2259 -0.4295 -0.0463
14932TIP3    H166211   6.697   3.645  12.392 -1.2980 -0.0845  0.8781
14932TIP3    H266212   6.797   3.752  12.429 -2.2437  0.7943  0.9300
14933TIP3   OH266213   0.854   1.907  11.993  0.2006  0.2964 -0.5860
14933TIP3    H166214   0.874   1.829  11.942 -1.1434  0.3458 -1.2441
14933TIP3    H266215   0.835   1.974  11.927  0.3763  0.9094 -0.0242
14934TIP3   OH266216   3.491   5.652  13.714 -0.0382  0.0880  0.0356
14934TIP3    H166217   3.405   5.694  13.713 -0.2466 -0.3193  0.5952
14934TIP3    H266218   3.542   5.703  13.778  0.1160  0.2810 -0.2376
14935TIP3   OH266219   0.506   6.608   1.247 -0.0941  0.0679  0.7843
14935TIP3    H166220   0.595   6.639   1.257 -0.4145  1.1529  0.3975
14935TIP3    H266221   0.452   6.687   1.251 -1.1371 -0.6668  2.0590
14936TIP3   OH266222   4.064   3.584   3.300  0.0550 -0.2458  0.3615
14936TIP3    H166223   4.111   3.634   3.367 -0.7792 -0.5826  1.2182
14936TIP3    H266224   4.131   3.565   3.233  0.1913  2.9076 -0.5563
14937TIP3   OH266225   1.961   3.570   3.462  0.1767  0.2034  0.1961
14937TIP3    H166226   1.927   3.586   3.374 -3.8052 -0.7969  1.3341
14937TIP3    H266227   2.006   3.486   3.455 -1.0511 -0.4223 -0.7505
14938TIP3   OH266228   3.826   0.952  12.590  0.1367 -0.3548 -0.2300
14938TIP3    H166229   3.758   0.887  12.570  0.3552 -0.6036 -0.1731
14938TIP3    H266230   3.830   1.008  12.513 -2.7368  1.9997  1.1350
14939TIP3   OH266231   2.735   2.628  15.738  0.3419  0.5105  0.0032
14939TIP3    H166232   2.828   2.625  15.757  0.0851  0.0762  1.2543
14939TIP3    H266233   2.730   2.619  15.643  1.6549  2.5926 -0.3336
14940TIP3   OH266234   1.507   5.008   6.647 -0.3119  0.7540  0.0456
14940TIP3    H166235   1.563   5.042   6.717 -1.6367 -0.1409  1.6185
14940TIP3    H266236   1.542   5.047   6.567  1.8456  1.0887  1.0787
14941TIP3   OH266237   1.833   5.465   4.677 -0.2312  0.3565 -0.1012
14941TIP3    H166238   1.849   5.398   4.610  0.1320  1.3273 -1.0131
14941TIP3    H266239   1.771   5.525   4.636 -2.6283 -0.7680  1.6424
14942TIP3   OH266240   0.309   0.710  14.586 -0.0925 -0.2625 -0.0290
14942TIP3    H166241   0.329   0.619  14.606  1.4817 -0.1305 -0.8387
14942TIP3    H266242   0.214   0.714  14.584 -0.2260 -1.5511  1.4756
14943TIP3   OH266243   5.258   4.613   3.201 -0.0403  0.2553 -0.2402
14943TIP3    H166244   5.340   4.597   3.247  0.1322 -0.3450 -0.7474
14943TIP3    H266245   5.209   4.531   3.211  0.0602  0.0629 -1.2371
14944TIP3   OH266246   3.678   3.398  16.389 -0.4185  0.0408  0.2314
14944TIP3    H166247   3.662   3.462  16.459 -0.7780  0.5266 -0.2868
14944TIP3    H266248   3.667   3.448  16.308 -2.1996 -1.0172 -0.2199
14945TIP3   OH266249   6.783   6.105   6.095  0.2735 -0.0423  0.0456
14945TIP3    H166250   6.838   6.028   6.090 -0.3629 -0.4997 -0.0628
14945TIP3    H266251   6.693   6.071   6.097 -0.0637  0.7196 -1.0475
14946TIP3   OH266252   5.330   1.201  12.832  0.2073  0.3383  0.2033
14946TIP3    H166253   5.261   1.248  12.787  0.8909  1.0722 -0.0908
14946TIP3    H266254   5.385   1.165  12.763  1.2665  1.4782  0.4252
14947TIP3   OH266255   5.285   3.452   0.224 -0.1271  0.0847  0.6995
14947TIP3    H166256   5.323   3.477   0.140 -0.2916 -0.1806  0.5462
14947TIP3    H266257   5.356   3.465   0.287  0.4013 -0.9481  0.3358
14948TIP3   OH266258   1.358   0.133   4.164 -0.7126  0.0081 -0.0959
14948TIP3    H166259   1.382   0.056   4.217 -0.8712 -0.1586 -0.2663
14948TIP3    H266260   1.263   0.135   4.167 -0.6896  0.5223  0.3668
14949TIP3   OH266261   3.554   6.097  15.219 -0.3009 -0.2988  0.2329
14949TIP3    H166262   3.548   6.057  15.132  1.4251 -0.6871  0.2510
14949TIP3    H266263   3.614   6.040  15.267  1.8786  1.9860  0.4198
14950TIP3   OH266264   2.308   1.321  12.964 -0.0575  0.1710  0.8063
14950TIP3    H166265   2.272   1.304  12.877 -0.0496  0.7457  0.6868
14950TIP3    H266266   2.341   1.410  12.959 -1.8048  0.9383  1.9753
14951TIP3   OH266267   2.060   0.362  12.256 -0.4220 -0.0020 -0.1690
14951TIP3    H166268   2.116   0.322  12.190  0.2974  1.0329 -0.2222
14951TIP3    H266269   2.021   0.289  12.303  0.2271 -0.7444 -0.7633
14952TIP3   OH266270   1.353   3.662  15.912 -0.0386  0.2642  0.0071
14952TIP3    H166271   1.430   3.714  15.890  0.2807 -0.4677 -0.6462
14952TIP3    H266272   1.371   3.575  15.876 -0.8527 -0.1199  0.4879
14953TIP3   OH266273   2.569   2.595   6.020  0.0991 -0.3558  0.0653
14953TIP3    H166274   2.574   2.684   6.054 -0.8231 -0.3350  0.1662
14953TIP3    H266275   2.637   2.548   6.067  0.3222  0.1995  0.3067
14954TIP3   OH266276   5.189   0.420  14.623  0.3419 -0.4473 -0.2559
14954TIP3    H166277   5.191   0.510  14.590  1.4254  0.5627  2.3027
14954TIP3    H266278   5.154   0.428  14.712 -0.9063 -2.7924 -0.4606
14955TIP3   OH266279   4.036   3.539  15.821 -0.1086  0.2195  0.0703
14955TIP3    H166280   4.067   3.623  15.789  0.1517 -0.4926 -1.7171
14955TIP3    H266281   4.114   3.494  15.853  0.6357 -1.0137 -3.1049
14956TIP3   OH266282   5.414   2.550   2.321  0.0836  0.5003 -0.4464
14956TIP3    H166283   5.356   2.531   2.248 -0.7383  1.8414 -0.1912
14956TIP3    H266284   5.450   2.637   2.301 -1.9254  1.9791  1.7428
14957TIP3   OH266285   2.739   0.969   5.324  0.2023  0.5797  0.1043
14957TIP3    H166286   2.713   1.014   5.243  1.5171  1.0208 -0.1007
14957TIP3    H266287   2.719   0.877   5.307  1.1170  0.5613 -1.0366
14958TIP3   OH266288   5.992   4.749  14.140 -0.1669  0.5837  0.2133
14958TIP3    H166289   5.917   4.697  14.111  0.1459 -0.2062  0.7718
14958TIP3    H266290   6.048   4.757  14.063 -0.8603  1.2699 -0.2359
14959TIP3   OH266291   3.593   0.397  12.572  0.7046 -0.3442 -0.4731
14959TIP3    H166292   3.681   0.436  12.579  0.5178 -0.1394  1.2465
14959TIP3    H266293   3.585   0.342  12.651 -1.4265  1.1947  0.4901
14960TIP3   OH266294   6.665   2.184   5.618 -0.0830  0.6707 -0.0451
14960TIP3    H166295   6.725   2.192   5.544  0.2881  2.2977  0.4076
14960TIP3    H266296   6.708   2.230   5.690 -1.3332  0.8420  0.6271
14961TIP3   OH266297   1.176   3.763  12.108 -0.2778 -0.0818 -0.2734
14961TIP3    H166298   1.268   3.765  12.131 -0.1253 -0.0810 -0.8585
14961TIP3    H266299   1.146   3.676  12.135 -0.1884  0.0402  0.2178
14962TIP3   OH266300   6.408   3.006   4.407 -0.7495  0.3222 -0.3633
14962TIP3    H166301   6.404   3.101   4.413  1.0612  0.5225 -1.5851
14962TIP3    H266302   6.348   2.975   4.475  0.5641  2.3204  1.8516
14963TIP3   OH266303   2.390   6.503  13.565  0.0452 -0.2668  0.1884
14963TIP3    H166304   2.406   6.436  13.499  0.1426 -0.0329 -0.0292
14963TIP3    H266305   2.315   6.472  13.614 -0.7998  0.1326 -0.8178
14964TIP3   OH266306   4.054   2.232   0.101 -0.1003 -0.3839 -0.3257
14964TIP3    H166307   4.109   2.298   0.060  0.2970 -1.2105 -1.1625
14964TIP3    H266308   4.067   2.153   0.048 -2.0092 -0.6459 -0.4677
14965TIP3   OH266309   5.313   0.067   0.270  0.4332  0.6367  0.2775
14965TIP3    H166310   5.277   0.124   0.338 -1.3872  0.3318 -0.3632
14965TIP3    H266311   5.407   0.085   0.271 -0.1296  4.8974 -0.9736
14966TIP3   OH266312   5.855   2.384   1.526  0.0250  0.0449 -0.3876
14966TIP3    H166313   5.947   2.405   1.516 -0.0248  0.8131  0.6176
14966TIP3    H266314   5.854   2.299   1.570  0.2820  0.9192  1.3603
14967TIP3   OH266315   6.185   4.277   2.699  0.0937  0.6560  0.0451
14967TIP3    H166316   6.125   4.208   2.669 -0.5671  1.0242  0.4996
14967TIP3    H266317   6.150   4.358   2.661  0.7129  0.7872 -0.2661
14968TIP3   OH266318   4.436   1.057   0.885  0.2386 -0.1687 -0.2294
14968TIP3    H166319   4.506   0.995   0.905  0.5582  0.0719 -0.6009
14968TIP3    H266320   4.465   1.139   0.924  0.9257  0.3406 -1.7243
14969TIP3   OH266321   3.100   5.398  12.583  0.6195 -0.6686 -0.4759
14969TIP3    H166322   3.029   5.403  12.519 -0.8850 -0.4672  1.1401
14969TIP3    H266323   3.081   5.318  12.633  1.3838 -0.4720  0.1451
14970TIP3   OH266324   2.184   0.695   1.025  0.2975  0.0436  0.6451
14970TIP3    H166325   2.148   0.723   1.109 -0.4955 -0.4771  0.4891
14970TIP3    H266326   2.153   0.761   0.962 -0.1551 -0.2390  0.5627
14971TIP3   OH266327   5.120   3.105  13.150  0.0312 -0.1914 -0.6548
14971TIP3    H166328   5.188   3.168  13.126 -0.7794  0.7017 -0.6677
14971TIP3    H266329   5.117   3.109  13.245 -0.9603  0.8385 -0.7073
14972TIP3   OH266330   0.125   0.472  12.184 -0.2443  0.0645  0.6683
14972TIP3    H166331   0.204   0.526  12.190 -0.2865  0.1058  0.8765
14972TIP3    H266332   0.053   0.534  12.195 -0.3414  0.1649 -0.4454
14973TIP3   OH266333   6.491   1.154   4.833 -0.2617 -0.3446 -0.0276
14973TIP3    H166334   6.551   1.092   4.791  0.1454  0.9881 -1.4824
14973TIP3    H266335   6.407   1.108   4.834  0.3418 -1.4808  0.2603
14974TIP3   OH266336   1.197   0.132  10.650  0.1360  0.9588 -0.4156
14974TIP3    H166337   1.257   0.112  10.579  0.2072 -3.2247  0.5464
14974TIP3    H266338   1.111   0.107  10.617 -0.3063  1.8753 -0.0011
14975TIP3   OH266339   1.387   3.655  15.136  0.5247  0.5755 -0.0127
14975TIP3    H166340   1.358   3.743  15.160 -2.1192 -0.5683  1.3453
14975TIP3    H266341   1.422   3.619  15.218 -2.0261 -0.9056  0.5277
14976TIP3   OH266342   4.121   4.650   4.358  0.5484 -0.3908  0.6965
14976TIP3    H166343   4.067   4.673   4.283 -1.2908 -1.9736  1.4430
14976TIP3    H266344   4.169   4.572   4.330  3.1555  1.4350 -0.2261
14977TIP3   OH266345   2.564   4.127  14.203 -0.1749  0.3341 -0.2150
14977TIP3    H166346   2.484   4.103  14.248  0.9138 -0.3424  1.4830
14977TIP3    H266347   2.598   4.201  14.254 -0.2726  1.3687 -1.5964
14978TIP3   OH266348   4.111   0.909  17.035  0.2274  0.5343  0.0355
14978TIP3    H166349   4.180   0.844  17.027 -0.8945 -0.5593 -1.2218
14978TIP3    H266350   4.091   0.912  17.128  0.6787 -0.4974  0.1753
14979TIP3   OH266351   5.131   4.835   2.041  0.4056 -0.5014 -0.4896
14979TIP3    H166352   5.139   4.807   1.950 -1.1608 -1.3135 -0.4080
14979TIP3    H266353   5.108   4.755   2.088  0.7835 -0.0071  0.5594
14980TIP3   OH266354   3.225   0.339   3.869  0.2619 -0.5125 -0.6373
14980TIP3    H166355   3.196   0.272   3.808 -0.9048  0.0110 -0.6927
14980TIP3    H266356   3.155   0.405   3.867 -0.6067 -1.1669  2.3407
14981TIP3   OH266357   5.011   3.781   4.348  0.2273 -0.5230  0.8360
14981TIP3    H166358   5.004   3.686   4.351  0.5836 -0.7590 -2.4055
14981TIP3    H266359   5.079   3.802   4.412 -0.0486 -2.3879  1.8171
14982TIP3   OH266360   4.393   2.962  16.531  0.0230 -0.4179 -0.0709
14982TIP3    H166361   4.387   3.044  16.484  1.4791 -0.8551 -1.1053
14982TIP3    H266362   4.387   2.986  16.623  1.1544  0.9495 -0.3247
14983TIP3   OH266363   3.418   0.153   3.378 -0.0726 -0.1237  0.0654
14983TIP3    H166364   3.339   0.169   3.430  1.1529 -1.0309  2.3721
14983TIP3    H266365   3.455   0.240   3.364 -0.3786  0.1520  0.8657
14984TIP3   OH266366   5.912   3.137  15.134 -0.5484  0.2333  0.0032
14984TIP3    H166367   5.868   3.175  15.058 -0.4749  0.3847  0.0359
14984TIP3    H266368   5.855   3.064  15.161  0.4721 -1.1817 -1.4812
14985TIP3   OH266369   3.069   1.612  13.458 -0.1578  0.5753 -0.0382
14985TIP3    H166370   3.046   1.700  13.427 -2.4363  0.4581  1.0867
14985TIP3    H266371   3.074   1.619  13.553 -0.2397 -0.4673  0.0648
14986TIP3   OH266372   6.213   1.492   3.352  0.1797  0.2568  0.2070
14986TIP3    H166373   6.281   1.506   3.417 -0.7192  0.9271  1.0347
14986TIP3    H266374   6.151   1.563   3.366  0.0975  0.5899 -1.5888
14987TIP3   OH266375   5.481   4.171  10.550 -0.6263 -0.0842  0.1214
14987TIP3    H166376   5.406   4.142  10.499 -1.0011  2.1688 -0.7119
14987TIP3    H266377   5.546   4.197  10.485 -0.1216  0.4114  0.8077
14988TIP3   OH266378   6.325   3.498  11.636  0.6696  0.1155 -0.3173
14988TIP3    H166379   6.286   3.580  11.666 -0.5910 -0.5956  0.0716
14988TIP3    H266380   6.390   3.475  11.702  0.8728  0.6862 -0.3193
14989TIP3   OH266381   4.164   3.159  16.145  0.4958  0.5772 -0.2419
14989TIP3    H166382   4.204   3.231  16.194  0.2215  0.2035  0.5560
14989TIP3    H266383   4.232   3.128  16.086  1.0147  0.6777  0.3011
14990TIP3   OH266384   1.419   0.351  14.559  0.3772 -0.6082 -0.2042
14990TIP3    H166385   1.366   0.429  14.574 -0.2323 -0.2386 -3.4705
14990TIP3    H266386   1.463   0.368  14.476  1.6604 -3.0290 -0.1172
14991TIP3   OH266387   4.488   6.276   1.594 -0.1505  0.0289  0.1971
14991TIP3    H166388   4.517   6.320   1.514 -1.3266 -0.4784 -0.5352
14991TIP3    H266389   4.516   6.185   1.583  1.2255  0.2961  1.1755
14992TIP3   OH266390   5.995   0.701  14.268  1.1090  0.2723  0.0621
14992TIP3    H166391   6.048   0.654  14.333 -0.2854 -1.3628  0.0692
14992TIP3    H266392   5.986   0.789  14.305 -0.1467 -0.7565  2.4455
14993TIP3   OH266393   4.874   5.761  12.194  0.0488 -0.4121  0.0571
14993TIP3    H166394   4.897   5.698  12.125 -0.7038 -1.4677  0.7499
14993TIP3    H266395   4.934   5.740  12.266  0.7717  0.6285 -0.2149
14994TIP3   OH266396   2.201   6.429   5.348 -0.4766  0.5147 -0.3190
14994TIP3    H166397   2.199   6.507   5.404  1.8310 -1.4833  2.9066
14994TIP3    H266398   2.265   6.449   5.280 -0.5467  1.6970 -0.0642
14995TIP3   OH266399   2.326   5.030   5.337  0.1413  0.0268 -0.0923
14995TIP3    H166400   2.360   5.081   5.263  0.9461  0.7722  0.7503
14995TIP3    H266401   2.383   4.953   5.342  1.6816  1.1706  1.1879
14996TIP3   OH266402   5.251   2.311   1.605 -0.1895  0.3317 -0.6043
14996TIP3    H166403   5.331   2.282   1.562 -0.2808 -1.3138  0.2470
14996TIP3    H266404   5.234   2.244   1.671 -1.7008  1.2029 -0.0602
14997TIP3   OH266405   4.335   6.220  16.739  0.4918 -0.0308 -0.4941
14997TIP3    H166406   4.423   6.248  16.764  1.2644 -0.8619 -2.0948
14997TIP3    H266407   4.295   6.299  16.700 -0.0573  0.7517  1.5299
14998TIP3   OH266408   0.519   2.384  13.986  0.2544 -0.1315 -0.5389
14998TIP3    H166409   0.445   2.392  14.046  0.1534  2.2414 -0.8575
14998TIP3    H266410   0.489   2.325  13.917 -0.5091 -0.9641  0.4879
14999TIP3   OH266411   2.998   4.446  14.422  0.2246 -0.3487 -0.6072
14999TIP3    H166412   2.920   4.404  14.459  0.2163  1.8757  2.2151
14999TIP3    H266413   2.967   4.529  14.388  1.4048  1.2257  1.8353
15000TIP3   OH266414   6.048   1.049  16.464 -0.0734  0.3955 -0.0065
15000TIP3    H166415   6.026   0.958  16.485 -0.0241  0.5402  0.6768
15000TIP3    H266416   6.093   1.081  16.542  1.9164  0.3336 -1.0483
15001TIP3   OH266417   4.021   3.604  16.839  0.3714  0.2753  0.2508
15001TIP3    H166418   3.947   3.544  16.842  0.7278 -0.1712  0.4083
15001TIP3    H266419   4.059   3.599  16.927 -0.7383  2.2285  0.8887
15002TIP3   OH266420   1.797   6.183   2.092 -0.0700 -0.0010  0.3613
15002TIP3    H166421   1.811   6.277   2.090 -0.2015  0.0069 -0.2273
15002TIP3    H266422   1.875   6.148   2.135  0.9222  0.2062 -1.1996
15003TIP3   OH266423   6.556   5.652   6.442  0.2358 -0.4664 -0.1712
15003TIP3    H166424   6.476   5.645   6.493 -0.1545  0.7584 -0.5879
15003TIP3    H266425   6.585   5.561   6.430 -0.0395 -0.8292  1.5857
15004TIP3   OH266426   4.857   4.022  15.476 -0.2760  0.3965 -0.0036
15004TIP3    H166427   4.910   4.101  15.463 -0.4358  0.5920  0.5091
15004TIP3    H266428   4.872   3.998  15.567 -1.5326  0.7931  0.3202
15005TIP3   OH266429   5.403   5.672   5.215  0.0693 -0.0895  0.4719
15005TIP3    H166430   5.359   5.755   5.235  0.4795  0.1509  0.3862
15005TIP3    H266431   5.411   5.670   5.120  0.3839 -0.0577  0.4957
15006TIP3   OH266432   1.406   5.716   2.490 -0.5175  0.0140  0.3577
15006TIP3    H166433   1.420   5.621   2.493  0.2808  0.1197  0.1291
15006TIP3    H266434   1.330   5.730   2.547 -0.1169 -0.6723  1.0888
15007TIP3   OH266435   5.999   4.396  12.738  0.0280 -0.2582 -0.4262
15007TIP3    H166436   6.028   4.305  12.732 -2.5800 -1.0643 -3.5808
15007TIP3    H266437   5.920   4.392  12.793  1.2120  0.6138  1.4565
15008TIP3   OH266438   0.090   5.455  11.322  0.3420  0.1837 -0.6922
15008TIP3    H166439   0.011   5.411  11.355 -0.4188  1.0817 -1.2627
15008TIP3    H266440   0.163   5.405  11.360 -0.4906 -1.0688 -0.6860
15009TIP3   OH266441   4.120   1.589  15.628 -0.0540 -0.0832 -0.1631
15009TIP3    H166442   4.211   1.619  15.619  0.2118 -0.5266  0.8949
15009TIP3    H266443   4.124   1.521  15.696 -1.1963 -0.0301 -0.0296
15010TIP3   OH266444   4.699   3.436   4.074  0.1050 -0.0487 -0.3806
15010TIP3    H166445   4.709   3.530   4.091  2.1828 -0.1027 -1.0533
15010TIP3    H266446   4.739   3.422   3.988 -0.7972 -1.4621 -0.6126
15011TIP3   OH266447   5.336   5.958   4.804 -0.1612 -0.3435 -0.1515
15011TIP3    H166448   5.348   5.919   4.717 -2.8116  0.3064 -0.8900
15011TIP3    H266449   5.375   5.894   4.864  2.4544 -0.4423 -1.7985
15012TIP3   OH266450   0.102   2.415   4.527  0.4931 -0.1824  0.2944
15012TIP3    H166451   0.107   2.511   4.527 -1.7228 -0.0321 -0.1777
15012TIP3    H266452   0.074   2.392   4.616 -1.1266 -0.2119 -0.1962
15013TIP3   OH266453   3.337   3.986  12.760  0.2611  0.8164 -0.1610
15013TIP3    H166454   3.368   4.074  12.780  1.3577  0.4525 -0.1900
15013TIP3    H266455   3.355   3.974  12.667  0.8307  0.2854  0.0136
15014TIP3   OH266456   6.550   3.670   6.511 -0.1822  0.5661  0.2996
15014TIP3    H166457   6.478   3.700   6.566  0.2126  0.3052  0.9625
15014TIP3    H266458   6.583   3.591   6.554  0.6749  0.8305  0.1526
15015TIP3   OH266459   3.645   5.873   2.922 -0.0045  0.1700  0.8448
15015TIP3    H166460   3.731   5.910   2.944  0.2357  1.3690 -1.6588
15015TIP3    H266461   3.638   5.794   2.975  1.7580  1.1093  2.5883
15016TIP3   OH266462   4.420   0.227  11.169  0.4831  0.2264 -0.0909
15016TIP3    H166463   4.429   0.135  11.191  1.6928  0.3147 -0.1168
15016TIP3    H266464   4.461   0.235  11.083  2.6382  1.1809  0.9465
15017TIP3   OH266465   1.415   4.569  11.170  0.6275 -0.7233 -0.0283
15017TIP3    H166466   1.415   4.614  11.086 -0.7762 -0.3434  0.1365
15017TIP3    H266467   1.505   4.573  11.201  0.3411  3.4822  0.7583
15018TIP3   OH266468   5.204   5.064   5.599  0.6681 -0.2190  0.4615
15018TIP3    H166469   5.139   5.134   5.610 -0.2292 -0.6412 -1.6633
15018TIP3    H266470   5.215   5.027   5.687 -2.6163 -0.6765  0.7998
15019TIP3   OH266471   4.816   2.852   2.195 -0.8053  0.0193 -0.2965
15019TIP3    H166472   4.747   2.918   2.201 -0.4510  0.3014  1.0245
15019TIP3    H266473   4.868   2.879   2.119 -1.0532  0.8733 -0.1781
15020TIP3   OH266474   3.233   2.130   4.941 -0.0782  0.0731 -0.1947
15020TIP3    H166475   3.159   2.069   4.941 -0.5949  0.5436 -2.9751
15020TIP3    H266476   3.293   2.093   4.876  0.6401  1.3300 -0.2673
15021TIP3   OH266477   2.541   3.686   2.233  0.1675  0.7152 -0.2345
15021TIP3    H166478   2.518   3.606   2.187  1.3448  0.2206 -0.0011
15021TIP3    H266479   2.628   3.708   2.200  1.2899  0.0380  2.1074
15022TIP3   OH266480   3.420   3.786  15.171  0.0500 -0.0740 -0.0007
15022TIP3    H166481   3.351   3.720  15.179 -0.4821  0.6577  2.2689
15022TIP3    H266482   3.479   3.751  15.104 -0.7462 -2.3469  0.3913
15023TIP3   OH266483   3.437   4.905   6.563 -0.5826  0.3760  0.0320
15023TIP3    H166484   3.402   4.825   6.602 -1.9064  1.3709  1.0009
15023TIP3    H266485   3.363   4.945   6.518 -0.7162  2.3698  1.8381
15024TIP3   OH266486   4.353   1.902   2.884  0.2276  0.0116 -0.7748
15024TIP3    H166487   4.393   1.890   2.798  1.3705  0.7184 -0.3655
15024TIP3    H266488   4.296   1.978   2.874 -0.6082 -0.6647 -1.2199
15025TIP3   OH266489   3.172   5.297   5.394 -0.1213  0.0618  0.1955
15025TIP3    H166490   3.222   5.216   5.400  0.6977  0.4420 -1.1465
15025TIP3    H266491   3.082   5.271   5.415  0.0938 -1.2177 -0.3627
15026TIP3   OH266492   5.525   2.570  12.054 -0.2331 -0.1721  0.5768
15026TIP3    H166493   5.536   2.664  12.070  0.4212 -0.1012 -0.2421
15026TIP3    H266494   5.432   2.554  12.072 -0.6248  0.8682 -0.4067
15027TIP3   OH266495   0.340   3.288  11.107 -0.0533 -0.0168 -0.5457
15027TIP3    H166496   0.246   3.272  11.117  0.1706 -0.1256  2.5026
15027TIP3    H266497   0.361   3.350  11.177  2.0449  0.5206 -1.5817
15028TIP3   OH266498   4.267   5.901   4.769  0.0833 -0.0227 -0.0726
15028TIP3    H166499   4.272   5.810   4.739  1.1205 -0.1758  0.5385
15028TIP3    H266500   4.239   5.949   4.691  0.1269 -0.7817 -0.5752
15029TIP3   OH266501   3.371   6.109   1.609  0.1106  0.3587 -0.1422
15029TIP3    H166502   3.278   6.091   1.619  0.6479 -3.1675 -0.2332
15029TIP3    H266503   3.386   6.105   1.514  0.5406 -0.6259 -0.0511
15030TIP3   OH266504   1.378   2.506   0.896 -0.0679  0.5554  0.0670
15030TIP3    H166505   1.327   2.544   0.824 -0.3963 -0.5551 -0.3010
15030TIP3    H266506   1.312   2.473   0.957  0.2131  0.9260  0.5822
15031TIP3   OH266507   3.680   3.436  15.095 -0.0489 -0.1550  0.2009
15031TIP3    H166508   3.760   3.489  15.097 -0.6294  0.7783 -0.4355
15031TIP3    H266509   3.694   3.374  15.024 -0.3812  0.8678 -0.8020
15032TIP3   OH266510   6.591   1.523   0.123 -0.0113 -0.5624 -0.6886
15032TIP3    H166511   6.514   1.554   0.076  0.2369 -3.1456 -3.0975
15032TIP3    H266512   6.665   1.569   0.082 -0.0475 -0.3004 -0.4606
15033TIP3   OH266513   1.376   3.861  15.324  0.0907 -0.1238 -0.0597
15033TIP3    H166514   1.464   3.837  15.295  1.1603  1.4590  1.6842
15033TIP3    H266515   1.360   3.806  15.401  0.7216  1.4480  1.2559
15034TIP3   OH266516   5.275   6.571  11.248 -0.4462 -0.1818 -0.3285
15034TIP3    H166517   5.352   6.556  11.194 -0.1638  0.7548 -0.2029
15034TIP3    H266518   5.284   6.510  11.322 -0.0076 -0.3153 -0.4927
15035TIP3   OH266519   1.884   1.821  14.176 -0.5231 -0.7478  0.5150
15035TIP3    H166520   1.801   1.864  14.157 -0.0715 -0.3076 -0.5596
15035TIP3    H266521   1.916   1.793  14.090  0.8311 -0.1818  0.8121
15036TIP3   OH266522   1.674   3.308   2.811 -0.7240  0.2725 -0.2483
15036TIP3    H166523   1.675   3.342   2.722  0.0375 -2.4661 -1.4164
15036TIP3    H266524   1.585   3.274   2.823 -0.1682 -1.6117 -1.0125
15037TIP3   OH266525   4.104   2.542   0.833 -0.4265 -0.5033 -0.6037
15037TIP3    H166526   4.131   2.516   0.921 -0.4563  1.3331  0.0007
15037TIP3    H266527   4.185   2.538   0.781  0.1101  0.6728  0.1043
15038TIP3   OH266528   5.214   6.516  13.964  0.1706  0.3052  0.1439
15038TIP3    H166529   5.186   6.534  14.054 -1.7132  1.4356 -0.6058
15038TIP3    H266530   5.178   6.588  13.913 -1.1436 -1.6724 -1.9038
15039TIP3   OH266531   2.771   0.001   0.538  0.3010  0.3570  0.2298
15039TIP3    H166532   2.725   0.023   0.619 -0.2184 -1.2730  0.4316
15039TIP3    H266533   2.705   0.012   0.469 -0.3918 -1.6681  0.4829
15040TIP3   OH266534   2.157   1.583  15.589  0.0330  0.6922  0.6478
15040TIP3    H166535   2.235   1.631  15.558 -2.1845  3.4690 -1.2059
15040TIP3    H266536   2.113   1.556  15.509  0.2110 -3.0722  1.6616
15041TIP3   OH266537   6.038   6.296   6.124 -0.1317  0.1825 -0.1253
15041TIP3    H166538   6.009   6.359   6.190 -0.4095  0.8998 -0.9090
15041TIP3    H266539   6.120   6.260   6.158  0.3507  1.4270  0.0476
15042TIP3   OH266540   5.749   1.655   5.382  0.0470 -0.3582  0.3890
15042TIP3    H166541   5.742   1.750   5.375 -3.3367 -0.5929 -1.3519
15042TIP3    H266542   5.775   1.639   5.473  2.4127  2.1852  0.2847
15043TIP3   OH266543   0.163   4.627  15.185  0.1762 -0.3722 -0.4011
15043TIP3    H166544   0.233   4.677  15.144  0.7773 -0.1268  0.8954
15043TIP3    H266545   0.083   4.659  15.142  0.4856  2.0262  0.6462
15044TIP3   OH266546   5.094   1.574  16.757  0.3240 -0.0124  0.4759
15044TIP3    H166547   5.114   1.665  16.777 -0.5783  0.2949  0.0460
15044TIP3    H266548   5.179   1.530  16.757  0.5955  0.3582  2.9036
15045TIP3   OH266549   6.283   1.054   0.173 -0.1314 -0.1148 -0.5497
15045TIP3    H166550   6.205   1.108   0.161 -0.4826 -0.7712 -1.3496
15045TIP3    H266551   6.333   1.098   0.241 -2.3302 -0.9279  1.7651
15046TIP3   OH266552   1.329   4.730  12.665 -0.3872 -0.1278 -0.5038
15046TIP3    H166553   1.353   4.764  12.579 -0.0837 -2.0580 -1.2494
15046TIP3    H266554   1.388   4.655  12.677 -2.0255 -1.3323  0.3150
15047TIP3   OH266555   4.259   1.337   2.389 -0.0687 -0.0778  0.1702
15047TIP3    H166556   4.249   1.321   2.483 -0.3457 -1.2161 -0.0363
15047TIP3    H266557   4.262   1.432   2.381 -0.5176  0.0490  1.2873
15048TIP3   OH266558   6.545   6.418  13.176 -0.0737 -0.6490 -0.1688
15048TIP3    H166559   6.621   6.454  13.222 -0.1499 -0.3186 -0.2964
15048TIP3    H266560   6.505   6.494  13.133 -0.5677 -0.7878  0.0294
15049TIP3   OH266561   6.739   3.484  16.591  0.2867 -0.0460 -0.2607
15049TIP3    H166562   6.737   3.438  16.675  0.1990 -1.4117 -0.9831
15049TIP3    H266563   6.707   3.572  16.611  0.2262 -0.3621  1.1236
15050TIP3   OH266564   1.525   6.569   0.393  0.0270 -0.4206  0.5381
15050TIP3    H166565   1.581   6.640   0.361  0.9988 -1.3044  0.2530
15050TIP3    H266566   1.474   6.610   0.463 -0.8893  1.1002 -0.9189
15051TIP3   OH266567   4.906   5.074   0.015 -0.0188  0.0937 -0.2269
15051TIP3    H166568   4.843   5.146   0.015 -0.3738 -0.1363  2.3043
15051TIP3    H266569   4.935   5.068  -0.076 -0.8746  2.6248 -0.7490
15052TIP3   OH266570   6.755   0.735  12.836 -0.2163  0.4683 -0.5069
15052TIP3    H166571   6.780   0.664  12.777 -1.5826 -0.2540 -0.2506
15052TIP3    H266572   6.710   0.798  12.779 -0.5028  0.3278 -0.4337
15053TIP3   OH266573   4.453   4.361   0.842 -0.1707  0.3600 -0.1882
15053TIP3    H166574   4.398   4.365   0.764  0.7049  0.3920 -0.8120
15053TIP3    H266575   4.413   4.292   0.896 -0.0490 -0.5598 -1.2376
15054TIP3   OH266576   1.285   1.324   1.055 -0.2987 -0.2131  0.6086
15054TIP3    H166577   1.199   1.341   1.017 -0.8288  1.2944  2.2881
15054TIP3    H266578   1.266   1.284   1.140  0.8115 -2.9617 -0.3310
15055TIP3   OH266579   2.495   2.865  12.715 -0.1422  0.1749  0.1621
15055TIP3    H166580   2.482   2.771  12.724  2.0009 -0.1581  0.2522
15055TIP3    H266581   2.567   2.873  12.653  1.1557  1.6596  1.7733
15056TIP3   OH266582   3.741   2.714  16.102 -0.5052 -0.2528 -0.2176
15056TIP3    H166583   3.817   2.771  16.117  0.2932 -1.0676 -0.9947
15056TIP3    H266584   3.665   2.769  16.119  0.2529  0.8943 -0.4526
15057TIP3   OH266585   4.921   1.123  12.857 -0.2426 -0.4388 -0.3203
15057TIP3    H166586   4.904   1.184  12.928  1.4210  0.0178 -0.2647
15057TIP3    H266587   4.868   1.046  12.878 -1.3398  0.4613  0.3130
15058TIP3   OH266588   3.583   5.693  15.459  0.3394 -0.3924  0.7684
15058TIP3    H166589   3.534   5.773  15.439 -0.8847 -1.2330  0.2879
15058TIP3    H266590   3.567   5.677  15.552  0.1397 -0.3799  0.7351
15059TIP3   OH266591   2.991   5.426  12.069 -0.2411  0.4521  0.3353
15059TIP3    H166592   2.972   5.515  12.097 -0.4576  0.3668  0.4635
15059TIP3    H266593   3.086   5.424  12.058 -0.2370  0.7020  0.3150
15060TIP3   OH266594   5.471   2.356   3.057 -0.7897  0.0533 -0.0140
15060TIP3    H166595   5.392   2.383   3.010 -0.4329 -0.3476 -0.8689
15060TIP3    H266596   5.530   2.431   3.050 -0.3112 -0.4072 -1.2140
15061TIP3   OH266597   4.115   1.538  17.081 -0.3040  0.1844 -0.4444
15061TIP3    H166598   4.199   1.514  17.042 -0.5385  1.3366 -1.7599
15061TIP3    H266599   4.138   1.600  17.150  0.0018 -0.5163  0.0961
15062TIP3   OH266600   4.523   4.900  12.818  0.0048 -0.4826 -0.3655
15062TIP3    H166601   4.613   4.875  12.795  0.6341  0.7825  0.5827
15062TIP3    H266602   4.498   4.837  12.885  0.0931 -0.9859 -0.7990
15063TIP3   OH266603   1.792   0.386   1.833  0.3101  0.3166 -0.9404
15063TIP3    H166604   1.840   0.376   1.751  1.6968  2.6287 -0.4974
15063TIP3    H266605   1.772   0.479   1.838 -0.4820  0.0878  0.9654
15064TIP3   OH266606   4.297   4.581   1.976  0.1671 -0.1006  0.3050
15064TIP3    H166607   4.289   4.591   2.070  1.5048 -0.5054  0.4828
15064TIP3    H266608   4.224   4.524   1.951 -0.1065 -0.1109  1.1214
15065TIP3   OH266609   2.530   2.949  16.192 -0.1607  0.3553 -0.0949
15065TIP3    H166610   2.577   2.865  16.192 -0.9304 -0.1880 -2.7323
15065TIP3    H266611   2.438   2.925  16.206 -0.6863  0.4263 -2.8925
15066TIP3   OH266612   0.242   1.838   4.295 -0.2864  0.2412 -0.2575
15066TIP3    H166613   0.240   1.767   4.231 -0.8613 -0.2884  0.3373
15066TIP3    H266614   0.294   1.906   4.253  0.2339 -0.5083 -0.8597
15067TIP3   OH266615   2.003   0.405  10.202 -0.1238 -0.0076 -0.0606
15067TIP3    H166616   1.942   0.451  10.144 -0.3245 -0.8571 -0.5499
15067TIP3    H266617   2.044   0.340  10.145  0.0720 -0.4986  0.6391
15068TIP3   OH266618   5.525   3.365  12.796  0.0029 -0.7595  0.0828
15068TIP3    H166619   5.487   3.294  12.846 -0.3003 -1.3951 -1.0093
15068TIP3    H266620   5.503   3.444  12.845  0.6679 -1.4224  1.5169
15069TIP3   OH266621   4.782   6.355  11.490 -0.0724 -0.4797  0.3695
15069TIP3    H166622   4.755   6.293  11.422  0.2989 -1.1888  0.8486
15069TIP3    H266623   4.820   6.300  11.558 -0.0766  0.2530  0.9768
15070TIP3   OH266624   0.784   0.359  15.983 -0.5475 -0.1763  0.0055
15070TIP3    H166625   0.816   0.443  16.016 -0.5894 -0.0629 -0.2403
15070TIP3    H266626   0.845   0.336  15.913 -2.1984  1.1141 -1.9858
15071TIP3   OH266627   6.675   5.172  14.847  0.3133 -0.1578 -0.1563
15071TIP3    H166628   6.593   5.132  14.876 -0.3872  1.3395 -0.0278
15071TIP3    H266629   6.740   5.102  14.858 -0.6805 -0.9364  1.0400
15072TIP3   OH266630   6.244   1.178  10.513  0.3892  0.2879  0.1070
15072TIP3    H166631   6.299   1.153  10.588  0.3968  0.3242  0.1132
15072TIP3    H266632   6.301   1.166  10.437  0.1074 -0.5871  0.0262
15073TIP3   OH266633   2.698   5.385  14.799 -0.5964 -0.5214 -0.0173
15073TIP3    H166634   2.647   5.304  14.797  1.4602 -1.9103  0.7360
15073TIP3    H266635   2.738   5.389  14.712 -0.6743 -0.3277 -0.0438
15074TIP3   OH266636   5.057   5.929  13.136 -0.1846  0.2938  0.3311
15074TIP3    H166637   5.056   6.018  13.100 -1.0230 -0.1574 -0.8635
15074TIP3    H266638   5.148   5.913  13.160  0.0507  1.3232  0.1805
15075TIP3   OH266639   3.233   3.758  17.080  0.2820 -0.3818 -0.0040
15075TIP3    H166640   3.179   3.696  17.129 -2.3260  0.0302 -2.0915
15075TIP3    H266641   3.272   3.706  17.010 -0.8849  0.0441 -1.0016
15076TIP3   OH266642   5.642   5.582   1.743  0.3496 -0.3969  0.1072
15076TIP3    H166643   5.600   5.561   1.660  0.0941 -0.9809  0.3721
15076TIP3    H266644   5.727   5.539   1.739  1.9392  2.6410 -1.3476
15077TIP3   OH266645   6.144   5.275   3.908 -0.0516 -0.2249 -0.0121
15077TIP3    H166646   6.091   5.247   3.982 -1.8352 -0.4165 -1.3034
15077TIP3    H266647   6.234   5.251   3.933 -0.5161  0.1614  2.2609
15078TIP3   OH266648   0.817   6.662   0.044 -0.5911 -0.0358 -0.2474
15078TIP3    H166649   0.784   6.747   0.014 -0.8285 -0.1700 -0.3733
15078TIP3    H266650   0.746   6.628   0.100 -0.9026 -0.5691 -0.9563
15079TIP3   OH266651   3.050   5.701  14.860  0.2991  0.3316 -0.0882
15079TIP3    H166652   3.122   5.660  14.906 -1.2904 -0.6282  1.6777
15079TIP3    H266653   3.044   5.654  14.777  0.6503 -0.7312  0.4739
15080TIP3   OH266654   1.548   0.253  12.710  0.0023  0.9190  0.0885
15080TIP3    H166655   1.461   0.248  12.671  0.1588 -1.5671 -0.1248
15080TIP3    H266656   1.594   0.320  12.660 -1.1609  0.8372 -1.1197
15081TIP3   OH266657   1.051   4.687   5.845  0.2396  0.0675 -0.3761
15081TIP3    H166658   1.032   4.774   5.809 -0.1052  0.2761  0.2921
15081TIP3    H266659   1.106   4.705   5.922  0.5380 -0.3381 -0.4882
15082TIP3   OH266660   5.381   0.742  16.500  0.3013 -0.2056 -0.3681
15082TIP3    H166661   5.387   0.835  16.520  1.8046 -0.0902 -1.2450
15082TIP3    H266662   5.361   0.701  16.585  0.2339  0.8438  0.1385
15083TIP3   OH266663   0.100   6.607   3.973  0.1572 -0.5804 -0.1424
15083TIP3    H166664   0.019   6.557   3.967  0.2124 -0.5475 -1.4647
15083TIP3    H266665   0.074   6.692   4.008 -0.4137 -0.5280 -0.6790
15084TIP3   OH266666   0.407   4.993  13.805  0.0598 -0.1020  0.0118
15084TIP3    H166667   0.491   4.946  13.802  0.2743  0.3113 -0.5961
15084TIP3    H266668   0.353   4.940  13.864  0.6414 -0.5448  0.1659
15085TIP3   OH266669   4.374   3.055   6.033  0.3649 -0.5708  0.0363
15085TIP3    H166670   4.381   3.066   5.938  0.6496 -0.7305  0.0372
15085TIP3    H266671   4.280   3.059   6.051  0.4031  3.0273  0.1662
15086TIP3   OH266672   1.818   5.622   3.941 -0.3794 -0.0944 -0.1474
15086TIP3    H166673   1.829   5.562   3.867  0.0903 -1.1460  0.7380
15086TIP3    H266674   1.876   5.587   4.008  0.9729  2.1422 -0.0356
15087TIP3   OH266675   5.518   3.413   2.767 -0.2948 -0.0486 -0.1791
15087TIP3    H166676   5.550   3.426   2.857 -2.9278  0.5718  0.7505
15087TIP3    H266677   5.524   3.499   2.727 -0.0996 -0.0984 -0.2582
15088TIP3   OH266678   4.254   2.740  15.627 -0.2176 -0.1121 -0.2405
15088TIP3    H166679   4.258   2.730  15.722  0.2402  0.1166 -0.2329
15088TIP3    H266680   4.345   2.729  15.598 -0.2519  0.4735 -0.5836
15089TIP3   OH266681   4.161   0.328  11.086  0.5825 -0.0225 -0.3707
15089TIP3    H166682   4.171   0.292  10.998  1.0119  0.3915 -0.4950
15089TIP3    H266683   4.241   0.303  11.132 -0.1614 -1.2895  0.2915
15090TIP3   OH266684   6.111   4.320  10.431 -0.4434  0.0471 -0.0529
15090TIP3    H166685   6.164   4.364  10.497  1.0110 -0.0739 -1.1083
15090TIP3    H266686   6.172   4.264  10.383 -1.7801 -1.1648 -0.4186
15091TIP3   OH266687   1.161   6.723  16.966 -0.5321 -0.2438  0.2269
15091TIP3    H166688   1.184   6.786  17.034  0.9959  0.0668 -0.5265
15091TIP3    H266689   1.141   6.642  17.013  1.2803 -0.2659  1.0646
15092TIP3   OH266690   5.586   5.809   3.411  0.8473  0.6523 -0.0673
15092TIP3    H166691   5.628   5.742   3.358 -2.9877 -1.0673 -1.2838
15092TIP3    H266692   5.611   5.789   3.501  0.0388 -2.2954 -0.4264
15093TIP3   OH266693   2.674   0.271  14.222  0.0757  0.2891  0.1247
15093TIP3    H166694   2.677   0.333  14.296  3.3807  0.1885  0.2175
15093TIP3    H266695   2.672   0.327  14.144  0.5619  0.4789  0.2459
15094TIP3   OH266696   2.916   4.696  12.791 -0.3848  0.1070  0.4224
15094TIP3    H166697   2.898   4.632  12.722 -2.2216  2.6193 -1.5891
15094TIP3    H266698   2.996   4.663  12.833  1.0533 -1.3817 -3.0901
15095TIP3   OH266699   0.833   3.275   1.637 -0.2919 -0.2780 -0.0811
15095TIP3    H166700   0.785   3.295   1.718 -0.3941 -0.2021 -0.1617
15095TIP3    H266701   0.925   3.287   1.661 -0.3906  4.7617 -1.2800
15096TIP3   OH266702   0.941   4.765  11.882 -0.9880  0.2452 -0.4803
15096TIP3    H166703   0.913   4.825  11.813  0.8415  0.4961 -1.0737
15096TIP3    H266704   1.017   4.808  11.921 -1.5258 -0.2632  1.1874
15097TIP3   OH266705   5.643   6.539   6.119  0.6852  0.0748 -0.4565
15097TIP3    H166706   5.643   6.626   6.158  3.8687  0.2676 -0.6351
15097TIP3    H266707   5.672   6.481   6.189 -0.9711 -0.8556 -0.4727
15098TIP3   OH266708   1.230   6.092   0.026 -0.0203 -0.2124 -0.1319
15098TIP3    H166709   1.143   6.067  -0.004 -0.5050 -1.3530  2.0111
15098TIP3    H266710   1.216   6.167   0.084  0.1667 -1.3047  1.4072
15099TIP3   OH266711   2.590   1.526   6.186 -0.0918 -0.5168  0.2012
15099TIP3    H166712   2.604   1.524   6.091 -0.3570  1.7788  0.0665
15099TIP3    H266713   2.676   1.546   6.223  0.0278 -1.4862  0.4695
15100TIP3   OH266714   0.283   5.870  14.525 -0.5097  0.1105 -0.3070
15100TIP3    H166715   0.331   5.799  14.483 -1.8387  0.3731 -2.3725
15100TIP3    H266716   0.351   5.921  14.570  0.6920 -1.3945 -0.3503
15101TIP3   OH266717   3.697   2.488  14.738  0.2462  0.0827 -0.0761
15101TIP3    H166718   3.734   2.416  14.687  0.9319  0.7352 -0.5186
15101TIP3    H266719   3.760   2.560  14.728 -0.5864  0.8567  0.0709
15102TIP3   OH266720   2.241   1.905  11.128  0.4089  0.5374  0.1216
15102TIP3    H166721   2.314   1.946  11.082 -0.5405  3.6383  1.1649
15102TIP3    H266722   2.238   1.949  11.213 -0.9307 -1.5432  1.2431
15103TIP3   OH266723   6.050   3.890  11.871 -0.7253 -0.2592 -0.2864
15103TIP3    H166724   5.961   3.890  11.836 -0.0944 -1.6560 -2.0946
15103TIP3    H266725   6.079   3.981  11.863 -1.2130 -0.2092 -1.9483
15104TIP3   OH266726   5.927   5.796   1.579  0.0481 -0.1291 -0.0680
15104TIP3    H166727   5.835   5.780   1.555 -0.4874 -0.1697  1.8924
15104TIP3    H266728   5.973   5.718   1.549 -1.0199 -1.2946  1.2009
15105TIP3   OH266729   1.150   5.567  16.242  0.1951 -0.5856 -0.9638
15105TIP3    H166730   1.242   5.589  16.254  0.3200 -1.4804 -0.1512
15105TIP3    H266731   1.102   5.631  16.295  0.3107  0.1928 -1.7876
15106TIP3   OH266732   0.014   5.126  11.040  0.0922  0.0614 -0.0795
15106TIP3    H166733   0.048   5.104  10.954 -1.4298  1.9833 -1.2549
15106TIP3    H266734  -0.081   5.129  11.029 -0.3245 -1.6829  2.2181
15107TIP3   OH266735   5.676   2.646  15.466 -0.1580  0.0409 -0.0522
15107TIP3    H166736   5.728   2.691  15.532 -1.1172 -1.7490  2.0546
15107TIP3    H266737   5.618   2.714  15.431  1.6195  1.4299 -0.4446
15108TIP3   OH266738   0.352   0.407  12.015 -0.2709 -0.0720 -0.3548
15108TIP3    H166739   0.339   0.438  11.926 -0.1307  1.4945  0.1469
15108TIP3    H266740   0.274   0.355  12.034 -0.7232  0.3272 -1.0776
15109TIP3   OH266741   5.563   5.959  12.953  0.5437 -0.1719  0.0229
15109TIP3    H166742   5.651   5.925  12.942  0.7231  0.8638 -2.1019
15109TIP3    H266743   5.510   5.914  12.887  0.0454  1.0660 -0.4581
15110TIP3   OH266744   0.313   5.607  15.137  0.2793 -0.4334  0.2604
15110TIP3    H166745   0.277   5.574  15.219  3.0490 -2.7699  0.7347
15110TIP3    H266746   0.299   5.536  15.075 -1.3872  1.1368 -1.2653
15111TIP3   OH266747   4.189   3.341  16.967 -0.4793 -0.5861 -0.3215
15111TIP3    H166748   4.118   3.278  16.981 -0.6229 -0.3363  0.0811
15111TIP3    H266749   4.254   3.318  17.033 -0.9534  0.2973  0.4698
15112TIP3   OH266750   5.869   6.752   4.286  0.1162  0.3420  0.0371
15112TIP3    H166751   5.791   6.794   4.249  0.7262  0.6385 -0.9435
15112TIP3    H266752   5.845   6.732   4.376 -1.1302  0.3439 -0.2771
15113TIP3   OH266753   0.041   1.038   1.765  0.2101  0.9008  0.5345
15113TIP3    H166754   0.055   1.067   1.855  0.0068  1.4567  0.3940
15113TIP3    H266755  -0.041   0.989   1.767  1.6063 -1.5897  1.1902
15114TIP3   OH266756   3.093   3.718   5.510  0.1180  0.3975  0.3843
15114TIP3    H166757   3.056   3.803   5.485 -1.1012 -0.8798 -2.6029
15114TIP3    H266758   3.178   3.715   5.465  0.6240  0.4117  1.3186
15115TIP3   OH266759   1.806   0.476  16.021 -0.2551 -0.4026  0.1747
15115TIP3    H166760   1.882   0.429  15.987 -0.9486 -0.1598 -1.8718
15115TIP3    H266761   1.733   0.445  15.967 -0.8592  2.4399 -0.7690
15116TIP3   OH266762   1.826   4.714  14.399  0.4401 -0.1259 -0.0609
15116TIP3    H166763   1.785   4.776  14.338 -0.9665 -0.5209  0.4659
15116TIP3    H266764   1.916   4.705  14.366  1.0698  3.0050  0.4520
15117TIP3   OH266765   3.108   2.020  15.213 -0.1813  0.7098 -0.7418
15117TIP3    H166766   3.151   2.071  15.145 -0.9482  0.1850 -1.6436
15117TIP3    H266767   3.014   2.031  15.196 -0.4610  2.1037  1.3765
15118TIP3   OH266768   2.747   2.605  11.246  0.3197 -0.2508 -0.1868
15118TIP3    H166769   2.752   2.666  11.172  1.3545 -0.3741 -0.2250
15118TIP3    H266770   2.719   2.522  11.206  0.6785 -0.2660 -0.4080
15119TIP3   OH266771   5.471   3.433  16.316 -0.3991 -0.5660  0.4112
15119TIP3    H166772   5.476   3.426  16.221 -0.0233 -0.3105  0.4073
15119TIP3    H266773   5.560   3.456  16.343 -0.8336  0.8697  0.6976
15120TIP3   OH266774   6.712   3.093   0.200 -0.2103 -0.1898 -0.0178
15120TIP3    H166775   6.618   3.077   0.192 -0.4960  0.4041  1.6420
15120TIP3    H266776   6.718   3.175   0.249  1.1599 -0.5803  0.5245
15121TIP3   OH266777   2.905   6.651   1.571 -0.1932 -0.4445  0.2494
15121TIP3    H166778   2.966   6.725   1.574 -0.1382 -0.4430 -0.7569
15121TIP3    H266779   2.962   6.574   1.565 -0.2575 -0.5567  1.0026
15122TIP3   OH266780   1.492   0.764   5.136  0.2784 -0.5514  0.2155
15122TIP3    H166781   1.464   0.854   5.156  1.4151 -0.1456  0.0776
15122TIP3    H266782   1.476   0.715   5.216  3.5082  0.7399  1.8248
15123TIP3   OH266783   5.570   3.106  16.759 -0.3486 -0.3387 -0.3246
15123TIP3    H166784   5.664   3.086  16.750 -0.3611 -0.6835  0.2909
15123TIP3    H266785   5.566   3.170  16.830 -0.5892 -0.4316 -0.2536
15124TIP3   OH266786   4.070   3.045  12.491  0.0258 -0.1470 -0.3134
15124TIP3    H166787   4.043   3.122  12.542  1.8063 -1.0977  2.2717
15124TIP3    H266788   4.166   3.049  12.491  0.1085 -1.0402 -2.3828
15125TIP3   OH266789   6.619   2.711  11.814 -0.0406 -0.2354 -0.8960
15125TIP3    H166790   6.633   2.717  11.719 -0.8437  2.8206 -0.9299
15125TIP3    H266791   6.693   2.760  11.851  0.0509 -1.0764  0.0590
15126TIP3   OH266792   6.556   2.565  14.676 -0.8796  0.6689  0.5605
15126TIP3    H166793   6.598   2.581  14.760 -1.1465  0.6643  0.6949
15126TIP3    H266794   6.520   2.476  14.684  0.6041 -0.0507 -0.1774
15127TIP3   OH266795   5.099   4.775  16.931  0.5554 -0.9016 -0.4040
15127TIP3    H166796   5.085   4.681  16.915 -0.2977 -0.6600 -1.1649
15127TIP3    H266797   5.051   4.818  16.860 -0.1363  0.1514  0.6777
15128TIP3   OH266798   3.502   4.254  13.970 -0.0563  0.1664  0.1516
15128TIP3    H166799   3.521   4.340  14.006 -1.2363  0.1773  0.8018
15128TIP3    H266800   3.464   4.272  13.885  0.5314  0.2414 -0.1008
15129TIP3   OH266801   4.860   5.893  13.451  0.0212  0.7663 -0.4312
15129TIP3    H166802   4.895   5.820  13.399 -0.6713 -0.0824  0.2503
15129TIP3    H266803   4.937   5.936  13.486  0.4794 -1.3280  1.3891
15130TIP3   OH266804   4.353   6.148   3.620 -0.3325 -0.4660  0.3332
15130TIP3    H166805   4.434   6.101   3.641 -0.0976 -1.3363 -2.1710
15130TIP3    H266806   4.383   6.231   3.583 -0.5021 -1.0554 -1.2055
15131TIP3   OH266807   5.116   3.999   0.250 -0.7471  0.3346  0.6658
15131TIP3    H166808   5.128   4.078   0.198  1.4406  2.1640  3.5734
15131TIP3    H266809   5.180   3.937   0.215 -1.9237  0.0835 -1.1266
15132TIP3   OH266810   6.812   3.745   5.975  0.2906  0.1805 -0.3947
15132TIP3    H166811   6.769   3.700   6.048 -0.7113 -0.3494 -1.2949
15132TIP3    H266812   6.882   3.796   6.017  0.8706 -1.4775  0.7567
15133TIP3   OH266813   3.106   4.463  13.375 -0.1302 -0.0646 -0.5888
15133TIP3    H166814   3.185   4.496  13.416  0.4267  1.0810 -2.4413
15133TIP3    H266815   3.084   4.384  13.424  0.6436  1.0160  1.6027
15134TIP3   OH266816   1.146   5.988   3.780 -0.3317 -0.3399  0.2157
15134TIP3    H166817   1.137   5.921   3.711  1.3558 -1.0791  0.6815
15134TIP3    H266818   1.086   5.958   3.849  0.0298 -1.1067  0.2114
15135TIP3   OH266819   2.192   2.637   1.833 -0.3398  1.0520  0.0929
15135TIP3    H166820   2.221   2.562   1.885 -0.4256  1.0475  0.1359
15135TIP3    H266821   2.241   2.711   1.868  0.6087  0.8244 -0.7280
15136TIP3   OH266822   6.235   1.047   5.786  0.2160  0.0484  0.4241
15136TIP3    H166823   6.160   1.063   5.843  1.2594 -0.7896  2.1363
15136TIP3    H266824   6.243   0.952   5.784  1.2796  0.1260  0.3784
15137TIP3   OH266825   2.336   3.686  14.274 -0.2217 -0.7185 -0.1221
15137TIP3    H166826   2.359   3.770  14.314 -1.0742  0.1424 -1.3766
15137TIP3    H266827   2.288   3.640  14.343 -1.2319  0.5285  0.0453
15138TIP3   OH266828   4.214   4.555  13.204 -0.4550 -0.3515 -0.3076
15138TIP3    H166829   4.122   4.530  13.205 -0.2352 -1.2646  1.8846
15138TIP3    H266830   4.220   4.627  13.267  0.3821 -0.4197 -0.2969
15139TIP3   OH266831   5.135   5.672  12.260 -0.1372 -0.5755  0.2159
15139TIP3    H166832   5.177   5.698  12.178  2.6139 -0.8076  1.4749
15139TIP3    H266833   5.146   5.577  12.263 -1.3503 -0.7367  0.3196
15140TIP3   OH266834   6.156   1.586  11.499 -0.1636  0.2882 -0.3763
15140TIP3    H166835   6.175   1.639  11.576 -1.8320 -0.3384  0.5131
15140TIP3    H266836   6.061   1.588  11.490 -0.0954 -0.5576 -1.7760
15141TIP3   OH266837   3.495   4.723   1.057 -0.3946 -0.0098  0.4873
15141TIP3    H166838   3.579   4.742   1.017 -1.0856 -0.0979 -1.0812
15141TIP3    H266839   3.442   4.687   0.986 -1.4875 -0.7754  1.6388
15142TIP3   OH266840   5.133   1.003   4.167  0.2449  0.0045 -0.2651
15142TIP3    H166841   5.204   1.035   4.111 -0.2967  0.7973 -0.5065
15142TIP3    H266842   5.087   1.082   4.195  0.7559 -0.3225  1.6568
15143TIP3   OH266843   0.223   4.355  13.442 -0.4661  0.6376  0.0667
15143TIP3    H166844   0.287   4.311  13.498 -0.4326  0.3984 -0.1581
15143TIP3    H266845   0.240   4.448  13.455 -0.8867  0.6068  0.9557
15144TIP3   OH266846   2.178   2.873   2.753 -0.3145  0.3735 -0.4049
15144TIP3    H166847   2.179   2.934   2.679 -0.6865 -0.4587 -1.1115
15144TIP3    H266848   2.195   2.929   2.830 -2.8252  1.7401 -0.7360
15145TIP3   OH266849   6.574   0.092   6.430 -0.7600 -0.2724 -0.4375
15145TIP3    H166850   6.588   0.151   6.356 -1.6380  0.7108  0.1581
15145TIP3    H266851   6.641   0.025   6.420 -2.1150 -1.3607 -3.2983
15146TIP3   OH266852   6.491   3.151   4.671  0.2287  0.4036 -0.3056
15146TIP3    H166853   6.433   3.080   4.698 -0.2138  0.4902 -0.9961
15146TIP3    H266854   6.577   3.111   4.666 -0.1160 -0.2499 -1.2864
15147TIP3   OH266855   2.453   3.245  14.417 -0.3163  0.0014 -0.2693
15147TIP3    H166856   2.464   3.339  14.402 -0.3526 -0.1312 -1.1413
15147TIP3    H266857   2.378   3.240  14.477 -1.7505  0.4417 -1.9385
15148TIP3   OH266858   3.425   1.883  10.053 -0.1027  0.5464  0.0556
15148TIP3    H166859   3.445   1.798  10.091  1.9349  1.5629  1.4389
15148TIP3    H266860   3.329   1.889  10.058 -0.1125  0.0332  4.0202
15149TIP3   OH266861   6.450   2.648   4.150  0.6533  0.4179  0.2081
15149TIP3    H166862   6.478   2.558   4.132  0.1797  0.6501 -2.0752
15149TIP3    H266863   6.377   2.638   4.210  1.7480 -0.5787  1.4268
15150TIP3   OH266864   2.619   0.813   6.421  0.4094  0.3988 -0.1938
15150TIP3    H166865   2.711   0.799   6.399  0.4045 -1.1121  0.6611
15150TIP3    H266866   2.592   0.734   6.468 -0.9560  1.3709  0.7628
15151TIP3   OH266867   6.639   6.365   3.701  0.0549  0.6355 -0.0048
15151TIP3    H166868   6.591   6.423   3.760  0.8267  0.7573  0.5235
15151TIP3    H266869   6.678   6.299   3.759  0.6853  0.6612 -0.3870
15152TIP3   OH266870   5.716   1.828  17.097  0.0770  0.4689  0.2175
15152TIP3    H166871   5.746   1.904  17.147 -0.1090  0.8992 -0.3158
15152TIP3    H266872   5.698   1.761  17.164  1.0497  0.6032  0.6251
15153TIP3   OH266873   0.830   4.343  13.747 -0.0251 -0.2365  0.2038
15153TIP3    H166874   0.890   4.273  13.772  2.2701  1.9254  1.1280
15153TIP3    H266875   0.884   4.407  13.701 -2.0107  1.0088 -0.5444
15154TIP3   OH266876   5.238   4.575   4.221  0.3371  0.1269 -0.3442
15154TIP3    H166877   5.244   4.483   4.195 -0.9392 -0.6103  1.6742
15154TIP3    H266878   5.325   4.597   4.252  0.8050 -0.2076 -1.3837
15155TIP3   OH266879   4.448   5.055   4.545  0.1615 -0.0608 -0.7153
15155TIP3    H166880   4.402   4.999   4.482 -0.3238 -0.0661 -0.3587
15155TIP3    H266881   4.517   5.096   4.494 -0.2541 -0.0332 -1.2641
15156TIP3   OH266882   4.861   4.422  17.036 -0.4972  0.8576  0.6050
15156TIP3    H166883   4.834   4.343  17.084 -0.6606  1.3085  1.2666
15156TIP3    H266884   4.952   4.404  17.012 -0.1367  0.9548  1.8161
15157TIP3   OH266885   1.391   4.773  13.209 -0.0173  0.1484  0.4173
15157TIP3    H166886   1.402   4.712  13.136 -1.1322 -1.9762  1.9208
15157TIP3    H266887   1.304   4.811  13.195 -0.0554  0.0609  0.4124
15158TIP3   OH266888   2.968   0.614  14.202  0.3877  0.6699 -0.1907
15158TIP3    H166889   2.985   0.704  14.231 -1.0090  0.7151  0.5723
15158TIP3    H266890   2.976   0.617  14.107 -1.1191  1.9663 -0.3144
15159TIP3   OH266891   5.361   4.781  11.081 -0.3342  0.8438 -0.1458
15159TIP3    H166892   5.331   4.799  11.170  0.1821  0.4940  0.1055
15159TIP3    H266893   5.282   4.788  11.027 -1.3209 -2.0854  0.7560
15160TIP3   OH266894   0.909   3.159   4.766 -0.1587 -0.2518  0.2182
15160TIP3    H166895   0.821   3.146   4.801 -0.8695  0.9482 -1.0053
15160TIP3    H266896   0.945   3.070   4.761 -1.3516 -0.7914  0.6125
15161TIP3   OH266897   5.807   3.478  14.666  0.4974 -0.0234  0.6809
15161TIP3    H166898   5.886   3.527  14.643  1.2719 -1.3641  0.4126
15161TIP3    H266899   5.770   3.452  14.582 -0.9754  1.6569  0.7382
15162TIP3   OH266900   1.002   3.044   4.405  0.2043 -0.0130 -0.2685
15162TIP3    H166901   0.911   3.017   4.409 -0.1144  0.9137 -0.9117
15162TIP3    H266902   1.011   3.084   4.319  0.7363  1.6066  0.5154
15163TIP3   OH266903   2.151   6.737   4.294 -0.5458  0.8176  0.0063
15163TIP3    H166904   2.196   6.761   4.213 -0.8507  1.3752 -0.0076
15163TIP3    H266905   2.107   6.654   4.274  0.0158  0.5551 -0.1507
15164TIP3   OH266906   4.649   1.004   1.297 -0.4828  0.6114 -0.2870
15164TIP3    H166907   4.626   0.994   1.389 -1.8802  0.2191 -0.6410
15164TIP3    H266908   4.695   0.923   1.274 -1.6910 -0.0942 -0.3370
15165TIP3   OH266909   5.006   0.359   3.877 -0.8343 -0.1907 -0.5636
15165TIP3    H166910   5.051   0.376   3.960  0.0966  1.7966 -1.3984
15165TIP3    H266911   4.914   0.354   3.900 -0.5190 -0.5307  0.7036
15166TIP3   OH266912   3.007   6.013   1.293  0.4480  0.4149  0.0929
15166TIP3    H166913   3.042   5.935   1.249  0.0471 -0.3734  1.1505
15166TIP3    H266914   2.944   6.049   1.230  0.9369  0.1381 -0.5718
15167TIP3   OH266915   3.842   3.469  11.316  0.0233  0.9006 -0.0525
15167TIP3    H166916   3.791   3.405  11.366  0.4209  0.2346 -0.4968
15167TIP3    H266917   3.843   3.436  11.227 -0.1432  1.7626 -0.3828
15168TIP3   OH266918   5.742   0.217   5.864  0.1550  0.1533  0.2143
15168TIP3    H166919   5.668   0.224   5.924 -0.6131  1.4147 -0.8366
15168TIP3    H266920   5.717   0.146   5.804  0.7303 -0.8063  1.0638
15169TIP3   OH266921   1.084   4.098  12.918 -0.5596 -0.0922 -0.2797
15169TIP3    H166922   1.093   4.095  12.823  0.6149  1.0776 -0.2314
15169TIP3    H266923   1.118   4.184  12.943 -1.3905 -0.1474  1.1460
15170TIP3   OH266924   1.044   6.789   4.177  0.0435 -0.4452 -0.5185
15170TIP3    H166925   1.079   6.828   4.097 -0.4494 -0.9579 -0.9925
15170TIP3    H266926   0.997   6.711   4.148 -0.0188 -0.7250  0.2875
15171TIP3   OH266927   5.961   0.983  16.960  0.2260  0.6086 -0.6944
15171TIP3    H166928   5.986   0.945  16.876 -1.1954 -0.1615 -0.8095
15171TIP3    H266929   5.946   0.907  17.017  1.2146  1.1210  0.2839
15172TIP3   OH266930   3.767   4.945  14.564  0.1358 -0.1929  0.5924
15172TIP3    H166931   3.723   4.877  14.512  0.1675  0.4787 -0.3216
15172TIP3    H266932   3.695   4.991  14.608  0.0531 -0.2568  0.5252
15173TIP3   OH266933   0.593   1.387  16.045 -0.8615  1.1815  0.4370
15173TIP3    H166934   0.660   1.440  16.002 -0.8518  2.6187  2.0698
15173TIP3    H266935   0.525   1.376  15.978  0.6577  0.2884 -1.0201
15174TIP3   OH266936   5.159   3.949  11.474 -0.0361  0.0067 -0.3337
15174TIP3    H166937   5.171   4.038  11.510  1.5587  0.2479 -1.3365
15174TIP3    H266938   5.114   3.963  11.390 -2.1508 -0.4039  0.6671
15175TIP3   OH266939   4.649   5.029   5.386  0.0651 -0.1299 -0.2755
15175TIP3    H166940   4.576   5.006   5.329 -1.0978  0.1584  1.0190
15175TIP3    H266941   4.690   4.946   5.408  1.0461 -0.1878 -2.1089
15176TIP3   OH266942   2.867   4.479   1.462  0.1351  0.0004  0.2355
15176TIP3    H166943   2.778   4.480   1.427 -0.9251 -3.4456  2.2982
15176TIP3    H266944   2.905   4.397   1.428  0.8065 -0.9116  2.9401
15177TIP3   OH266945   5.404   5.708   4.905 -0.2499  0.0335  0.1143
15177TIP3    H166946   5.351   5.629   4.909  0.3096 -0.3131  1.0329
15177TIP3    H266947   5.494   5.677   4.912 -0.0153  0.7349  0.2539
15178TIP3   OH266948   1.957   3.900  11.230  0.1041  0.3396 -0.0922
15178TIP3    H166949   1.945   3.884  11.323 -0.4561 -0.1043 -0.2353
15178TIP3    H266950   1.895   3.971  11.209  1.9059  2.1511  0.3460
15179TIP3   OH266951   1.846   6.706   4.039 -0.0233  0.2968 -0.0002
15179TIP3    H166952   1.778   6.641   4.059  0.5777 -0.3110  0.0947
15179TIP3    H266953   1.833   6.775   4.105 -0.6834  0.2998 -0.1200
15180TIP3   OH266954   1.792   3.975   0.309  0.2187 -0.8590 -0.3921
15180TIP3    H166955   1.777   4.062   0.345  0.7673 -0.5085 -0.9745
15180TIP3    H266956   1.709   3.930   0.318 -0.3412  0.0355 -0.8999
15181TIP3   OH266957   3.357   2.703  13.382  0.1330  0.1815 -0.1291
15181TIP3    H166958   3.294   2.763  13.422 -0.3226  0.0333 -0.6155
15181TIP3    H266959   3.401   2.755  13.315  0.1014  0.1153 -0.2011
15182TIP3   OH266960   3.441   4.733   6.284 -0.4403 -0.0269  0.2476
15182TIP3    H166961   3.418   4.650   6.326 -1.7041 -0.5703 -1.3931
15182TIP3    H266962   3.356   4.774   6.264  0.0532  0.0007 -2.0696
15183TIP3   OH266963   6.656   5.698   5.351  0.1350  0.2692 -0.4670
15183TIP3    H166964   6.590   5.667   5.413  0.4132  0.7381  0.0702
15183TIP3    H266965   6.740   5.678   5.392  0.3225  0.7455 -0.6094
15184TIP3   OH266966   1.805   3.825   0.600  0.0166  0.3378 -0.3657
15184TIP3    H166967   1.747   3.784   0.536 -0.8185 -1.3580  1.3799
15184TIP3    H266968   1.861   3.883   0.548  1.2048 -2.9000 -3.0251
15185TIP3   OH266969   3.812   1.510  12.559  0.0612  0.2107 -0.2154
15185TIP3    H166970   3.873   1.583  12.546  0.2748  0.0933  0.1305
15185TIP3    H266971   3.727   1.545  12.531  0.4220  0.1111 -1.5256
15186TIP3   OH266972   1.954   1.077   3.459  0.5853 -0.5793 -0.0840
15186TIP3    H166973   1.881   1.140   3.465  1.8932  1.1864 -1.4955
15186TIP3    H266974   2.032   1.128   3.481  1.5529 -2.1376  0.2548
15187TIP3   OH266975   0.075   2.857  16.297  0.3512 -0.2935 -0.0845
15187TIP3    H166976  -0.016   2.880  16.281  0.2495 -0.3489  0.3914
15187TIP3    H266977   0.111   2.932  16.345  0.8513  0.1996 -1.1806
15188TIP3   OH266978   2.088   6.194  12.981 -0.8691  0.6318  0.2573
15188TIP3    H166979   2.157   6.216  12.919  0.5013  0.7912  1.7617
15188TIP3    H266980   2.122   6.117  13.027 -2.1236  0.1455  0.4189
15189TIP3   OH266981   3.556   0.331  14.459 -0.4655 -0.7191  0.0946
15189TIP3    H166982   3.548   0.369  14.547  0.2077  1.2846 -0.6542
15189TIP3    H266983   3.623   0.263  14.469 -1.0272 -1.1274  1.2985
15190TIP3   OH266984   4.844   0.978   3.032  0.2208  0.3986 -0.1585
15190TIP3    H166985   4.789   1.052   3.007 -1.0437 -0.0430  1.1732
15190TIP3    H266986   4.893   1.009   3.108 -0.0695 -0.0222  0.2035
15191TIP3   OH266987   4.052   5.765   2.968  0.2242  0.3248 -0.3528
15191TIP3    H166988   4.097   5.773   3.053 -0.2927 -0.0433 -0.0387
15191TIP3    H266989   4.100   5.695   2.923  0.7931  0.8340 -0.5644
15192TIP3   OH266990   1.846   1.552  14.545  0.8294  0.2999 -0.2617
15192TIP3    H166991   1.866   1.643  14.524 -0.3908  0.3651 -1.2447
15192TIP3    H266992   1.847   1.548  14.641  3.2930  0.7499 -0.1850
15193TIP3   OH266993   1.988   0.254  16.221  0.2579  0.1950 -0.0268
15193TIP3    H166994   2.016   0.215  16.138 -2.3206 -2.6142  0.2827
15193TIP3    H266995   1.899   0.284  16.204 -0.4748 -0.8381  1.8271
15194TIP3   OH266996   1.326   5.316  12.091  0.2091 -1.1359  0.1530
15194TIP3    H166997   1.338   5.262  12.013  0.6411 -0.3012 -0.3764
15194TIP3    H266998   1.399   5.378  12.089 -0.5981 -0.1414  0.3951
15195TIP3   OH266999   0.088   6.149  12.489 -0.3646 -0.3127  0.2700
15195TIP3    H167000   0.051   6.206  12.422 -0.7060  0.1223  0.8241
15195TIP3    H267001   0.159   6.200  12.529  1.5729 -1.4795 -1.4354
15196TIP3   OH267002   3.022   1.836  15.573 -0.0075 -0.1622 -0.7853
15196TIP3    H167003   2.958   1.785  15.622  0.3003 -2.1841 -2.3471
15196TIP3    H267004   3.026   1.920  15.618 -1.8004 -0.9156  0.9003
15197TIP3   OH267005   3.760   1.733  13.331 -0.5561 -0.1468 -0.3954
15197TIP3    H167006   3.851   1.708  13.315 -0.4694  0.4701 -0.9468
15197TIP3    H267007   3.710   1.687  13.263 -0.7324 -0.9168  0.2430
15198TIP3   OH267008   0.807   6.747  16.393  0.2460 -0.7677 -0.0888
15198TIP3    H167009   0.791   6.822  16.451  0.2564  0.0956 -1.1765
15198TIP3    H267010   0.861   6.782  16.323 -0.9808 -1.4284 -1.4163
15199TIP3   OH267011   3.104   4.273   3.087  0.3188  0.3897 -0.2391
15199TIP3    H167012   3.089   4.367   3.085 -1.1980  0.1571 -2.3795
15199TIP3    H267013   3.154   4.254   3.008 -0.1939 -0.7008 -0.3230
15200TIP3   OH267014   5.998   3.996   3.970 -0.5045  0.1492  0.3583
15200TIP3    H167015   6.092   3.984   3.979  0.2074  2.2256 -2.5840
15200TIP3    H267016   5.974   4.055   4.041  0.8705  1.2251 -0.0386
15201TIP3   OH267017   6.803   0.256   3.687 -0.6463 -0.0589 -0.6108
15201TIP3    H167018   6.761   0.298   3.762  3.8765 -0.4726  2.5038
15201TIP3    H267019   6.848   0.327   3.641  2.9614 -0.4982  1.8340
15202TIP3   OH267020   6.506   2.079  12.597  0.3133 -0.5652 -0.0518
15202TIP3    H167021   6.411   2.064  12.603  0.3720 -0.3719  2.6886
15202TIP3    H267022   6.514   2.160  12.546 -1.0367 -0.2764  0.1452
15203TIP3   OH267023   0.781   6.040   1.244 -0.4258  0.4791  0.1278
15203TIP3    H167024   0.774   5.945   1.251 -2.7487  0.4578 -1.3728
15203TIP3    H267025   0.747   6.073   1.327  0.1718  0.0075  0.5648
15204TIP3   OH267026   2.340   3.878  15.665 -0.2362  0.2462 -0.2112
15204TIP3    H167027   2.408   3.930  15.623  0.1882 -0.3446 -0.2763
15204TIP3    H267028   2.309   3.819  15.596 -1.8815  1.5184 -0.6025
15205TIP3   OH267029   4.056   4.406  15.062 -0.5978  0.2463 -0.3345
15205TIP3    H167030   4.122   4.380  14.998 -0.0839  2.2434 -0.6823
15205TIP3    H267031   4.068   4.345  15.134  0.0080 -0.9321 -1.3803
15206TIP3   OH267032   1.819   0.353  12.596  0.0198  0.5164  0.0976
15206TIP3    H167033   1.819   0.448  12.581 -0.0585  0.6935  1.1263
15206TIP3    H267034   1.881   0.340  12.667  2.1729 -0.5563 -1.8593
15207TIP3   OH267035   3.416   5.337  15.185 -0.0304 -0.2428 -0.3857
15207TIP3    H167036   3.355   5.271  15.155 -0.5069 -0.7169  1.4822
15207TIP3    H267037   3.378   5.370  15.266  1.5793  0.3216  0.1860
15208TIP3   OH267038   1.672   4.749   1.476  0.4119 -0.7002 -0.0847
15208TIP3    H167039   1.599   4.752   1.538 -0.0309  0.3324 -0.6080
15208TIP3    H267040   1.750   4.746   1.530  0.0518  0.4945  0.5610
15209TIP3   OH267041   6.431   2.673   1.086 -0.1403 -0.2861  0.2177
15209TIP3    H167042   6.449   2.705   0.998 -2.0892 -1.4348 -0.6626
15209TIP3    H267043   6.487   2.595   1.095  0.0832 -0.1519 -0.0048
15210TIP3   OH267044   3.416   0.264   4.423 -1.0001 -0.2692 -0.0891
15210TIP3    H167045   3.485   0.200   4.405  0.6408  0.4780  2.8750
15210TIP3    H267046   3.463   0.345   4.442 -2.6768  0.3373  1.8143
15211TIP3   OH267047   3.000   6.338   1.693 -0.3935  0.2230  0.3111
15211TIP3    H167048   3.017   6.256   1.738  1.8518  0.7683  0.5983
15211TIP3    H267049   3.087   6.371   1.670 -1.2849  1.9626 -0.8154
15212TIP3   OH267050   2.135   1.486   2.924 -0.0649 -0.0023 -0.2439
15212TIP3    H167051   2.139   1.522   2.835  2.2545  0.0578 -0.1811
15212TIP3    H267052   2.130   1.564   2.980  0.3675  0.0553 -0.2773
15213TIP3   OH267053   0.828   5.878   4.212 -0.1143  0.2884 -0.1092
15213TIP3    H167054   0.744   5.917   4.186  0.0130  0.0342 -0.9052
15213TIP3    H267055   0.816   5.858   4.305  0.2450  3.3667  0.7142
15214TIP3   OH267056   0.067   0.706  13.384 -0.0563 -0.5582 -0.5258
15214TIP3    H167057   0.033   0.726  13.297 -0.7453 -2.9251 -0.8702
15214TIP3    H267058   0.152   0.664  13.367  0.6229  0.5494  0.0590
15215TIP3   OH267059   0.434   3.291  14.983 -0.0232 -0.3423 -0.2119
15215TIP3    H167060   0.438   3.340  15.065  0.5486 -0.7523  0.0140
15215TIP3    H267061   0.513   3.238  14.983  0.9532  0.9704 -1.8602
15216TIP3   OH267062   5.523   4.904   0.737  0.3471  0.2271 -0.6088
15216TIP3    H167063   5.474   4.830   0.701  0.3700 -0.2470  0.3115
15216TIP3    H267064   5.562   4.871   0.818  0.5902  1.1650 -0.3211
15217TIP3   OH267065   6.145   0.752  11.994  0.7177  0.1280 -0.3412
15217TIP3    H167066   6.170   0.756  11.902  2.7759  0.2934  0.1875
15217TIP3    H267067   6.084   0.678  11.999  2.2988 -1.3214 -1.4904
15218TIP3   OH267068   6.479   4.195  12.643 -0.4341 -0.2980  0.0913
15218TIP3    H167069   6.448   4.119  12.594 -0.7975 -0.6934  0.9095
15218TIP3    H267070   6.461   4.270  12.586 -2.5063 -0.5592  0.3487
15219TIP3   OH267071   0.508   3.657  16.559  0.2428  0.1895  0.9081
15219TIP3    H167072   0.561   3.686  16.485  2.5375 -0.9075  2.0251
15219TIP3    H267073   0.531   3.717  16.631 -0.2367 -0.1435  1.3490
15220TIP3   OH267074   0.018   2.852  13.649  0.0738 -0.1666 -0.0867
15220TIP3    H167075   0.086   2.861  13.582  1.9991 -1.4963  1.5626
15220TIP3    H267076   0.010   2.940  13.687  0.0194  0.2614 -1.0543
15221TIP3   OH267077   2.492   2.232   4.159  0.2132 -0.2090  0.4626
15221TIP3    H167078   2.564   2.174   4.181  0.3362  0.0959  0.8847
15221TIP3    H267079   2.512   2.314   4.206 -0.2116 -0.0003  0.2851
15222TIP3   OH267080   2.581   3.827  15.864  0.2073 -0.5091 -0.3996
15222TIP3    H167081   2.493   3.834  15.826  0.0633  0.7432  0.1144
15222TIP3    H267082   2.635   3.793  15.793 -0.4425 -0.0649 -1.1224
15223TIP3   OH267083   1.986   0.888   0.313  0.0625  0.3193 -0.2217
15223TIP3    H167084   1.981   0.877   0.408 -1.0990  0.0496 -0.2962
15223TIP3    H267085   1.990   0.799   0.279  0.1291  0.4039 -0.4363
15224TIP3   OH267086   2.331   5.553  10.911 -0.0407 -0.0148  0.2288
15224TIP3    H167087   2.383   5.536  10.832  1.5587  1.9844  0.7410
15224TIP3    H267088   2.343   5.647  10.927 -2.0346  0.0484  1.6855
15225TIP3   OH267089   0.131   3.829  11.448 -0.1020  0.0782 -0.1616
15225TIP3    H167090   0.191   3.897  11.419 -0.7675  0.9915  0.5659
15225TIP3    H267091   0.044   3.865  11.431 -0.4768 -1.1104 -0.9441
15226TIP3   OH267092   3.200   1.018  16.522  0.3428  0.2867  0.1832
15226TIP3    H167093   3.152   0.957  16.578 -0.9383  0.5630 -0.5734
15226TIP3    H267094   3.154   1.101  16.532  0.1726  0.3769 -1.1533
15227TIP3   OH267095   5.678   3.472  13.268 -0.0811 -0.4232  0.1703
15227TIP3    H167096   5.619   3.398  13.254 -0.0868 -0.1865 -1.2215
15227TIP3    H267097   5.673   3.522  13.187  1.2590  0.1620  0.4215
15228TIP3   OH267098   5.065   4.234  11.343 -0.5752 -0.5184  0.4739
15228TIP3    H167099   5.024   4.156  11.307  0.0057 -0.3792 -0.5327
15228TIP3    H267100   5.027   4.306  11.294  0.3690 -0.3419 -0.0354
15229TIP3   OH267101   5.994   5.165  13.991 -0.0491  0.4336 -0.0463
15229TIP3    H167102   6.023   5.137  13.904 -0.9504 -0.5575 -0.0517
15229TIP3    H267103   6.017   5.258  13.995 -1.7149  1.0474 -2.1235
15230TIP3   OH267104   3.727   2.538   4.731 -0.0615  0.3457 -0.8497
15230TIP3    H167105   3.747   2.626   4.763  0.6821 -0.7576  1.9921
15230TIP3    H267106   3.809   2.490   4.739 -1.1505 -1.3814  0.6004
15231TIP3   OH267107   3.135   5.345  14.320 -0.7964 -0.6046 -0.5151
15231TIP3    H167108   3.189   5.406  14.370 -1.9148 -0.7489  0.9506
15231TIP3    H267109   3.194   5.276  14.293 -0.1242 -0.4546  0.5296
15232TIP3   OH267110   0.403   6.426  14.189 -0.2160  0.0203 -0.1659
15232TIP3    H167111   0.465   6.357  14.163 -1.7816 -1.1280 -1.0645
15232TIP3    H267112   0.382   6.471  14.107  1.5947  2.3636  0.5526
15233TIP3   OH267113   2.071   0.540   5.307 -0.3101 -0.7836  0.3065
15233TIP3    H167114   2.041   0.619   5.353 -1.1262 -2.2792  2.5074
15233TIP3    H267115   1.993   0.485   5.301  0.7096 -2.3660  0.9007
15234TIP3   OH267116   4.540   1.825  16.874 -0.3709 -0.3453  0.4636
15234TIP3    H167117   4.471   1.867  16.926  0.6221 -0.2921  1.8097
15234TIP3    H267118   4.542   1.875  16.793 -0.0491  1.4875  1.5298
15235TIP3   OH267119   0.503   6.300  14.436  0.2285  0.2104  0.1151
15235TIP3    H167120   0.479   6.337  14.351  1.6217  0.2946 -0.2659
15235TIP3    H267121   0.457   6.216  14.439  1.4315 -0.5643 -1.4600
15236TIP3   OH267122   0.682   0.481   4.287 -0.1672 -0.0167 -0.0176
15236TIP3    H167123   0.626   0.558   4.278 -0.3972 -0.1029  0.6655
15236TIP3    H267124   0.740   0.485   4.211  1.8168  2.4466  1.4623
15237TIP3   OH267125   4.959   0.162  11.449  0.2226  0.3855 -0.3035
15237TIP3    H167126   4.970   0.143  11.542  0.7126 -0.1833 -0.4711
15237TIP3    H267127   4.866   0.149  11.432 -0.6056  3.8292  0.8247
15238TIP3   OH267128   2.797   2.015  12.263 -0.6337 -0.7186 -0.0701
15238TIP3    H167129   2.849   2.006  12.342  0.5931  2.6179 -0.3618
15238TIP3    H267130   2.707   2.026  12.294 -0.3439 -0.6508  0.7566
15239TIP3   OH267131   0.859   0.835   3.992  0.2424 -0.0795  0.1803
15239TIP3    H167132   0.781   0.799   3.950  0.3570  0.8707 -0.8965
15239TIP3    H267133   0.897   0.762   4.040 -1.4271 -0.5009  0.9090
15240TIP3   OH267134   6.109   6.682   4.178  0.0935  0.1780  0.0640
15240TIP3    H167135   6.146   6.770   4.166 -0.8971  0.6430  0.3522
15240TIP3    H267136   6.014   6.696   4.182 -0.0586 -0.8742  0.3776
15241TIP3   OH267137   6.739   0.784   5.060 -0.5832 -0.0134  0.5374
15241TIP3    H167138   6.833   0.771   5.048 -0.2417 -0.1529  2.8215
15241TIP3    H267139   6.718   0.861   5.008  1.3852  1.6636  2.0482
15242TIP3   OH267140   6.097   3.168  15.944 -0.2898 -0.2997 -0.0646
15242TIP3    H167141   6.095   3.075  15.966  1.5733 -0.7899 -1.7152
15242TIP3    H267142   6.158   3.207  16.007 -0.8322 -0.2091  0.4244
15243TIP3   OH267143   6.015   0.103  12.555  0.2864 -0.2604  0.0473
15243TIP3    H167144   5.925   0.079  12.575  0.6445 -1.0415  0.7214
15243TIP3    H267145   6.011   0.136  12.465 -0.4319 -1.6296 -0.4403
15244TIP3   OH267146   5.342   6.580   5.267 -0.6901 -0.0869 -0.4678
15244TIP3    H167147   5.419   6.636   5.256 -0.6082 -0.1693 -0.3170
15244TIP3    H267148   5.377   6.491   5.269 -0.9000 -0.1990 -1.5029
15245TIP3   OH267149   3.612   0.547   1.137  0.2346  0.2659 -0.2860
15245TIP3    H167150   3.579   0.474   1.085 -0.5040  0.9232 -0.7637
15245TIP3    H267151   3.707   0.538   1.134  0.1464 -0.8761 -0.0382
15246TIP3   OH267152   4.391   4.446   1.178  0.2239 -0.3745 -0.2192
15246TIP3    H167153   4.452   4.502   1.129 -1.4050  0.3231 -1.5373
15246TIP3    H267154   4.309   4.496   1.180 -0.9143 -2.1382 -0.2809
15247TIP3   OH267155   3.557   3.486   2.091 -0.0433 -0.0706  0.4285
15247TIP3    H167156   3.469   3.524   2.100  0.3879  0.9825  0.3861
15247TIP3    H267157   3.544   3.392   2.099 -1.3332 -0.0205 -0.6897
15248TIP3   OH267158   1.739   0.924   2.445  0.0902  0.2341 -0.4665
15248TIP3    H167159   1.777   0.840   2.471 -2.1786 -0.9815 -0.7806
15248TIP3    H267160   1.732   0.920   2.350 -1.2352  0.1677 -0.3943
15249TIP3   OH267161   0.372   5.434   4.840 -0.2115  0.0941  0.0782
15249TIP3    H167162   0.455   5.392   4.861 -0.3870 -0.4492 -0.3236
15249TIP3    H267163   0.387   5.527   4.861  0.0109 -0.2353  1.4419
15250TIP3   OH267164   2.329   5.273  11.193 -0.4630  0.6447 -0.0845
15250TIP3    H167165   2.411   5.232  11.220 -1.7517 -0.4760  2.4669
15250TIP3    H267166   2.354   5.361  11.165  1.5661  0.4398  0.9149
15251TIP3   OH267167   2.995   1.678  12.909  0.8757 -0.5877  0.0399
15251TIP3    H167168   2.903   1.690  12.931  0.6764 -1.0190 -0.5297
15251TIP3    H267169   3.041   1.746  12.959 -0.1323  2.3929 -2.7593
15252TIP3   OH267170   2.922   4.737  11.961  0.2821  0.2702  0.3061
15252TIP3    H167171   2.997   4.723  11.903  1.2038  1.0739  1.2688
15252TIP3    H267172   2.856   4.778  11.906  0.5453 -0.4166 -0.5453
15253TIP3   OH267173   2.261   1.124   5.309  0.6494 -0.5005  0.3056
15253TIP3    H167174   2.336   1.082   5.353 -0.4331 -0.1080  2.7015
15253TIP3    H267175   2.299   1.163   5.230  2.8441 -0.8930  1.0701
15254TIP3   OH267176   0.059   3.224  11.167 -0.1913 -0.0707  0.5236
15254TIP3    H167177  -0.014   3.281  11.142 -0.3342 -0.3160  0.3725
15254TIP3    H267178   0.023   3.135  11.160  0.2726 -0.2208 -0.0612
15255TIP3   OH267179   3.974   6.494  15.032 -0.0903 -1.1331 -0.4265
15255TIP3    H167180   3.991   6.535  15.117  0.1104 -1.3345 -0.3682
15255TIP3    H267181   3.926   6.414  15.054  0.4778 -1.4907 -0.4525
15256TIP3   OH267182   0.536   3.433  13.054 -0.1082 -0.3223  0.1235
15256TIP3    H167183   0.473   3.499  13.026 -0.9751 -1.6194 -1.1452
15256TIP3    H267184   0.488   3.350  13.049  0.9829 -1.0900  1.5243
15257TIP3   OH267185   5.621   6.153   1.477 -0.0884 -0.0746 -0.4881
15257TIP3    H167186   5.529   6.170   1.460  0.5820  1.3408 -3.2355
15257TIP3    H267187   5.622   6.111   1.563 -3.3619 -1.4015 -0.9576
15258TIP3   OH267188   1.458   4.644   2.683 -0.1040  0.4107 -0.1729
15258TIP3    H167189   1.383   4.630   2.741 -0.0625 -2.9698 -0.7064
15258TIP3    H267190   1.531   4.602   2.727  0.8107  1.0926 -0.9937
15259TIP3   OH267191   6.531   3.503  15.584  0.0838 -0.2607  0.4909
15259TIP3    H167192   6.530   3.435  15.517 -0.0486 -1.2874  1.5145
15259TIP3    H267193   6.445   3.545  15.577  0.1379 -0.2390 -0.0865
15260TIP3   OH267194   5.158   4.747   0.137  0.3880 -0.5713 -0.0819
15260TIP3    H167195   5.124   4.754   0.048  2.8027  1.0501 -0.9932
15260TIP3    H267196   5.127   4.827   0.181 -0.9270 -1.4407  0.6209
15261TIP3   OH267197   3.520   0.870  16.234  0.0685  0.4492 -0.5256
15261TIP3    H167198   3.608   0.833  16.229 -1.5970 -4.6284  1.2778
15261TIP3    H267199   3.502   0.877  16.328 -1.5764  1.1297 -0.8494
15262TIP3   OH267200   6.743   4.719  13.682 -0.2278 -0.1055  0.1379
15262TIP3    H167201   6.733   4.807  13.717  0.6668 -0.5520  1.6201
15262TIP3    H267202   6.654   4.693  13.656 -0.7595  0.6441  1.1511
15263TIP3   OH267203   4.868   2.801  13.054  0.1238 -0.2709  0.3200
15263TIP3    H167204   4.807   2.874  13.051 -0.2293 -0.4626  2.0713
15263TIP3    H267205   4.834   2.739  12.990 -0.5158  0.3690  0.0266
15264TIP3   OH267206   3.383   3.770  11.057  0.2568 -0.2785  0.8137
15264TIP3    H167207   3.409   3.854  11.095 -2.9300  2.0232 -1.4842
15264TIP3    H267208   3.389   3.784  10.962 -3.8698 -1.1510  0.2126
15265TIP3   OH267209   2.997   3.047  16.552  0.3937  0.7806 -0.3766
15265TIP3    H167210   3.071   3.079  16.604 -0.4779 -0.4963  1.8195
15265TIP3    H267211   3.032   2.973  16.503  0.6497  0.3057  0.5033
15266TIP3   OH267212   2.109   3.978  12.052 -0.2734 -0.0572 -0.0395
15266TIP3    H167213   2.041   3.912  12.064  2.2687 -2.5271  2.7999
15266TIP3    H267214   2.099   4.036  12.128 -0.1645  0.5175 -0.4606
15267TIP3   OH267215   4.918   0.209   1.145  0.6102 -0.1697  0.7581
15267TIP3    H167216   4.922   0.131   1.201  0.1258  0.6909  2.0238
15267TIP3    H267217   4.983   0.269   1.182 -1.1476  1.2365  1.7663
15268TIP3   OH267218   6.332   3.662   2.117 -0.3623 -0.4274 -0.1565
15268TIP3    H167219   6.384   3.594   2.075 -1.1521 -0.8283 -0.5130
15268TIP3    H267220   6.297   3.714   2.044  0.7760  0.7909  0.1316
15269TIP3   OH267221   5.964   4.005   4.964  0.6297  0.1540  0.1518
15269TIP3    H167222   6.044   4.017   4.913  1.2007 -2.2702  0.3652
15269TIP3    H267223   5.947   3.911   4.961 -2.5276  0.6164 -0.2978
15270TIP3   OH267224   0.919   2.628  13.502  1.0265 -0.4156 -0.0275
15270TIP3    H167225   1.004   2.670  13.497  1.4697 -1.1483  0.9216
15270TIP3    H267226   0.925   2.554  13.441 -0.0790  1.3555 -2.4204
15271TIP3   OH267227   6.675   5.229   4.008  0.2655 -0.0121 -0.0307
15271TIP3    H167228   6.675   5.325   3.999 -1.1663 -0.0193 -0.3334
15271TIP3    H267229   6.743   5.212   4.073 -0.2055  1.3130  0.8650
15272TIP3   OH267230   3.288   0.242   1.247  0.1729 -0.0142 -0.0335
15272TIP3    H167231   3.215   0.287   1.204 -0.5333 -0.2129  0.9021
15272TIP3    H267232   3.340   0.312   1.286 -0.1991  0.0723  0.3161
15273TIP3   OH267233   0.430   0.180  14.841  0.0667  0.5838  0.0664
15273TIP3    H167234   0.437   0.090  14.808 -0.7935  0.6057 -0.1884
15273TIP3    H267235   0.438   0.171  14.936 -0.4205  0.1920  0.0728
15274TIP3   OH267236   3.450   6.086   2.960  0.4026 -0.2070  0.5171
15274TIP3    H167237   3.517   6.020   2.944  1.0460  0.2165  1.3482
15274TIP3    H267238   3.498   6.169   2.960 -0.3172  0.2153 -0.0529
15275TIP3   OH267239   3.135   6.654  16.919 -0.0130 -1.0191  0.2724
15275TIP3    H167240   3.229   6.651  16.934 -0.0544  0.4602  1.0075
15275TIP3    H267241   3.098   6.605  16.992  0.1540 -0.7424  0.5474
15276TIP3   OH267242   3.793   0.550   5.021  0.1114  0.3458  0.4550
15276TIP3    H167243   3.772   0.624   5.077  0.7957  0.7119  0.2451
15276TIP3    H267244   3.797   0.587   4.933  1.5821  0.3112  0.4809
15277TIP3   OH267245   1.376   6.520   3.066  0.8285  0.2196 -0.3574
15277TIP3    H167246   1.339   6.603   3.098 -0.9355 -0.6798  0.0715
15277TIP3    H267247   1.457   6.509   3.116 -0.9369 -0.2530  2.6262
15278TIP3   OH267248   5.332   1.144   4.049 -0.4713 -0.4188  0.1859
15278TIP3    H167249   5.288   1.161   3.966 -0.5298 -0.7574  0.1469
15278TIP3    H267250   5.422   1.175   4.035 -0.2224 -1.3484 -0.3206
15279TIP3   OH267251   1.257   1.065   4.948 -0.1951 -0.3640  0.1836
15279TIP3    H167252   1.232   0.994   5.007  0.2065 -0.3931  0.3281
15279TIP3    H267253   1.309   1.022   4.880  0.4555 -0.1496  0.5321
15280TIP3   OH267254   0.029   1.027   0.155  0.3336 -0.5335 -0.1317
15280TIP3    H167255  -0.040   1.092   0.154 -0.0193 -0.7962  1.7390
15280TIP3    H267256   0.100   1.064   0.103 -0.4017  0.7087 -0.2639
15281TIP3   OH267257   2.673   2.961   4.775 -0.8625  0.0541  0.1789
15281TIP3    H167258   2.629   3.015   4.840 -0.5577 -1.8216  2.0584
15281TIP3    H267259   2.751   3.010   4.751  0.4488 -0.3074  3.3133
15282TIP3   OH267260   5.064   2.290   2.832 -0.1321  0.6268 -0.2256
15282TIP3    H167261   5.086   2.198   2.824  0.4367  0.6897  0.4595
15282TIP3    H267262   5.012   2.310   2.755 -0.2863 -0.2745 -0.3594
15283TIP3   OH267263   0.458   6.203   3.020  0.0057  0.1379  0.5668
15283TIP3    H167264   0.506   6.182   2.940 -0.6952 -1.6222  0.5621
15283TIP3    H267265   0.388   6.137   3.024 -1.9642  2.1592  0.9709
15284TIP3   OH267266   6.148   2.972   1.845 -0.0006 -0.2254 -0.8495
15284TIP3    H167267   6.055   2.957   1.831 -0.1238 -1.3488  0.9309
15284TIP3    H267268   6.191   2.895   1.809  0.0336 -0.8334  0.4389
15285TIP3   OH267269   3.037   6.119   1.866  0.2522  0.2346  0.3691
15285TIP3    H167270   3.116   6.072   1.894  0.2596 -0.6074 -0.9981
15285TIP3    H267271   2.966   6.079   1.917  0.6750  0.9334  1.5382
15286TIP3   OH267272   2.546   6.746  12.670  0.4086  0.7703  0.6470
15286TIP3    H167273   2.535   6.833  12.709  0.9089  0.2665  1.9284
15286TIP3    H267274   2.576   6.690  12.741  0.3617 -0.4101 -0.2232
15287TIP3   OH267275   6.763   3.177  12.755  0.0517  0.0893 -0.2946
15287TIP3    H167276   6.788   3.240  12.823 -2.0740  1.3416 -0.5575
15287TIP3    H267277   6.746   3.096  12.804  0.0496  0.5324  0.4638
15288TIP3   OH267278   5.211   6.675   1.049 -0.5844  0.1901  0.1833
15288TIP3    H167279   5.208   6.659   1.144 -0.1225 -0.0748  0.1538
15288TIP3    H267280   5.168   6.598   1.011  0.1612 -0.2051  0.1270
15289TIP3   OH267281   2.318   4.939  16.873 -0.0950 -0.0805  0.4722
15289TIP3    H167282   2.238   4.948  16.821  0.4230 -0.5719 -0.4400
15289TIP3    H267283   2.347   5.029  16.887  1.7747  0.1024 -3.3813
15290TIP3   OH267284   4.588   3.015   2.267 -0.2512  0.2715  0.7211
15290TIP3    H167285   4.576   3.026   2.361 -0.5276  1.0085  0.6078
15290TIP3    H267286   4.504   2.981   2.235 -0.9863  2.2154  0.4232
15291TIP3   OH267287   0.510   0.530   1.001  0.0723 -0.2046  0.0221
15291TIP3    H167288   0.561   0.469   0.947  0.3823  0.1334 -0.0679
15291TIP3    H267289   0.575   0.587   1.041 -0.2145  0.0414  0.1446
15292TIP3   OH267290   6.537   0.299   4.167 -0.2085 -0.4590  0.3821
15292TIP3    H167291   6.475   0.356   4.120  0.0549 -0.6109 -0.1603
15292TIP3    H267292   6.517   0.313   4.259 -1.1539 -0.6054  0.2167
15293TIP3   OH267293   4.742   0.318   3.915  0.0728  0.4312 -0.0658
15293TIP3    H167294   4.693   0.315   3.832  0.2255  0.7891 -0.1715
15293TIP3    H267295   4.729   0.232   3.953  0.0081  0.2567 -0.4712
15294TIP3   OH267296   0.764   4.115  11.555 -0.4243 -0.5889  0.2113
15294TIP3    H167297   0.765   4.073  11.641  1.8940 -2.6971 -0.7391
15294TIP3    H267298   0.701   4.187  11.565 -1.3017 -1.6052  3.2184
15295TIP3   OH267299   2.126   3.351   2.739  0.8590  0.8573  0.0767
15295TIP3    H167300   2.093   3.356   2.650  3.5553  0.4258 -1.0188
15295TIP3    H267301   2.183   3.427   2.748 -0.6405  1.8344  2.0518
15296TIP3   OH267302   5.427   6.277   2.832  0.0599  0.3124  0.5158
15296TIP3    H167303   5.386   6.207   2.883  2.0139 -0.0665  1.6821
15296TIP3    H267304   5.486   6.320   2.894  3.5988 -1.0303 -1.6373
15297TIP3   OH267305   6.261   4.032  14.869  0.0093  0.1622 -0.0847
15297TIP3    H167306   6.274   4.076  14.952  0.8662  0.2505 -0.2615
15297TIP3    H267307   6.339   4.052  14.817  0.2634 -1.2512 -0.3009
15298TIP3   OH267308   3.197   3.520  14.379 -0.1227  0.0538  0.3196
15298TIP3    H167309   3.202   3.585  14.449  0.1321 -0.7128  1.0334
15298TIP3    H267310   3.161   3.442  14.421  2.1532 -1.1680  0.1889
15299TIP3   OH267311   2.497   6.807  10.279  0.2614 -0.1146 -0.1465
15299TIP3    H167312   2.570   6.854  10.238  0.5873  0.0467  0.6030
15299TIP3    H267313   2.531   6.777  10.363  0.3117 -2.3955 -0.9148
15300TIP3   OH267314   3.247   6.293   0.005 -0.2744 -0.3762  0.8198
15300TIP3    H167315   3.308   6.363   0.030  0.4963 -1.5682  2.5039
15300TIP3    H267316   3.244   6.297  -0.090  0.4207  1.3663  0.8209
15301TIP3   OH267317   3.533   3.375  11.197  0.3462 -0.1336  0.1111
15301TIP3    H167318   3.560   3.344  11.111  1.9320  1.8050 -0.1381
15301TIP3    H267319   3.569   3.310  11.258 -0.4899 -1.3225 -0.5943
15302TIP3   OH267320   4.015   4.238  12.843  0.1955 -0.4609  0.0998
15302TIP3    H167321   4.075   4.171  12.810  0.6128 -0.3828  0.6806
15302TIP3    H267322   4.060   4.321  12.827 -0.4551 -0.2908 -0.8974
15303TIP3   OH267323   4.634   2.739   2.943 -0.7508  0.3791 -0.1970
15303TIP3    H167324   4.689   2.703   3.013  1.8908  2.5060 -1.0558
15303TIP3    H267325   4.554   2.766   2.988  0.0852 -0.0516  1.6586
15304TIP3   OH267326   2.350   3.886   2.780  0.1085 -0.6424  0.6874
15304TIP3    H167327   2.341   3.869   2.686 -2.3317 -1.5737  1.0109
15304TIP3    H267328   2.313   3.973   2.793  0.4688 -0.5023  0.7755
15305TIP3   OH267329   2.159   2.958  12.476  0.4370 -0.1630  0.5976
15305TIP3    H167330   2.234   2.928  12.425 -0.0324 -1.2020  0.5100
15305TIP3    H267331   2.086   2.906  12.445 -0.6265  1.7699 -0.2745
15306TIP3   OH267332   4.123   1.483   3.052  0.1715  0.2087 -0.2540
15306TIP3    H167333   4.121   1.414   3.118 -0.5416  0.3080 -0.1616
15306TIP3    H267334   4.141   1.563   3.101 -0.6872  0.3318 -0.1244
15307TIP3   OH267335   4.075   3.229  15.102 -0.3377  0.1816 -1.2183
15307TIP3    H167336   4.010   3.278  15.052 -0.1100  0.9488 -0.7924
15307TIP3    H267337   4.146   3.213  15.039 -0.1938  0.8571 -1.2376
15308TIP3   OH267338   5.808   0.081   4.928 -0.1685  0.3953  0.1658
15308TIP3    H167339   5.872   0.141   4.966 -0.2696  1.6333 -1.4923
15308TIP3    H267340   5.732   0.088   4.985  1.6202 -2.4883  3.2746
15309TIP3   OH267341   2.773   4.897  11.539 -0.4919 -0.4255  0.6578
15309TIP3    H167342   2.720   4.820  11.557 -3.4926  1.4675  0.6507
15309TIP3    H267343   2.825   4.873  11.463 -0.0741 -2.9371  1.6372
15310TIP3   OH267344   5.704   2.238  15.265 -0.4931  0.3685 -0.5493
15310TIP3    H167345   5.712   2.191  15.182  1.2298 -0.8297  0.2430
15310TIP3    H267346   5.620   2.209  15.302  0.2644 -1.7387 -0.3381
15311TIP3   OH267347   2.618   1.236   2.858  0.1579 -0.1113  0.0281
15311TIP3    H167348   2.535   1.214   2.901  1.7053 -2.7105  1.9807
15311TIP3    H267349   2.649   1.314   2.905 -2.1025  2.3948 -2.2717
15312TIP3   OH267350   5.839   6.667  11.948 -0.1043  0.7303 -0.4888
15312TIP3    H167351   5.887   6.651  12.029 -0.4513 -0.8203 -0.5525
15312TIP3    H267352   5.902   6.712  11.892  0.1066  1.9082  0.6580
15313TIP3   OH267353   6.454   3.834   3.012  0.3246  0.0040  0.2762
15313TIP3    H167354   6.372   3.788   2.990  0.9734 -0.5083 -1.1632
15313TIP3    H267355   6.485   3.788   3.090  0.9141 -2.0555 -1.0725
15314TIP3   OH267356   5.410   1.806  17.045 -0.1650  0.1576  0.3101
15314TIP3    H167357   5.430   1.826  17.137  0.4004 -2.5915  0.8967
15314TIP3    H267358   5.494   1.778  17.008 -0.4170  1.1108 -1.0320
15315TIP3   OH267359   6.098   5.063   5.317  0.0621  0.1529  0.0654
15315TIP3    H167360   6.062   5.038   5.232  0.1490  0.6240 -0.1143
15315TIP3    H267361   6.114   4.980   5.362  0.9105 -0.1445 -0.7572
15316TIP3   OH267362   2.855   3.001   1.584  0.1677  0.0838  0.5899
15316TIP3    H167363   2.811   2.924   1.620  0.1921  0.0126  0.4682
15316TIP3    H267364   2.918   2.965   1.522  1.5819  0.0701  1.9661
15317TIP3   OH267365   2.805   3.616  15.460  0.5485 -0.0739  0.7572
15317TIP3    H167366   2.830   3.705  15.434  3.5143 -0.4317  2.0553
15317TIP3    H267367   2.803   3.618  15.555 -0.0348 -1.2420  0.7868
15318TIP3   OH267368   0.442   4.458   1.624 -0.1275  0.1549  0.4107
15318TIP3    H167369   0.431   4.379   1.570 -0.8564 -0.5197  1.5156
15318TIP3    H267370   0.518   4.502   1.586 -1.5543  0.5627 -2.1779
15319TIP3   OH267371   4.233   6.752  15.348 -0.1234  0.1417 -0.5652
15319TIP3    H167372   4.304   6.725  15.289  0.1839  0.1730 -0.2148
15319TIP3    H267373   4.224   6.679  15.410 -1.7624 -0.7729 -1.8077
15320TIP3   OH267374   5.015   3.185   0.816 -0.7835 -0.4654  0.3572
15320TIP3    H167375   4.927   3.154   0.794 -0.1296 -1.2167 -1.3800
15320TIP3    H267376   5.000   3.266   0.865 -2.4531 -1.3377  1.3749
15321TIP3   OH267377   2.192   1.665   2.004 -0.0415  0.3458  0.1462
15321TIP3    H167378   2.176   1.675   1.910  1.3179  0.5941 -0.0840
15321TIP3    H267379   2.105   1.665   2.043 -0.7069 -0.8501 -1.2042
15322TIP3   OH267380   5.661   1.043  16.197  0.1341  0.3920 -0.3669
15322TIP3    H167381   5.725   1.028  16.128  0.3814 -0.1776 -0.0191
15322TIP3    H267382   5.655   1.138  16.205 -0.2054  0.4738 -1.4535
15323TIP3   OH267383   3.572   4.820  17.057 -0.4383  0.0374  0.1963
15323TIP3    H167384   3.548   4.907  17.026 -1.0212 -0.0523  0.3749
15323TIP3    H267385   3.489   4.771  17.055  0.2243 -1.1003 -1.8234
15324TIP3   OH267386   6.513   4.809  15.474 -0.9758 -0.0080  1.0195
15324TIP3    H167387   6.503   4.829  15.381 -0.5567  3.0729  1.5433
15324TIP3    H267388   6.540   4.717  15.476 -3.1823 -0.8777 -1.7372
15325TIP3   OH267389   5.390   6.214   4.034  0.4808  0.3659  0.4799
15325TIP3    H167390   5.475   6.197   4.074 -0.3745  1.1349  2.8099
15325TIP3    H267391   5.401   6.298   3.988  0.9981  0.4328  0.7220
15326TIP3   OH267392   1.228   0.872  16.961  0.1641  0.3628 -0.4256
15326TIP3    H167393   1.273   0.898  17.041 -1.8109  1.5017  0.3922
15326TIP3    H267394   1.234   0.776  16.960  0.2863  0.3338  1.0457
15327TIP3   OH267395   4.855   3.102  14.716  0.0931  0.1588 -0.2237
15327TIP3    H167396   4.913   3.070  14.785  0.5034 -1.8805 -1.4536
15327TIP3    H267397   4.914   3.128  14.645 -0.4082 -0.0718 -0.7308
15328TIP3   OH267398   3.793   5.683   0.913 -0.1675 -0.1906 -0.7079
15328TIP3    H167399   3.792   5.589   0.894 -1.4784 -0.4020  0.2490
15328TIP3    H267400   3.824   5.689   1.003  1.0159  0.4006 -1.1374
15329TIP3   OH267401   4.880   2.166   5.197 -0.2613 -0.7449 -0.3201
15329TIP3    H167402   4.872   2.238   5.260 -1.0404 -0.7739 -0.3785
15329TIP3    H267403   4.834   2.093   5.238  0.1921 -1.1029 -0.4365
15330TIP3   OH267404   1.167   5.503  11.938  0.0283  0.2859 -0.0092
15330TIP3    H167405   1.160   5.408  11.946  0.4661  0.2535  0.0387
15330TIP3    H267406   1.085   5.530  11.896 -1.9430  0.3312  3.4726
15331TIP3   OH267407   5.523   2.454  13.002 -0.2117  0.3369  0.2152
15331TIP3    H167408   5.481   2.475  12.919 -1.6613 -2.6928  0.0527
15331TIP3    H267409   5.603   2.407  12.978  0.8090  1.8272  0.5722
15332TIP3   OH267410   3.038   3.739  11.997  0.2494 -0.0774 -0.4200
15332TIP3    H167411   3.091   3.673  12.041 -0.7968 -0.3049  0.5382
15332TIP3    H267412   3.006   3.696  11.918 -1.9605 -1.4460  1.0960
15333TIP3   OH267413   0.469   0.746   1.395 -0.1168  0.8101 -0.2618
15333TIP3    H167414   0.493   0.831   1.432  0.6137  0.3075  0.4401
15333TIP3    H267415   0.551   0.696   1.394 -0.4659  0.2338 -1.0080
15334TIP3   OH267416   6.267   0.996   4.844 -0.1428  0.3082  0.5773
15334TIP3    H167417   6.196   1.012   4.781 -0.5913  0.1599  1.0445
15334TIP3    H267418   6.236   1.032   4.926  0.1083 -0.2181  0.9117
15335TIP3   OH267419   3.352   6.573  11.981  0.4039  0.3291  0.4219
15335TIP3    H167420   3.354   6.621  12.064 -0.7996  0.8955  0.1426
15335TIP3    H267421   3.373   6.639  11.915 -1.9371  0.7073 -0.0364
15336TIP3   OH267422   4.965   0.158   5.392 -0.0013  0.1943 -0.2769
15336TIP3    H167423   5.059   0.165   5.381  0.1308  0.0101  0.6254
15336TIP3    H267424   4.936   0.248   5.407 -0.0251  0.2981 -0.9360
15337TIP3   OH267425   3.339   2.994  15.532 -0.3100 -0.1156  0.3991
15337TIP3    H167426   3.291   3.070  15.500 -0.2111  0.2618  1.1179
15337TIP3    H267427   3.360   3.016  15.623  1.4637 -0.1487  0.0271
15338TIP3   OH267428   5.638   0.343   5.530 -0.0892  0.1473  0.7565
15338TIP3    H167429   5.670   0.291   5.456  1.6798 -0.7976  2.0922
15338TIP3    H267430   5.651   0.434   5.503 -0.7003 -0.1362 -0.5695
15339TIP3   OH267431   5.654   2.446  13.235  0.4195  0.2158 -0.6187
15339TIP3    H167432   5.583   2.435  13.172  0.4427 -2.2756 -0.2965
15339TIP3    H267433   5.699   2.525  13.206 -0.9110  0.4031 -2.3686
15340TIP3   OH267434   4.145   1.518   2.653 -0.1060 -0.6414  0.2754
15340TIP3    H167435   4.079   1.550   2.715 -0.1825  1.1671 -0.6781
15340TIP3    H267436   4.229   1.530   2.699 -0.2846 -1.1336  0.7468
15341TIP3   OH267437   1.676   0.520   5.371  0.4385 -0.5453  0.2269
15341TIP3    H167438   1.723   0.504   5.453  2.3799  0.0292 -0.6908
15341TIP3    H267439   1.719   0.461   5.308  0.5203  0.6171 -0.8473
15342TIP3   OH267440   3.495   0.398   5.097  0.3945  0.1281 -0.5385
15342TIP3    H167441   3.550   0.462   5.051  0.5489  0.1480 -0.3248
15342TIP3    H267442   3.540   0.383   5.180  1.2082 -1.4402 -1.2168
15343TIP3   OH267443   6.274   3.218   0.924 -0.0603  0.4923  0.2102
15343TIP3    H167444   6.293   3.149   0.862 -2.0023 -1.3201  1.5047
15343TIP3    H267445   6.354   3.227   0.976  1.2358  1.3606 -1.7953
15344TIP3   OH267446   3.244   1.784   4.153  0.2706  0.4241  0.1113
15344TIP3    H167447   3.223   1.690   4.150  0.3062  0.3361  1.7690
15344TIP3    H267448   3.159   1.827   4.166  0.3959  0.5347  0.5556
15345TIP3   OH267449   4.241   1.722   4.135 -0.3804  0.0378  0.8831
15345TIP3    H167450   4.252   1.705   4.041  0.7098  2.5886  0.4526
15345TIP3    H267451   4.150   1.750   4.143 -0.3260  0.3634  0.4487
15346TIP3   OH267452   1.597   3.811   5.240  0.0926 -0.0082 -0.1845
15346TIP3    H167453   1.591   3.798   5.146 -2.9059  0.4155 -0.1576
15346TIP3    H267454   1.652   3.888   5.251  0.7933 -0.2984 -1.5358
15347TIP3   OH267455   2.557   5.143  11.015 -0.2384  0.6106  0.3049
15347TIP3    H167456   2.601   5.069  10.973 -0.3735  0.6152  0.1555
15347TIP3    H267457   2.555   5.120  11.108  0.7140  0.9226  0.4226
15348TIP3   OH267458   1.060   6.482  15.835  0.1533  0.0195 -0.1412
15348TIP3    H167459   1.102   6.522  15.759  1.5699  0.0197  0.6107
15348TIP3    H267460   1.116   6.408  15.857  1.6595  1.8526  2.8063
15349TIP3   OH267461   3.934   5.854   4.138 -0.1172 -0.3381  0.2868
15349TIP3    H167462   3.977   5.910   4.073 -0.9033 -0.1712 -0.1028
15349TIP3    H267463   3.842   5.879   4.133 -0.2932 -0.8514  0.9444
15350TIP3   OH267464   1.349   4.442  12.366  0.7059  0.0588 -0.0284
15350TIP3    H167465   1.282   4.397  12.417 -0.2810 -0.4835 -1.7312
15350TIP3    H267466   1.427   4.388  12.375  0.0862 -0.9204 -0.3848
15351TIP3   OH267467   1.655   5.603   3.614  0.1972  0.3768 -0.8300
15351TIP3    H167468   1.661   5.576   3.705  1.1895  1.0305 -0.6850
15351TIP3    H267469   1.563   5.591   3.591  0.0471 -0.3018  0.0909
15352TIP3   OH267470   2.204   6.701  11.842 -0.2150 -0.4073  0.1920
15352TIP3    H167471   2.253   6.743  11.771 -0.9666 -0.4127 -0.3406
15352TIP3    H267472   2.263   6.704  11.917  1.1604 -1.6503 -0.7861
15353TIP3   OH267473   1.443   5.156   5.697  0.2020 -0.4711 -0.3119
15353TIP3    H167474   1.493   5.116   5.626  1.1047 -0.1510  0.1383
15353TIP3    H267475   1.375   5.207   5.653 -0.5653 -1.9243 -0.9179
15354TIP3   OH267476   3.425   6.689   5.847  0.0068  0.0455  0.4298
15354TIP3    H167477   3.433   6.748   5.922  0.9381  0.4668  0.0077
15354TIP3    H267478   3.415   6.747   5.772 -0.1376 -0.3601  0.1332
15355TIP3   OH267479   6.502   2.931  14.185 -0.2174 -0.1781  0.4662
15355TIP3    H167480   6.459   2.869  14.126 -1.1148  0.5266  0.3620
15355TIP3    H267481   6.543   2.995  14.127  0.6749 -0.6300  0.5758
15356TIP3   OH267482   2.500   3.944   0.899  0.5025 -0.0621  0.1232
15356TIP3    H167483   2.575   3.924   0.955  0.6651 -1.0220 -0.4047
15356TIP3    H267484   2.468   4.028   0.930  0.9135 -0.3195  1.3022
15357TIP3   OH267485   2.754   1.755  13.033  0.0539  0.0766  0.4360
15357TIP3    H167486   2.743   1.673  13.080  0.1697 -0.2620 -0.1141
15357TIP3    H267487   2.734   1.823  13.097 -2.2330 -0.4169  0.3380
15358TIP3   OH267488   3.947   3.511  15.121 -0.6103  0.2768 -0.2127
15358TIP3    H167489   3.916   3.557  15.199 -0.3182  1.0297 -0.5233
15358TIP3    H267490   4.039   3.537  15.114  0.0982 -1.8490  0.6500
15359TIP3   OH267491   0.728   4.202   0.359  0.0925 -0.3716  0.3717
15359TIP3    H167492   0.778   4.177   0.437  1.1853  1.3813  0.2821
15359TIP3    H267493   0.794   4.234   0.298 -1.1694  3.2961  0.7344
15360TIP3   OH267494   6.267   2.525   5.603 -0.1274 -0.7956 -0.4221
15360TIP3    H167495   6.285   2.440   5.564 -0.7275 -1.7802  1.3561
15360TIP3    H267496   6.219   2.573   5.535 -1.2975 -2.5092 -0.8702
15361TIP3   OH267497   1.664   0.883  11.507  0.1689  0.0255 -0.2023
15361TIP3    H167498   1.616   0.873  11.589  0.2115  0.0953 -0.1685
15361TIP3    H267499   1.697   0.973  11.509  0.0395  0.0776 -0.3673
15362TIP3   OH267500   1.315   1.501  16.832  0.0781 -0.0746  0.3719
15362TIP3    H167501   1.348   1.514  16.921 -0.4095  1.8294  0.3167
15362TIP3    H267502   1.260   1.423  16.838  1.4456 -1.0299  1.3123
15363TIP3   OH267503   0.315   3.953  13.417 -0.0924  0.1972 -0.1548
15363TIP3    H167504   0.226   3.927  13.439 -0.0626 -2.0577 -2.3225
15363TIP3    H267505   0.315   3.962  13.322  2.2373 -1.0481 -0.3504
15364TIP3   OH267506   4.528   2.065   5.258 -0.5490  0.1349 -0.1450
15364TIP3    H167507   4.545   2.087   5.349  2.1637  1.0053 -0.7727
15364TIP3    H267508   4.466   2.131   5.228 -1.0310  0.1785  0.9211
15365TIP3   OH267509   0.553   2.332  11.153 -0.5344  0.3705  0.4458
15365TIP3    H167510   0.610   2.325  11.077 -0.6983  0.2750  0.3310
15365TIP3    H267511   0.487   2.396  11.128 -1.7972 -1.1448 -0.2768
15366TIP3   OH267512   3.454   6.417   4.083 -0.2977 -0.0551 -0.0936
15366TIP3    H167513   3.381   6.442   4.027 -0.4340 -0.2607 -0.0135
15366TIP3    H267514   3.476   6.496   4.132  0.5901  0.4420 -1.2680
15367TIP3   OH267515   4.614   5.212  13.963 -0.5687 -0.2708 -0.0712
15367TIP3    H167516   4.562   5.187  13.886  0.1528  0.0846 -0.6969
15367TIP3    H267517   4.697   5.165  13.951 -0.8457 -1.0929  1.0863
15368TIP3   OH267518   1.013   3.389  14.118  0.3534  0.1588 -0.3421
15368TIP3    H167519   0.985   3.355  14.203 -1.0426  0.7161 -0.5509
15368TIP3    H267520   1.095   3.344  14.100 -0.4412 -1.6475  0.2792
15369TIP3   OH267521   5.374   4.717  11.907 -0.2862 -0.4766  0.0735
15369TIP3    H167522   5.452   4.767  11.933  0.4427 -0.9001 -1.2278
15369TIP3    H267523   5.394   4.684  11.819 -1.4385 -1.6413  0.2128
15370TIP3   OH267524   2.290   1.597  11.647 -0.3676 -0.3009 -0.4948
15370TIP3    H167525   2.338   1.525  11.687  0.7062  1.3271  1.3459
15370TIP3    H267526   2.238   1.635  11.718  0.3372  1.7018 -0.9591
15371TIP3   OH267527   0.537   1.020   3.277  0.4739 -0.1264  0.4510
15371TIP3    H167528   0.484   1.075   3.335 -0.6701  0.0179 -0.6896
15371TIP3    H267529   0.627   1.031   3.309 -0.0187  0.5910  1.6657
15372TIP3   OH267530   2.892   1.662  14.034 -0.1600 -0.3385 -0.5622
15372TIP3    H167531   2.806   1.645  13.996 -0.2854 -2.2225  0.4591
15372TIP3    H267532   2.951   1.604  13.987  0.2574 -0.2477 -0.1615
15373TIP3   OH267533   2.278   5.696  11.903  0.5660  0.0034  0.2134
15373TIP3    H167534   2.269   5.790  11.889 -0.5186 -0.1884 -0.5371
15373TIP3    H267535   2.357   5.673  11.855  0.8938  0.5458  0.4843
15374TIP3   OH267536   1.330   5.805  14.346  0.2480  0.5047  0.0297
15374TIP3    H167537   1.292   5.892  14.358 -0.2680  0.4360 -1.0196
15374TIP3    H267538   1.384   5.814  14.267 -0.3724 -0.3055 -0.4964
15375TIP3   OH267539   0.695   6.562   2.986 -0.5843  0.1035  0.3540
15375TIP3    H167540   0.678   6.468   2.984 -0.7937  0.1401 -2.1603
15375TIP3    H267541   0.609   6.603   2.982 -0.4077  0.3442 -1.8835
15376TIP3   OH267542   5.424   3.991  17.075 -0.0512 -0.0807 -0.8332
15376TIP3    H167543   5.372   3.981  17.155 -1.6462  2.0428 -1.5044
15376TIP3    H267544   5.421   3.905  17.033 -3.3713 -0.0197 -0.9768
15377TIP3   OH267545   4.763   6.225   3.777 -0.1821  0.0504  0.3073
15377TIP3    H167546   4.685   6.180   3.810 -0.1914 -1.0800 -1.1350
15377TIP3    H267547   4.802   6.162   3.716 -0.1934  1.9886 -1.8386
15378TIP3   OH267548   0.696   1.070  16.982  0.0184  0.1022  0.1120
15378TIP3    H167549   0.756   1.057  16.908 -1.1046  0.5108 -0.9136
15378TIP3    H267550   0.744   1.036  17.058  1.0912 -0.6134 -0.8430
15379TIP3   OH267551   3.087   5.254   4.589 -0.0461  0.3150 -0.2681
15379TIP3    H167552   3.149   5.327   4.589  0.8700 -0.4293 -1.4348
15379TIP3    H267553   3.134   5.182   4.631 -1.0619  0.4609  1.1864
15380TIP3   OH267554   0.359   6.579  13.657 -0.1035  0.3140  0.3779
15380TIP3    H167555   0.361   6.585  13.753 -0.5015  0.4945  0.3800
15380TIP3    H267556   0.435   6.629  13.628 -0.7677  1.4792  0.5634
15381TIP3   OH267557   2.862   3.876  14.864  0.4602  0.1189  0.5055
15381TIP3    H167558   2.829   3.927  14.790  0.3370 -0.9290 -0.1809
15381TIP3    H267559   2.817   3.791  14.857  2.1477 -0.8118  0.4267
15382TIP3   OH267560   4.365   0.015  15.693  0.0346  0.2832 -0.0831
15382TIP3    H167561   4.280   0.004  15.736 -1.0081 -0.4997 -2.2088
15382TIP3    H267562   4.365   0.105  15.664 -1.0361 -0.2530 -1.8988
15383TIP3   OH267563   3.428   1.583  10.955  0.4957  0.5508  0.8414
15383TIP3    H167564   3.464   1.668  10.931 -0.5553  0.3252 -2.0144
15383TIP3    H267565   3.498   1.521  10.934 -0.1026  0.4407 -1.0803
15384TIP3   OH267566   4.528   1.284  11.026  0.0704  0.0074 -0.1038
15384TIP3    H167567   4.493   1.291  10.937  1.0575  0.9258 -0.4413
15384TIP3    H267568   4.598   1.218  11.019 -0.0156 -0.1026  0.0515
15385TIP3   OH267569   1.198   3.922  16.620  0.3014 -0.3878 -0.1639
15385TIP3    H167570   1.238   4.001  16.656  1.1401 -0.9334  0.1478
15385TIP3    H267571   1.270   3.879  16.573 -0.2251 -0.7995 -0.6017
15386TIP3   OH267572   6.809   1.317  13.505 -0.1850 -0.0842  0.5094
15386TIP3    H167573   6.719   1.284  13.509 -0.2992  0.1164 -0.2099
15386TIP3    H267574   6.848   1.271  13.431 -0.9723  2.8234 -1.8974
15387TIP3   OH267575   6.397   4.648  15.014  0.4810  0.3627 -0.2292
15387TIP3    H167576   6.442   4.696  14.945  0.2006  1.1721  0.1474
15387TIP3    H267577   6.407   4.703  15.092 -1.1766  0.5661 -0.1436
15388TIP3   OH267578   1.844   1.558   2.835 -0.2286  0.6030  0.0872
15388TIP3    H167579   1.914   1.521   2.782  1.4878  1.6556  1.4880
15388TIP3    H267580   1.790   1.607   2.773  0.9650  0.7488 -0.8832
15389TIP3   OH267581   5.502   0.349   0.880 -0.0705  0.1994  0.3548
15389TIP3    H167582   5.473   0.272   0.930  0.1756 -1.0887 -1.3972
15389TIP3    H267583   5.428   0.408   0.882 -0.3467 -0.1508  1.5596
15390TIP3   OH267584   3.602   6.628   0.792 -0.2611 -0.1844  0.3161
15390TIP3    H167585   3.591   6.614   0.698  0.8153 -1.4594  0.3509
15390TIP3    H267586   3.631   6.719   0.798 -2.0763  0.4838 -0.4110
15391TIP3   OH267587   0.556   4.738  12.560 -0.4965 -0.3076  0.0488
15391TIP3    H167588   0.589   4.770  12.644  0.3618 -0.1432 -0.3393
15391TIP3    H267589   0.634   4.715  12.511 -1.0379 -2.0889 -0.0662
15392TIP3   OH267590   0.509   3.333  12.165 -0.6776 -0.2938  0.1776
15392TIP3    H167591   0.420   3.318  12.196 -0.7578  0.4398  0.3304
15392TIP3    H267592   0.501   3.407  12.104 -0.0951  0.1784  0.6498
15393TIP3   OH267593   4.766   3.448   2.800 -0.2891 -0.4329 -0.3912
15393TIP3    H167594   4.702   3.404   2.744 -0.8555  0.9053 -0.8578
15393TIP3    H267595   4.816   3.503   2.739 -0.4011  0.4609  0.2996
15394TIP3   OH267596   0.647   1.520  11.368  0.3783 -0.0739 -0.3720
15394TIP3    H167597   0.670   1.483  11.283  1.3504 -0.1247 -0.0999
15394TIP3    H267598   0.570   1.574  11.350 -1.1327 -2.2519 -0.7589
15395TIP3   OH267599   2.020   2.328  14.407  0.0205 -0.2486  0.1612
15395TIP3    H167600   2.063   2.244  14.421  1.0841  0.3755  0.7732
15395TIP3    H267601   2.030   2.374  14.491 -2.4565 -0.3161  0.5930
15396TIP3   OH267602   5.501   5.375   2.536  0.2244  0.1168  0.3405
15396TIP3    H167603   5.578   5.407   2.582  0.1012  0.5290  0.2660
15396TIP3    H267604   5.437   5.359   2.605 -0.8629  3.1778  0.1882
15397TIP3   OH267605   4.744   1.199   2.942  1.0859 -0.9632  0.3974
15397TIP3    H167606   4.817   1.256   2.918 -0.4435 -0.1353 -2.7779
15397TIP3    H267607   4.684   1.257   2.991  2.1008 -1.4413  2.2973
15398TIP3   OH267608   0.899   4.127  16.127  0.4338 -0.0404 -0.0939
15398TIP3    H167609   0.841   4.095  16.196 -0.1579  0.0889 -0.5239
15398TIP3    H267610   0.851   4.112  16.046  0.6048  0.9242 -0.3898
15399TIP3   OH267611   6.525   6.789   1.295 -0.2963  0.1406 -0.2637
15399TIP3    H167612   6.490   6.878   1.286 -0.0871  0.4547  1.6191
15399TIP3    H267613   6.602   6.788   1.238 -0.9224  0.7846 -1.1673
15400TIP3   OH267614   2.242   4.441  16.260  0.4897  0.2014  0.5152
15400TIP3    H167615   2.275   4.481  16.340  2.6558  0.7640 -0.5845
15400TIP3    H267616   2.187   4.368  16.290 -0.5514  1.7227  2.4887
15401TIP3   OH267617   5.467   6.811  15.163 -0.0053  0.0923  0.8828
15401TIP3    H167618   5.374   6.828  15.151 -0.1370  0.1946  1.9468
15401TIP3    H267619   5.501   6.891  15.204 -0.0681 -1.0355  3.3185
15402TIP3   OH267620   6.464   0.145  12.802 -0.3322  0.2786  0.2059
15402TIP3    H167621   6.389   0.171  12.748 -2.0257 -0.0771  2.2325
15402TIP3    H267622   6.507   0.077  12.751 -1.5503  0.3109 -0.9288
15403TIP3   OH267623   2.107   2.171   0.084 -0.0864 -0.0975 -0.4534
15403TIP3    H167624   2.125   2.155  -0.009 -1.4495  1.6901 -1.0880
15403TIP3    H267625   2.187   2.210   0.118  0.8508 -1.8604 -0.5312
15404TIP3   OH267626   2.780   2.525  17.019 -0.1774  0.2024 -0.1640
15404TIP3    H167627   2.798   2.457  17.084 -1.2781  1.7560  1.8968
15404TIP3    H267628   2.694   2.560  17.045  0.2913  2.2778 -1.2120
15405TIP3   OH267629   1.686   0.574   3.732  0.0165  0.0638  0.2070
15405TIP3    H167630   1.727   0.550   3.648 -0.6102  2.7131 -0.9706
15405TIP3    H267631   1.594   0.548   3.722 -0.3906  1.6689 -0.5837
15406TIP3   OH267632   0.961   4.738   4.926  0.0568 -0.2214 -0.4455
15406TIP3    H167633   0.960   4.648   4.958 -0.3379  0.4578  1.6007
15406TIP3    H267634   0.884   4.745   4.869 -1.1041 -0.6680  0.9998
15407TIP3   OH267635   0.556   6.509   4.915 -0.0084  0.0935 -0.2742
15407TIP3    H167636   0.616   6.459   4.860  1.7899  0.9506  0.8295
15407TIP3    H267637   0.520   6.576   4.856 -0.4114 -0.8268 -1.1054
15408TIP3   OH267638   6.028   5.199  13.014 -0.7016  0.2964  0.7935
15408TIP3    H167639   5.969   5.165  13.081 -1.4332 -0.4038 -0.1815
15408TIP3    H267640   5.982   5.184  12.932 -0.0839  1.6825  0.1687
15409TIP3   OH267641   5.511   6.189  16.398  0.4633  0.2750  0.5792
15409TIP3    H167642   5.578   6.172  16.464 -0.8786 -1.4701  1.5887
15409TIP3    H267643   5.474   6.274  16.423  2.1590  1.2002  0.0759
15410TIP3   OH267644   5.079   5.171   2.745 -0.6178  0.6555 -0.0873
15410TIP3    H167645   5.047   5.178   2.835 -0.9936 -1.6280  0.0005
15410TIP3    H267646   5.170   5.199   2.751 -0.2422 -0.7285  1.2872
15411TIP3   OH267647   2.115   4.212  11.564 -0.5325  0.4723 -0.1499
15411TIP3    H167648   2.095   4.268  11.489 -1.4401  1.3770  0.7496
15411TIP3    H267649   2.113   4.270  11.639  0.4442 -0.4096  0.5935
15412TIP3   OH267650   3.032   4.966  14.023  0.0502 -0.0938 -0.0968
15412TIP3    H167651   2.964   5.006  13.969  0.1369 -0.0441 -0.1695
15412TIP3    H267652   3.078   5.040  14.062  1.1677 -0.0622 -1.3983
15413TIP3   OH267653   4.027   0.360   3.742  0.5059  0.2296 -0.1134
15413TIP3    H167654   4.115   0.368   3.707  0.3467  1.2167 -0.3215
15413TIP3    H267655   3.980   0.308   3.677  0.5553  0.9519 -0.7432
15414TIP3   OH267656   3.598   3.304  10.935 -0.0033 -1.2836  0.2306
15414TIP3    H167657   3.541   3.379  10.923  0.8672 -0.3635  1.6097
15414TIP3    H267658   3.617   3.274  10.846  0.0452  0.4555 -0.3865
15415TIP3   OH267659   2.431   0.763   2.258 -0.0079  0.0465  0.1196
15415TIP3    H167660   2.500   0.821   2.289  0.5574  0.3334 -1.5402
15415TIP3    H267661   2.477   0.693   2.212 -0.7910 -0.1056 -0.4699
15416TIP3   OH267662   3.399   2.783   2.008 -0.2376 -0.1582  0.3064
15416TIP3    H167663   3.362   2.695   2.001 -0.3470  0.0165 -2.9622
15416TIP3    H267664   3.493   2.769   2.017 -0.3017 -0.6327  0.2524
15417TIP3   OH267665   4.803   4.103   5.053  0.6922  0.4244 -0.1498
15417TIP3    H167666   4.723   4.087   5.103  1.2361  0.5804  0.8003
15417TIP3    H267667   4.800   4.039   4.982 -1.2157  1.7054 -1.2899
15418TIP3   OH267668   5.556   5.432   3.545 -0.2648 -0.2237  0.2033
15418TIP3    H167669   5.474   5.403   3.505  0.0731  2.6669 -3.0327
15418TIP3    H267670   5.590   5.499   3.485  2.6465  1.3391  3.2583
15419TIP3   OH267671   2.359   6.058   4.269 -0.1232  0.2685  0.2825
15419TIP3    H167672   2.362   6.129   4.333  0.3299  0.0436  0.5194
15419TIP3    H267673   2.267   6.031   4.267 -0.9216  2.7557 -1.9427
15420TIP3   OH267674   6.089   5.378   5.976 -0.3408  0.2179  0.2309
15420TIP3    H167675   6.183   5.359   5.976 -0.2033  0.8849 -0.1407
15420TIP3    H267676   6.061   5.355   6.065 -0.0311 -0.9283  0.0550
15421TIP3   OH267677   0.568   5.076   3.355 -0.4424  0.2210  0.0902
15421TIP3    H167678   0.636   5.048   3.294  1.1330  2.2646  0.7530
15421TIP3    H267679   0.526   4.995   3.384  1.0714 -1.0466 -1.0788
15422TIP3   OH267680   3.567   5.740  14.468  0.3961  0.4240 -0.2593
15422TIP3    H167681   3.516   5.801  14.522 -0.1601  1.1226 -1.5226
15422TIP3    H267682   3.648   5.725  14.518 -0.2785  0.6848  0.9580
15423TIP3   OH267683   3.542   5.691   4.066  0.0090  0.1901  0.5796
15423TIP3    H167684   3.611   5.636   4.105  1.2205  0.7331 -0.7303
15423TIP3    H267685   3.542   5.770   4.119  0.4278  0.2037  0.5638
15424TIP3   OH267686   4.764   0.664   5.717  0.5637 -0.0016  0.0368
15424TIP3    H167687   4.778   0.758   5.704  0.5913  0.0895  0.6806
15424TIP3    H267688   4.833   0.622   5.665  1.5697  0.3806  1.0015
15425TIP3   OH267689   3.235   4.215   1.630 -0.5586 -0.9851  0.2339
15425TIP3    H167690   3.165   4.192   1.691 -2.0792 -1.3365 -1.5621
15425TIP3    H267691   3.227   4.152   1.559  1.0119 -0.4588 -0.4559
15426TIP3   OH267692   3.898   0.598   5.645 -0.5271  0.1409  0.0790
15426TIP3    H167693   3.950   0.636   5.574 -0.4410  0.3133  0.2321
15426TIP3    H267694   3.936   0.511   5.658  0.6580  0.7670  1.1189
15427TIP3   OH267695   2.770   2.291  13.745  0.4502  0.3112  0.1097
15427TIP3    H167696   2.767   2.375  13.792  2.6235  0.1645  0.6466
15427TIP3    H267697   2.787   2.226  13.813  2.3089 -0.0761 -0.6366
15428TIP3   OH267698   2.583   0.593  15.465  0.6210  0.2975 -0.3863
15428TIP3    H167699   2.613   0.598  15.556 -0.7853  1.4604  0.0535
15428TIP3    H267700   2.662   0.579  15.414  1.8041  2.1766  0.8095
15429TIP3   OH267701   0.205   4.629  12.133  0.7616  0.3083  0.7522
15429TIP3    H167702   0.137   4.692  12.112  0.9185  0.7111  1.4163
15429TIP3    H267703   0.208   4.628  12.228  2.4705  1.1826  0.7529
15430TIP3   OH267704   0.269   1.041  14.957 -0.1580 -0.3188 -0.4005
15430TIP3    H167705   0.252   0.954  14.992  1.1720 -0.3748  0.1800
15430TIP3    H267706   0.289   1.026  14.865  1.0535 -0.7812 -0.0853
15431TIP3   OH267707   3.412   1.094   0.575  0.2375 -0.2338 -0.4581
15431TIP3    H167708   3.344   1.034   0.544  0.2194  0.4505 -1.8477
15431TIP3    H267709   3.491   1.041   0.581 -0.1877 -0.8056  0.1540
15432TIP3   OH267710   4.505   2.423  11.188 -0.1486 -0.1805 -0.0021
15432TIP3    H167711   4.532   2.478  11.114 -0.6823 -0.4947 -0.4383
15432TIP3    H267712   4.549   2.462  11.264 -0.1251  0.5547 -0.3794
15433TIP3   OH267713   5.895   4.104   6.912  0.2863 -0.1056  0.2961
15433TIP3    H167714   5.956   4.070   6.847  2.5208  1.8566  1.1933
15433TIP3    H267715   5.822   4.043   6.912  1.3820 -1.5380 -2.2127
15434TIP3   OH267716   1.338   0.215   4.462  0.5442  0.1599 -0.1094
15434TIP3    H167717   1.371   0.287   4.408  1.2417 -0.4023 -0.4547
15434TIP3    H267718   1.252   0.195   4.426  0.5724  0.4684 -0.3526
15435TIP3   OH267719   5.166   3.718   1.888 -0.4262  0.6373 -0.3709
15435TIP3    H167720   5.236   3.782   1.882 -0.1080  0.7359  2.7349
15435TIP3    H267721   5.199   3.641   1.842  1.0741  1.2078 -0.2843
15436TIP3   OH267722   0.176   0.898   0.911 -0.1084 -0.0466  0.7808
15436TIP3    H167723   0.100   0.951   0.889 -1.2782 -2.0207 -0.1864
15436TIP3    H267724   0.241   0.961   0.942 -1.2344  1.9820 -0.7447
15437TIP3   OH267725   1.860   0.748   4.097 -0.1331  0.2431 -0.2409
15437TIP3    H167726   1.955   0.748   4.081 -0.0899 -2.2513 -0.5055
15437TIP3    H267727   1.822   0.783   4.016  0.5567  1.4582 -0.0529
15438TIP3   OH267728   5.994   0.003   6.091  0.4754 -0.3183  0.1174
15438TIP3    H167729   5.968  -0.061   6.025 -1.7197  0.5608  0.0351
15438TIP3    H267730   6.055   0.061   6.046 -0.2601 -0.2869 -0.8632
15439TIP3   OH267731   1.779   4.105  11.172 -0.5519 -0.8592  0.2527
15439TIP3    H167732   1.796   4.194  11.202  0.8703 -0.9895 -0.1095
15439TIP3    H267733   1.683   4.101  11.163 -0.5498  1.4386 -2.0951
15440TIP3   OH267734   3.887   3.885  13.748  0.5081 -0.5744 -0.3291
15440TIP3    H167735   3.808   3.925  13.785  0.0812 -2.0598  0.4554
15440TIP3    H267736   3.864   3.792  13.738  2.1418 -1.0283 -0.1197
15441TIP3   OH267737   6.396   5.009  15.649  0.3820  0.1824 -0.2962
15441TIP3    H167738   6.439   5.090  15.621  1.5479 -0.5422 -0.6560
15441TIP3    H267739   6.422   4.944  15.585  2.2640 -1.2812  1.7974
15442TIP3   OH267740   4.506   1.226   3.986 -0.1259  0.1194  0.2140
15442TIP3    H167741   4.442   1.200   3.920 -1.9943  0.2900  1.8388
15442TIP3    H267742   4.501   1.321   3.989  0.6441  0.1751 -0.0351
15443TIP3   OH267743   2.896   5.039   0.379 -0.2381  0.3778 -0.5424
15443TIP3    H167744   2.808   5.004   0.372 -0.0730 -0.5869  1.5853
15443TIP3    H267745   2.952   4.971   0.339 -0.2849  0.1242 -0.1744
15444TIP3   OH267746   1.473   5.854  14.104 -0.1333  0.0649  0.2538
15444TIP3    H167747   1.415   5.797  14.054  0.2835  0.7562 -1.0569
15444TIP3    H267748   1.513   5.911  14.039  1.6759 -0.0866  1.1703
15445TIP3   OH267749   3.857   0.329  14.750 -0.0078  0.0046  0.1748
15445TIP3    H167750   3.845   0.367  14.837 -0.2786  0.4145 -0.0401
15445TIP3    H267751   3.771   0.334  14.709  0.3793  0.9056 -0.5582
15446TIP3   OH267752   0.644   6.652  15.271 -0.2282 -0.2999 -0.3403
15446TIP3    H167753   0.608   6.591  15.336  2.5126 -1.5215  0.1645
15446TIP3    H267754   0.602   6.627  15.189  0.2888 -2.4461 -0.0097
15447TIP3   OH267755   5.727   6.272  10.256  0.3515  0.3830  0.7911
15447TIP3    H167756   5.807   6.223  10.242  0.1143  0.7586 -2.5416
15447TIP3    H267757   5.656   6.210  10.237 -0.1494  0.5327  2.0335
15448TIP3   OH267758   1.330   4.145  16.995  0.4404 -0.1384  0.3859
15448TIP3    H167759   1.374   4.061  16.992  0.2772 -0.2333  0.5742
15448TIP3    H267760   1.305   4.156  17.087 -0.0917 -0.1786  0.2555
15449TIP3   OH267761   4.693   6.366   3.324  0.5553 -0.1903 -0.2864
15449TIP3    H167762   4.771   6.314   3.344  1.1875 -0.4581 -3.1374
15449TIP3    H267763   4.715   6.455   3.354  0.9440 -0.7394  1.1531
15450TIP3   OH267764   5.128   5.120   0.995  0.0999 -0.1265  0.2630
15450TIP3    H167765   5.087   5.143   1.079  1.2201 -0.1899  0.8547
15450TIP3    H267766   5.200   5.061   1.020  1.7712  1.4924 -0.5216
15451TIP3   OH267767   2.908   1.658  12.629  0.0393  0.2019 -0.3903
15451TIP3    H167768   2.925   1.575  12.584  2.3321  0.1842  0.3888
15451TIP3    H267769   2.935   1.643  12.719  0.8814  1.9001 -0.3154
15452TIP3   OH267770   6.574   4.913   5.843  0.0511 -0.1371 -0.1397
15452TIP3    H167771   6.508   4.876   5.902 -0.9988  0.0510 -1.1504
15452TIP3    H267772   6.627   4.838   5.817 -2.5190 -1.2408 -2.7571
15453TIP3   OH267773   1.082   5.663   3.227  0.3880  0.3413 -0.1515
15453TIP3    H167774   1.072   5.696   3.316  1.2294  0.8882 -0.2500
15453TIP3    H267775   1.082   5.741   3.172 -1.2160 -0.0581 -0.7542
15454TIP3   OH267776   3.536   2.583   5.425  0.3609  0.5426 -0.2092
15454TIP3    H167777   3.485   2.592   5.345 -0.5212 -0.4071  0.2247
15454TIP3    H267778   3.495   2.643   5.487  0.4024  0.5175 -0.1571
15455TIP3   OH267779   5.695   5.823  15.834  0.0971  0.2225 -0.0639
15455TIP3    H167780   5.744   5.903  15.854  0.5889  0.2320 -1.2361
15455TIP3    H267781   5.607   5.839  15.869  0.9160  0.1500  2.2388
15456TIP3   OH267782   1.451   3.986  15.724  0.2608 -0.6124 -0.1959
15456TIP3    H167783   1.373   3.936  15.701 -0.0100  0.0493 -0.7731
15456TIP3    H267784   1.439   4.070  15.680  0.8158 -0.1240  0.5465
15457TIP3   OH267785   1.692   2.430   1.709  0.1879  0.1427 -0.1329
15457TIP3    H167786   1.609   2.468   1.739  0.2898 -0.9723  1.7073
15457TIP3    H267787   1.689   2.439   1.614 -1.5277  1.1585 -0.0275
15458TIP3   OH267788   2.783   4.763   4.106  0.1281  0.1731  0.0467
15458TIP3    H167789   2.863   4.814   4.092 -0.5082  1.4840  0.9291
15458TIP3    H267790   2.712   4.823   4.082 -0.7289  0.5223  3.0382
15459TIP3   OH267791   6.734   0.345  14.703 -0.1323 -0.0409  0.0408
15459TIP3    H167792   6.771   0.296  14.777  1.8222  0.4052 -0.5753
15459TIP3    H267793   6.754   0.292  14.626  1.1521  1.1961 -0.5306
15460TIP3   OH267794   6.183   2.525  11.242  0.6098 -0.0872 -0.0647
15460TIP3    H167795   6.256   2.587  11.235  1.5770 -1.2041 -0.1025
15460TIP3    H267796   6.105   2.578  11.225  1.2919  1.3810  1.1833
15461TIP3   OH267797   6.567   3.652   4.479  0.1260 -0.0628  0.2761
15461TIP3    H167798   6.511   3.602   4.539 -0.9425  0.7532 -0.0063
15461TIP3    H267799   6.645   3.598   4.468  0.3970 -0.2024  2.4703
15462TIP3   OH267800   6.002   1.869  13.964  0.3056 -0.1502 -0.1293
15462TIP3    H167801   5.915   1.907  13.954 -0.4746 -1.7089  0.3626
15462TIP3    H267802   6.023   1.881  14.056  0.8437  0.6517 -0.3446
15463TIP3   OH267803   5.191   4.174  16.487 -0.1116 -0.1012 -0.3470
15463TIP3    H167804   5.134   4.142  16.557  0.0330  1.0846  0.3340
15463TIP3    H267805   5.130   4.215  16.424 -0.0681  0.6785  0.1121
15464TIP3   OH267806   6.119   6.736  16.659  0.3104 -0.2101  0.4746
15464TIP3    H167807   6.064   6.749  16.582  1.9932  0.2146 -0.7293
15464TIP3    H267808   6.143   6.643  16.656 -0.3555 -0.4088  1.0302
15465TIP3   OH267809   4.104   5.727  15.693 -0.0237 -0.3626  0.2384
15465TIP3    H167810   4.040   5.715  15.623  1.6470 -1.5911 -1.1660
15465TIP3    H267811   4.113   5.641  15.733 -0.4956  0.1914  1.5864
15466TIP3   OH267812   4.191   4.163   5.413  0.3963 -0.0405  0.5981
15466TIP3    H167813   4.176   4.140   5.504 -0.1174  1.5278  0.9442
15466TIP3    H267814   4.283   4.139   5.397  0.2796 -0.9780  1.3045
15467TIP3   OH267815   4.658   0.962   0.208 -0.2761  0.1870 -0.3636
15467TIP3    H167816   4.604   0.884   0.193  0.5700 -0.1590 -1.6825
15467TIP3    H267817   4.616   1.031   0.156  0.4987 -0.0634 -1.3300
15468TIP3   OH267818   3.097   3.979  13.828 -0.0169 -0.0501  0.4293
15468TIP3    H167819   3.044   4.051  13.794 -0.8784 -1.4307 -1.2563
15468TIP3    H267820   3.042   3.938  13.894 -1.1529 -1.4859 -1.3210
15469TIP3   OH267821   5.216   6.806   3.190  0.3428 -0.6090 -0.1761
15469TIP3    H167822   5.298   6.850   3.166  0.9418 -1.4180  0.3479
15469TIP3    H267823   5.199   6.746   3.118  1.5470 -2.2284  0.8340
15470TIP3   OH267824   4.982   2.560  16.901 -0.7201 -0.2559 -0.2837
15470TIP3    H167825   5.047   2.508  16.948 -0.5640 -2.0578 -2.3410
15470TIP3    H267826   4.907   2.501  16.893 -1.2520  0.5131 -1.0589
15471TIP3   OH267827   1.079   6.540  12.808 -0.0570 -0.5732 -0.2555
15471TIP3    H167828   1.081   6.534  12.904 -3.7800  0.1688  0.0162
15471TIP3    H267829   1.055   6.631  12.790  0.9875 -0.5843 -1.9697
15472TIP3   OH267830   4.781   0.944   1.859 -0.3002 -0.5627  0.8792
15472TIP3    H167831   4.800   1.019   1.803 -0.7633 -2.1244 -1.5169
15472TIP3    H267832   4.867   0.914   1.889  0.0601 -0.3672  0.0648
15473TIP3   OH267833   4.440   0.404  14.022  0.1141 -0.5611 -0.0488
15473TIP3    H167834   4.456   0.395  14.116  1.0492 -2.5607 -0.3493
15473TIP3    H267835   4.374   0.473  14.015 -2.1343 -2.2783  2.2646
15474TIP3   OH267836   0.819   0.757   6.007  0.1301  0.0056 -0.3961
15474TIP3    H167837   0.815   0.793   6.095  1.1694  0.2512 -0.4434
15474TIP3    H267838   0.727   0.753   5.979 -0.0666  2.0998 -0.1902
15475TIP3   OH267839   4.382   5.035   1.923  0.3164  0.0081  0.0918
15475TIP3    H167840   4.404   4.958   1.976 -2.9552 -0.0135  1.6433
15475TIP3    H267841   4.420   5.109   1.971 -0.0948 -0.2839  0.8798
15476TIP3   OH267842   6.231   6.811   1.744  0.3801  0.3526  0.4160
15476TIP3    H167843   6.190   6.740   1.695 -0.7245 -0.0985  1.9200
15476TIP3    H267844   6.323   6.784   1.752  0.9010  0.9933 -2.3109
15477TIP3   OH267845   5.328   4.065   1.517  0.1865  1.0151  0.0561
15477TIP3    H167846   5.362   4.126   1.582 -2.3956  0.2224  2.3580
15477TIP3    H267847   5.239   4.047   1.546  0.4976 -3.1557 -0.9827
15478TIP3   OH267848   1.027   2.934   3.814 -0.1240  0.7571 -0.3093
15478TIP3    H167849   1.058   3.011   3.767 -0.9145  1.7387  0.7331
15478TIP3    H267850   1.080   2.932   3.894  1.5224 -1.1519 -1.3548
15479TIP3   OH267851   2.848   2.783  16.054  1.0697 -0.4946  0.1260
15479TIP3    H167852   2.884   2.863  16.091 -1.2001  1.1156 -0.9484
15479TIP3    H267853   2.871   2.715  16.118  1.3953  1.3307  2.0638
15480TIP3   OH267854   6.462   5.786  14.243  0.2836 -0.3447  0.5180
15480TIP3    H167855   6.419   5.703  14.222  0.8527 -0.9214  1.5451
15480TIP3    H267856   6.395   5.852  14.229  0.1067 -0.8586 -1.2742
15481TIP3   OH267857   5.880   3.016  12.763 -0.6534 -0.1001 -0.2498
15481TIP3    H167858   5.825   3.093  12.747 -0.7272 -0.3924 -1.4408
15481TIP3    H267859   5.868   2.997  12.856 -1.6905  0.5197 -0.2485
15482TIP3   OH267860   6.471   3.597  15.982  0.7683 -0.6517 -0.4756
15482TIP3    H167861   6.427   3.660  15.925 -1.8463  0.2602  2.2498
15482TIP3    H267862   6.560   3.629  15.989  0.9121 -0.2856 -3.2059
15483TIP3   OH267863   6.167   2.458   6.145  0.1830 -0.0521 -0.2546
15483TIP3    H167864   6.181   2.552   6.130 -1.9885  0.5212  0.9063
15483TIP3    H267865   6.134   2.425   6.061  0.2056  0.3704 -0.4339
15484TIP3   OH267866   5.720   3.505   4.364  0.5292  0.5499 -0.2571
15484TIP3    H167867   5.699   3.529   4.454  1.3602 -1.9950  0.6828
15484TIP3    H267868   5.815   3.512   4.358  0.5521 -0.0760 -0.7009
15485TIP3   OH267869   2.369   1.429  11.370 -0.1084 -0.2202 -0.3748
15485TIP3    H167870   2.325   1.354  11.412  0.1121  0.7452  1.7188
15485TIP3    H267871   2.462   1.411  11.382 -0.0500  0.2097 -0.1859
15486TIP3   OH267872   4.742   3.354   0.810  0.2141 -0.3665  0.3515
15486TIP3    H167873   4.705   3.266   0.821  0.8315 -0.7250 -0.3187
15486TIP3    H267874   4.803   3.345   0.737  0.3651  0.6018  0.3465
15487TIP3   OH267875   1.610   2.128  13.136  0.3641 -0.6414  0.4683
15487TIP3    H167876   1.697   2.114  13.175 -0.0368  0.2404  1.7464
15487TIP3    H267877   1.623   2.201  13.076  0.0035  1.3291  2.6638
15488TIP3   OH267878   2.154   4.528   0.786  0.1355  0.0673  0.2177
15488TIP3    H167879   2.227   4.528   0.725  0.9368 -0.7993  1.1376
15488TIP3    H267880   2.158   4.614   0.828 -0.1421  0.4889 -0.6011
15489TIP3   OH267881   0.374   1.682  14.333 -0.9169 -0.0517  0.1898
15489TIP3    H167882   0.305   1.700  14.397 -1.0078 -0.3154  0.1658
15489TIP3    H267883   0.328   1.679  14.249 -0.4606  2.8994 -0.2767
15490TIP3   OH267884   2.185   5.590   0.709 -0.3155  0.4050 -0.5384
15490TIP3    H167885   2.096   5.618   0.689 -0.8626 -0.5474  0.4498
15490TIP3    H267886   2.229   5.669   0.739 -1.6105  0.4034  1.5062
15491TIP3   OH267887   4.649   3.254  15.064 -0.7991 -0.0983  0.0976
15491TIP3    H167888   4.666   3.281  14.974 -1.2890 -1.4116 -0.4124
15491TIP3    H267889   4.564   3.293  15.085  0.5381  2.6170  1.0546
15492TIP3   OH267890   6.672   5.081   0.230  0.2337  0.0678  0.3252
15492TIP3    H167891   6.619   5.011   0.268 -0.2131  1.9940  3.6921
15492TIP3    H267892   6.757   5.071   0.272  0.6084  0.6823 -0.2822
15493TIP3   OH267893   2.159   2.556  11.730 -0.0550 -0.1468  0.3912
15493TIP3    H167894   2.172   2.625  11.665 -0.6893  0.5098  0.9380
15493TIP3    H267895   2.073   2.574  11.767  0.6683  0.0770  2.0755
15494TIP3   OH267896   1.255   4.109  15.268  0.1818  0.5415  0.4353
15494TIP3    H167897   1.280   4.116  15.360 -1.2382 -2.4625  1.1636
15494TIP3    H267898   1.303   4.032  15.236 -0.7999  0.4034 -0.7804
15495TIP3   OH267899   2.478   5.597   6.537 -0.2889  0.4172 -0.0270
15495TIP3    H167900   2.386   5.596   6.509 -0.2695  0.1355 -0.0821
15495TIP3    H267901   2.504   5.505   6.537  0.4589  0.6012 -1.5355
15496TIP3   OH267902   4.944   1.918  16.740 -0.4074 -0.3317 -0.7254
15496TIP3    H167903   4.908   1.935  16.653 -0.8775  0.9370 -0.3030
15496TIP3    H267904   4.889   1.969  16.800 -0.0731 -1.1515  0.3180
15497TIP3   OH267905   1.574   6.435   5.325 -0.0021 -0.6072  0.7298
15497TIP3    H167906   1.515   6.381   5.272  1.0840 -0.7270 -0.3938
15497TIP3    H267907   1.530   6.441   5.410 -1.0387 -1.7114  0.3091
15498TIP3   OH267908   6.404   4.979  13.855 -0.2203  0.0706 -0.0592
15498TIP3    H167909   6.448   4.954  13.937  0.8060 -0.5047 -0.7596
15498TIP3    H267910   6.449   4.928  13.787 -1.5176  0.0052 -0.9074
15499TIP3   OH267911   1.075   6.314   0.575  0.1453 -0.1361  0.3770
15499TIP3    H167912   0.992   6.358   0.588  0.2689  0.3411 -0.4255
15499TIP3    H267913   1.134   6.354   0.640  0.3877  1.2448 -0.6559
15500TIP3   OH267914   0.769   4.437  17.026  0.1109  0.0701  0.3168
15500TIP3    H167915   0.740   4.480  16.946 -0.1901 -0.5786  0.0680
15500TIP3    H267916   0.691   4.391  17.058  0.6613 -1.1421  0.0093
15501TIP3   OH267917   2.779   5.352  14.503  0.5604  0.3598  0.2548
15501TIP3    H167918   2.761   5.437  14.463 -0.9257  0.4414  1.0142
15501TIP3    H267919   2.707   5.296  14.474  1.5104 -0.6462 -0.2107
15502TIP3   OH267920   5.425   4.765  13.737 -0.3856 -0.1849 -0.0716
15502TIP3    H167921   5.395   4.855  13.743 -1.4817 -0.4948 -0.5651
15502TIP3    H267922   5.482   4.764  13.660  0.1343  0.2094  0.3020
15503TIP3   OH267923   0.947   0.063  10.968 -0.1318  0.6261  0.1006
15503TIP3    H167924   0.926   0.132  10.905  0.5443  0.8461  0.1148
15503TIP3    H267925   0.862   0.025  10.991 -0.2427 -1.3019 -2.9876
15504TIP3   OH267926   2.980   6.429  15.690 -0.1247  0.3224  0.3005
15504TIP3    H167927   3.016   6.399  15.773  1.1836  2.0864  0.4227
15504TIP3    H267928   3.051   6.418  15.627 -0.8958 -0.3914 -0.4915
15505TIP3   OH267929   4.789   1.471   3.880 -0.0313 -0.3333 -0.6437
15505TIP3    H167930   4.777   1.412   3.955 -1.2142 -0.8973 -1.2466
15505TIP3    H267931   4.857   1.532   3.908 -0.7242 -0.2827  1.0526
15506TIP3   OH267932   0.829   0.904  12.779  0.3393 -0.0809 -0.1942
15506TIP3    H167933   0.836   0.812  12.805 -1.3538 -0.6472 -1.5044
15506TIP3    H267934   0.745   0.933  12.816  1.8188  1.6512  2.0462
15507TIP3   OH267935   2.993   2.639  11.369 -0.0621 -0.0890  0.1412
15507TIP3    H167936   2.940   2.626  11.447 -0.3012  1.0090  0.1748
15507TIP3    H267937   2.930   2.633  11.296 -0.0231 -0.0594  0.1047
15508TIP3   OH267938   4.307   5.634  12.653 -0.3607 -0.6307 -0.4387
15508TIP3    H167939   4.388   5.634  12.704 -0.6446 -2.4827  0.0897
15508TIP3    H267940   4.292   5.542  12.631 -1.4272 -0.1248 -2.0023
15509TIP3   OH267941   3.784   2.411   0.856 -0.2547 -0.5795  0.1134
15509TIP3    H167942   3.785   2.393   0.762 -2.4700  0.6816 -0.2407
15509TIP3    H267943   3.859   2.469   0.870 -2.7766  3.8208 -2.1083
15510TIP3   OH267944   1.950   5.640  16.703  0.0717 -0.5935 -0.0740
15510TIP3    H167945   1.876   5.697  16.723 -0.4570  0.0807 -3.4130
15510TIP3    H267946   1.947   5.628  16.608  2.7015 -2.7386 -0.0240
15511TIP3   OH267947   4.043   5.838   3.524 -0.6701 -0.2829 -0.0562
15511TIP3    H167948   4.029   5.811   3.615 -0.1755  1.8881  0.7449
15511TIP3    H267949   4.124   5.796   3.498  1.3259  2.0254  1.9175
15512TIP3   OH267950   4.361   5.509  13.481  0.4345  0.7814  0.1323
15512TIP3    H167951   4.336   5.504  13.573  1.5044 -1.0116  0.3766
15512TIP3    H267952   4.451   5.543  13.482  1.1711 -1.0116 -0.0443
15513TIP3   OH267953   0.980   4.119   3.480 -0.4922  0.1971 -0.1899
15513TIP3    H167954   0.931   4.201   3.485  1.0721  1.2019 -0.5370
15513TIP3    H267955   0.982   4.098   3.387 -1.8692 -0.8987 -0.0075
15514TIP3   OH267956   2.616   4.194  15.957 -0.3869 -0.1220 -0.0192
15514TIP3    H167957   2.625   4.120  16.016  0.8931  0.5804  0.7135
15514TIP3    H267958   2.641   4.270  16.010  1.2518  0.4846 -1.5562
15515TIP3   OH267959   1.273   0.312   1.543 -0.1142  0.9733  0.0353
15515TIP3    H167960   1.207   0.244   1.529  0.0966  0.5836  0.8593
15515TIP3    H267961   1.333   0.302   1.469 -0.0548  0.2169  0.1789
15516TIP3   OH267962   3.345   3.944  14.637  0.3431 -0.0144 -0.0843
15516TIP3    H167963   3.412   3.974  14.698  1.2957 -0.8048 -0.7118
15516TIP3    H267964   3.318   4.023  14.590 -0.9850  0.7523  1.8596
15517TIP3   OH267965   1.767   5.898  13.489  0.3551  0.2384 -0.1455
15517TIP3    H167966   1.800   5.908  13.400 -0.0789  2.2112 -0.1356
15517TIP3    H267967   1.672   5.895  13.479  0.3540 -2.0308  0.0932
15518TIP3   OH267968   3.938   1.296  14.928  0.3117 -0.1055 -0.4852
15518TIP3    H167969   3.898   1.322  14.845 -1.0062  1.1865  0.5162
15518TIP3    H267970   3.906   1.206  14.942 -1.7619  0.6471 -0.0522
15519TIP3   OH267971   1.883   5.152  15.011 -0.3935 -0.2233 -0.0158
15519TIP3    H167972   1.913   5.242  15.026 -2.6371  0.3686  1.5179
15519TIP3    H267973   1.800   5.162  14.964 -1.0699 -1.4246  0.8716
15520TIP3   OH267974   4.026   6.792  13.064 -0.5942 -0.1629 -0.3870
15520TIP3    H167975   4.016   6.882  13.095 -1.3765 -1.0351  2.2071
15520TIP3    H267976   4.121   6.779  13.060 -0.4538  0.3693  0.6783
15521TIP3   OH267977   1.241   4.632   3.350 -0.0897 -0.2756 -0.4767
15521TIP3    H167978   1.165   4.681   3.383 -1.0089 -0.7555 -1.8010
15521TIP3    H267979   1.282   4.692   3.288  0.4840 -0.1251  0.0306
15522TIP3   OH267980   0.370   6.668   2.122  0.9987  0.6082  0.9204
15522TIP3    H167981   0.369   6.727   2.197  1.2677  0.0255  1.3958
15522TIP3    H267982   0.429   6.597   2.148 -0.6527 -0.7785  1.0698
15523TIP3   OH267983   0.346   1.124   0.944  0.2634 -0.5951 -0.0749
15523TIP3    H167984   0.289   1.199   0.965  0.3634 -1.0837  2.1862
15523TIP3    H267985   0.410   1.122   1.015  1.9021 -1.2875 -1.4988
15524TIP3   OH267986   0.288   0.701   5.423 -0.7123 -0.0991  0.0203
15524TIP3    H167987   0.336   0.687   5.342 -1.8918  2.1539 -1.1576
15524TIP3    H267988   0.350   0.677   5.492  1.0128 -0.2066 -1.5068
15525TIP3   OH267989   0.223   2.047   6.482 -0.5657  0.1915  0.7752
15525TIP3    H167990   0.195   1.957   6.464 -0.8193 -0.0712  2.3358
15525TIP3    H267991   0.143   2.090   6.511 -0.7151  1.2933 -1.0940
15526TIP3   OH267992   0.027   4.416   1.491  0.6199  0.1126  0.0698
15526TIP3    H167993  -0.044   4.369   1.448  1.1203  0.7258 -1.4777
15526TIP3    H267994   0.103   4.358   1.483  0.8539  0.4783 -0.4152
15527TIP3   OH267995   1.288   3.138  16.229 -0.0452  0.8366 -0.1660
15527TIP3    H167996   1.353   3.071  16.251  0.5502  1.6900  0.7170
15527TIP3    H267997   1.208   3.108  16.272  0.0488  0.3704 -0.3063
15528TIP3   OH267998   6.049   4.813   6.619 -0.7273 -0.4909  0.1829
15528TIP3    H167999   6.085   4.790   6.705  1.1182  0.3441 -0.3123
15528TIP3    H268000   6.044   4.730   6.572  0.2342 -0.6871  0.4034
15529TIP3   OH268001   1.695   6.173   0.497  0.0532  0.4671  0.8942
15529TIP3    H168002   1.618   6.230   0.498 -1.1681 -1.0626 -0.0738
15529TIP3    H268003   1.739   6.194   0.414 -1.4899 -1.2495 -0.4599
15530TIP3   OH268004   5.491   1.042   5.174  0.3856 -0.4655  0.8708
15530TIP3    H168005   5.494   1.136   5.158 -0.1449 -0.7724 -1.4287
15530TIP3    H268006   5.441   1.033   5.255 -0.9042  1.1935  0.3248
15531TIP3   OH268007   0.260   1.126  15.395 -0.1891 -0.1426  0.1565
15531TIP3    H168008   0.247   1.123  15.490 -0.6655 -0.7679  0.0781
15531TIP3    H268009   0.342   1.174  15.384 -0.1193 -0.0759  0.8819
15532TIP3   OH268010   5.011   4.316  15.466  0.4132  0.2367  0.0084
15532TIP3    H168011   5.070   4.303  15.392 -0.1475  1.3630 -0.6512
15532TIP3    H268012   4.936   4.363  15.430 -0.6728 -0.7158  0.9381
15533TIP3   OH268013   3.238   0.426  12.454  0.2854 -0.1663  0.4951
15533TIP3    H168014   3.304   0.490  12.481 -1.7690  1.5617  1.7450
15533TIP3    H268015   3.160   0.450  12.504 -1.1335 -2.4908 -0.4682
15534TIP3   OH268016   0.673   5.519  13.109  0.1287 -0.2530 -0.4175
15534TIP3    H168017   0.689   5.608  13.141  0.0595 -0.8774  1.4352
15534TIP3    H268018   0.725   5.514  13.029 -0.7489  1.8065 -1.2009
15535TIP3   OH268019   2.167   2.245   0.487  0.0960 -0.0627 -0.5005
15535TIP3    H168020   2.131   2.310   0.546 -3.6832 -1.9274 -0.4438
15535TIP3    H268021   2.139   2.161   0.523  3.6423 -1.7825 -1.2641
15536TIP3   OH268022   4.002   4.537  16.935  0.3261  0.5656  0.6623
15536TIP3    H168023   4.016   4.516  16.843  0.8235 -1.7984  1.2099
15536TIP3    H268024   4.005   4.632  16.938 -0.4066  0.7487 -1.8487
15537TIP3   OH268025   4.663   3.012  15.221 -0.1172 -0.3042  0.5592
15537TIP3    H168026   4.578   3.013  15.178 -0.1794 -0.3950  0.6823
15537TIP3    H268027   4.708   3.089  15.185 -0.5255  0.1679  1.0516
15538TIP3   OH268028   2.409   1.116   1.913  0.1040 -0.2202 -0.1706
15538TIP3    H168029   2.439   1.049   1.852  0.0410 -0.4640  0.0632
15538TIP3    H268030   2.350   1.069   1.972 -0.2855  0.1303 -0.2718
15539TIP3   OH268031   4.673   5.165   5.811 -0.6476 -0.5665  0.1431
15539TIP3    H168032   4.762   5.175   5.846  0.0182 -1.5886 -1.1578
15539TIP3    H268033   4.628   5.245   5.838  1.0054  0.5139 -0.1143
15540TIP3   OH268034   0.376   1.182   3.442 -0.7400  0.3720  0.0935
15540TIP3    H168035   0.422   1.255   3.485 -0.6885  1.0875 -1.1084
15540TIP3    H268036   0.294   1.220   3.411 -0.5790  0.0105 -0.8166
15541TIP3   OH268037   4.271   6.127  13.098 -0.0715 -0.4534 -0.3249
15541TIP3    H168038   4.266   6.057  13.032 -2.6176  0.2421 -0.9799
15541TIP3    H268039   4.283   6.207  13.047  0.0279 -0.1168  0.2177
15542TIP3   OH268040   5.777   0.134  15.020  0.2647  0.0542 -0.3079
15542TIP3    H168041   5.747   0.224  15.029  0.2602  0.0949 -0.7229
15542TIP3    H268042   5.767   0.114  14.927  0.7339 -0.2085 -0.3046
15543TIP3   OH268043   6.467   0.550  10.474  0.1083  0.0739 -0.4963
15543TIP3    H168044   6.444   0.469  10.431 -1.9364 -0.0516  0.7008
15543TIP3    H268045   6.438   0.619  10.414  0.4905 -0.0726 -0.8534
15544TIP3   OH268046   3.244   4.657   0.077 -0.1181  0.8128 -0.1589
15544TIP3    H168047   3.208   4.744   0.062  0.0570  0.7369 -1.0812
15544TIP3    H268048   3.168   4.599   0.077 -0.1608  0.8692 -0.3210
15545TIP3   OH268049   1.149   3.590   5.534 -0.2587  0.6994  0.1844
15545TIP3    H168050   1.225   3.635   5.496  0.5676  0.2256  1.2260
15545TIP3    H268051   1.117   3.534   5.464 -0.3049  1.6819 -0.6101
15546TIP3   OH268052   5.454   4.398  15.142  0.0652  0.3829  0.0924
15546TIP3    H168053   5.422   4.325  15.090  1.2249 -0.5374  0.6414
15546TIP3    H268054   5.406   4.474  15.108 -2.1105 -0.7911  0.3667
15547TIP3   OH268055   1.835   3.448  11.618 -0.2249  0.2312 -0.1140
15547TIP3    H168056   1.774   3.514  11.583 -0.9364 -0.8086 -0.8937
15547TIP3    H268057   1.788   3.411  11.693 -0.4726 -0.4071 -0.5741
15548TIP3   OH268058   3.877   6.265   3.304 -0.7748 -0.3042  0.4555
15548TIP3    H168059   3.905   6.349   3.266  0.4751 -0.7124  0.4356
15548TIP3    H268060   3.782   6.264   3.292 -0.6209  0.3892 -1.0111
15549TIP3   OH268061   3.820   0.749  15.288  0.6358  0.2754  0.3427
15549TIP3    H168062   3.731   0.727  15.262  0.2637  0.0167  1.7191
15549TIP3    H268063   3.829   0.842  15.269  0.0484  0.3091  0.2228
15550TIP3   OH268064   4.064   0.273  16.456 -0.4215 -0.0248  0.5832
15550TIP3    H168065   4.136   0.263  16.394  0.2782  2.3821  0.9004
15550TIP3    H268066   4.009   0.196  16.441  1.8287 -1.6126 -0.1381
15551TIP3   OH268067   5.710   2.414  15.938 -0.2162  0.7864  0.0425
15551TIP3    H168068   5.801   2.386  15.925  0.2609  2.5344 -0.6436
15551TIP3    H268069   5.692   2.393  16.030  0.9887  0.7290  0.2808
15552TIP3   OH268070   3.786   0.440  14.984  0.0314 -0.6419  0.2323
15552TIP3    H168071   3.861   0.498  14.991 -0.2344  0.1594 -2.4761
15552TIP3    H268072   3.757   0.427  15.075  0.3589  3.0898  1.0350
15553TIP3   OH268073   6.547   2.045  10.987  0.8184 -0.6043 -1.0966
15553TIP3    H168074   6.523   2.020  10.898  0.5176 -1.7516 -0.7128
15553TIP3    H268075   6.641   2.062  10.983  1.1625 -2.3349 -1.3040
15554TIP3   OH268076   4.013   3.184  17.109 -0.0259  0.3742  0.3543
15554TIP3    H168077   3.924   3.148  17.104  0.4001 -0.8236  1.0436
15554TIP3    H268078   4.053   3.137  17.182  0.8748  1.5844  0.6524
15555TIP3   OH268079   5.908   2.982  16.722  0.5718  0.0076  0.2061
15555TIP3    H168080   5.894   2.887  16.723 -0.1973  0.1150 -0.1055
15555TIP3    H268081   5.989   2.993  16.672  2.1860 -0.6510  2.4940
15556TIP3   OH268082   6.376   5.725  11.405  0.2667 -0.8453  0.0912
15556TIP3    H168083   6.445   5.788  11.425  0.1074 -0.3510 -0.8766
15556TIP3    H268084   6.297   5.778  11.395  0.3255 -1.0353 -1.7627
15557TIP3   OH268085   6.739   5.841   1.102  1.0540 -0.6406 -1.0286
15557TIP3    H168086   6.660   5.869   1.149  1.8518  0.6550 -0.4083
15557TIP3    H268087   6.732   5.884   1.017  0.4297 -1.6606 -1.5230
15558TIP3   OH268088   2.621   0.078  12.254 -0.0174 -0.4956  0.2544
15558TIP3    H168089   2.665   0.029  12.324  2.3775  1.1819  0.0117
15558TIP3    H268090   2.588   0.157  12.297  0.2581 -0.1097 -0.2339
15559TIP3   OH268091   6.802   0.248  14.959  0.0609 -0.1878  0.2702
15559TIP3    H168092   6.833   0.165  14.994  0.2260 -0.6022 -0.7991
15559TIP3    H268093   6.870   0.311  14.980 -1.4794  0.4869  3.9951
15560TIP3   OH268094   6.068   3.219  11.078  0.2887  0.2189 -0.2503
15560TIP3    H168095   6.007   3.236  11.007 -1.5537 -1.2167  0.9126
15560TIP3    H268096   6.042   3.279  11.148  0.1565 -0.4369  0.2738
15561TIP3   OH268097   2.387   2.629  14.280 -0.0552  0.4723  0.3893
15561TIP3    H168098   2.383   2.586  14.366  0.6264 -0.7310 -0.1649
15561TIP3    H268099   2.325   2.580  14.226 -1.4405  2.0213  0.5035
15562TIP3   OH268100   5.529   1.555  15.304 -0.5583  0.2092  0.4330
15562TIP3    H168101   5.611   1.577  15.349 -0.3568 -1.4905  0.9424
15562TIP3    H268102   5.515   1.629  15.244  1.7132  0.2223 -0.1792
15563TIP3   OH268103   0.360   3.479  11.649 -0.4522 -0.5353 -0.9270
15563TIP3    H168104   0.440   3.481  11.702 -0.8806 -0.4535 -0.2680
15563TIP3    H268105   0.362   3.562  11.601 -0.6072 -0.0903 -0.1891
15564TIP3   OH268106   6.114   5.979  14.604  0.4881 -0.2582  0.1390
15564TIP3    H168107   6.117   5.964  14.699 -0.2893 -0.0615  0.2045
15564TIP3    H268108   6.022   5.999  14.587  0.4966 -0.9821 -0.7659
15565TIP3   OH268109   4.322   6.638  17.087  0.3977  0.2618  0.3160
15565TIP3    H168110   4.414   6.629  17.061  0.7086  4.5924 -0.7892
15565TIP3    H268111   4.320   6.716  17.142 -2.4423 -0.6747  1.7069
15566TIP3   OH268112   2.049   5.319   1.056 -0.0256 -0.4663  0.3812
15566TIP3    H168113   2.033   5.283   1.143  1.7400 -1.6033  0.2825
15566TIP3    H268114   1.962   5.341   1.023 -0.8938 -1.7369  1.6991
15567TIP3   OH268115   3.694   0.677   5.789  0.3634 -0.2500 -0.7001
15567TIP3    H168116   3.764   0.647   5.731  0.7436 -1.0876  0.1532
15567TIP3    H268117   3.660   0.597   5.829  0.4289  0.3254  0.5697
15568TIP3   OH268118   4.062   1.778  12.210  0.0992  0.0245  0.2743
15568TIP3    H168119   4.008   1.725  12.152  1.3395 -1.4645  0.4048
15568TIP3    H268120   4.034   1.868  12.195 -1.0453 -0.5311 -1.0591
15569TIP3   OH268121   2.133   4.507  13.739 -0.0147  0.0605  0.3931
15569TIP3    H168122   2.108   4.420  13.708  1.7334 -0.9106  1.5617
15569TIP3    H268123   2.173   4.549  13.663 -1.3861  0.0903 -0.3387
15570TIP3   OH268124   1.357   4.625   4.465 -0.1319 -0.0268  0.0915
15570TIP3    H168125   1.381   4.605   4.375  0.3265  1.4335 -0.1437
15570TIP3    H268126   1.272   4.668   4.459 -1.1888 -1.9545  0.5942
15571TIP3   OH268127   2.598   1.796  16.446  0.1200 -0.5928 -0.1264
15571TIP3    H168128   2.679   1.815  16.399  0.5369 -1.3226  0.2820
15571TIP3    H268129   2.531   1.848  16.401  0.6417 -0.7221 -1.0597
15572TIP3   OH268130   3.106   0.235  15.335 -0.4290 -0.0278  0.7243
15572TIP3    H168131   3.121   0.160  15.393  0.5839 -1.0287 -0.7690
15572TIP3    H268132   3.095   0.309  15.394  1.3452 -0.8635  2.1941
15573TIP3   OH268133   2.079   1.848  16.015  0.0986  0.0257 -0.7920
15573TIP3    H168134   2.127   1.805  16.086 -1.8654 -0.5725  0.2631
15573TIP3    H268135   2.070   1.939  16.044 -1.1337 -0.3262  0.0452
15574TIP3   OH268136   6.159   3.372   3.371 -0.1806  0.3463  0.3833
15574TIP3    H168137   6.167   3.397   3.279  1.7439  0.7494  0.6198
15574TIP3    H268138   6.126   3.282   3.369 -1.3200  0.7605 -0.6471
15575TIP3   OH268139   1.031   6.681   1.134  0.8216 -0.1081  0.3095
15575TIP3    H168140   1.060   6.698   1.223  0.8257  0.0844  0.2711
15575TIP3    H268141   1.066   6.754   1.082 -0.1990  0.4268  0.3576
15576TIP3   OH268142   1.785   1.931   1.712  0.0515 -0.5968  0.2225
15576TIP3    H168143   1.802   1.838   1.696 -0.0391 -1.1468  2.9432
15576TIP3    H268144   1.860   1.960   1.765  0.4255  1.0970 -1.1488
15577TIP3   OH268145   5.991   2.183   1.878  0.2562  0.1920  0.1406
15577TIP3    H168146   5.935   2.254   1.910 -0.3121 -0.5263  0.7762
15577TIP3    H268147   5.935   2.133   1.819  0.3721 -0.2366  0.3883
15578TIP3   OH268148   4.167   2.429   2.088 -0.0039  0.3504  0.2425
15578TIP3    H168149   4.249   2.408   2.132  0.7456  0.5297 -1.0262
15578TIP3    H268150   4.138   2.511   2.128 -0.5661 -0.6387  1.9965
15579TIP3   OH268151   4.132   0.653   5.092 -0.1159  0.2832 -0.3556
15579TIP3    H168152   4.130   0.740   5.130  0.1666  0.6890 -1.2365
15579TIP3    H268153   4.120   0.667   4.998 -2.0833 -0.7898 -0.3147
15580TIP3   OH268154   0.407   2.834   5.660 -0.3252  0.0831  0.0829
15580TIP3    H168155   0.375   2.909   5.610 -2.3234 -0.0081  1.1242
15580TIP3    H268156   0.391   2.858   5.752 -1.8272 -1.9218  0.4063
15581TIP3   OH268157   1.447   3.467   3.030 -0.3911 -0.0640 -0.1416
15581TIP3    H168158   1.532   3.445   3.068 -0.2821 -0.3875 -0.5704
15581TIP3    H268159   1.468   3.521   2.954 -0.5800  0.0170 -0.1368
15582TIP3   OH268160   4.822   4.704  14.727 -0.1479 -0.5707 -0.2928
15582TIP3    H168161   4.785   4.731  14.642  1.3543  2.3819 -0.1570
15582TIP3    H268162   4.911   4.677  14.706  0.8564  1.9169  0.4592
15583TIP3   OH268163   1.296   4.226   2.577 -0.0553  0.4581 -0.6749
15583TIP3    H168164   1.213   4.217   2.624 -0.0984 -0.3321 -0.9056
15583TIP3    H268165   1.350   4.279   2.636 -1.7809  3.9067 -1.8988
15584TIP3   OH268166   1.943   4.819  16.565  0.2948  0.0456 -0.4284
15584TIP3    H168167   1.958   4.732  16.528 -1.6739 -0.0501 -1.1219
15584TIP3    H268168   1.919   4.873  16.489 -0.0664  0.8091  0.2158
15585TIP3   OH268169   5.665   5.722   6.016  0.3151  0.2352 -0.1089
15585TIP3    H168170   5.653   5.722   6.111 -0.6075 -0.1089 -0.2172
15585TIP3    H268171   5.621   5.643   5.986  0.7419  0.2545 -0.8129
15586TIP3   OH268172   0.177   0.879  11.920  0.1561  0.0556 -0.2905
15586TIP3    H168173   0.107   0.822  11.952  0.0311 -0.1928 -0.9899
15586TIP3    H268174   0.226   0.904  11.999 -1.7959  1.7337  0.4974
15587TIP3   OH268175   4.624   3.262   0.200 -0.1909  0.4319 -0.2273
15587TIP3    H168176   4.668   3.221   0.275  1.1550  0.8067 -0.7902
15587TIP3    H268177   4.603   3.350   0.230  0.1079  0.4954 -0.2032
15588TIP3   OH268178   1.115   5.902   5.178 -0.1692 -0.0965  0.2934
15588TIP3    H168179   1.134   5.871   5.089  0.1999  1.2910 -0.1336
15588TIP3    H268180   1.177   5.854   5.233 -0.8143 -1.4248 -0.0996
15589TIP3   OH268181   0.800   5.876  15.598 -0.1901  0.3639  0.0719
15589TIP3    H168182   0.890   5.880  15.564 -0.8211 -0.3150 -1.8233
15589TIP3    H268183   0.749   5.927  15.535 -1.6462 -2.0977 -0.8849
15590TIP3   OH268184   3.149   5.091  11.655  0.7667 -0.0313 -0.8370
15590TIP3    H168185   3.238   5.089  11.689  0.3712 -1.9856  0.2621
15590TIP3    H268186   3.112   5.173  11.687  1.2708 -0.5529  1.2486
15591TIP3   OH268187   5.198   3.241   0.384 -0.0215  0.1665 -0.0553
15591TIP3    H168188   5.205   3.328   0.346 -1.0963  0.6695  0.8172
15591TIP3    H268189   5.247   3.247   0.466 -0.8369  0.2356  0.4378
15592TIP3   OH268190   0.762   3.293  12.264 -0.2351  0.3910  0.0133
15592TIP3    H168191   0.675   3.292  12.225 -0.4095 -1.8086  0.3322
15592TIP3    H268192   0.747   3.326  12.353 -0.5783  0.9479 -0.2446
15593TIP3   OH268193   0.857   0.952   0.433 -0.6464 -0.2758 -0.6584
15593TIP3    H168194   0.923   0.884   0.447 -0.0050  0.9540  3.3060
15593TIP3    H268195   0.908   1.032   0.420 -1.3265  0.3427  0.3928
15594TIP3   OH268196   2.138   1.125  14.814  0.4713  0.0884 -0.3233
15594TIP3    H168197   2.060   1.181  14.815  0.5746  0.2924 -1.7317
15594TIP3    H268198   2.117   1.057  14.751  0.7816 -0.8592  0.5710
15595TIP3   OH268199   4.512   4.853  13.121  0.5898 -0.1509 -0.0696
15595TIP3    H168200   4.422   4.865  13.151  0.9639  0.7950  0.7519
15595TIP3    H268201   4.542   4.942  13.101  0.9705 -0.5744 -1.4853
15596TIP3   OH268202   0.843   3.223  13.033 -0.1401  0.0883  0.1371
15596TIP3    H168203   0.849   3.149  13.094  1.7165  1.2086  1.4187
15596TIP3    H268204   0.832   3.300  13.089 -2.6651  0.7857 -1.1963
15597TIP3   OH268205   3.588   1.012  13.851 -0.4965 -0.2620  0.7651
15597TIP3    H168206   3.606   1.053  13.936  2.6766  1.7638 -0.6974
15597TIP3    H268207   3.500   1.042  13.828 -0.0022  2.1855  1.7687
15598TIP3   OH268208   4.667   3.007  13.065 -0.3679 -0.1433  0.2831
15598TIP3    H168209   4.718   3.081  13.032  2.6544 -1.3057  1.9040
15598TIP3    H268210   4.607   3.047  13.128  1.7247  0.9939  1.7187
15599TIP3   OH268211   5.813   1.191   3.495  0.3844  0.0663  0.2915
15599TIP3    H168212   5.839   1.271   3.540  3.8306 -0.3125 -0.7715
15599TIP3    H268213   5.758   1.222   3.422 -0.7809  1.1372  1.5728
15600TIP3   OH268214   4.088   1.265  12.097 -0.0440 -0.5384  0.5013
15600TIP3    H168215   4.142   1.208  12.042 -0.6905 -0.8047  0.1242
15600TIP3    H268216   3.998   1.244  12.071 -0.3852 -1.0698  2.0632
15601TIP3   OH268217   6.693   6.453   3.996  0.0247 -0.3773  0.7373
15601TIP3    H168218   6.671   6.431   4.086  0.9325  0.8814  1.2996
15601TIP3    H268219   6.609   6.477   3.956 -0.2234  0.2641  1.6234
15602TIP3   OH268220   3.623   1.431  13.620 -0.1158 -0.0260 -1.1973
15602TIP3    H168221   3.537   1.457  13.587  0.5621  3.1132 -0.7940
15602TIP3    H268222   3.662   1.513  13.651  2.1894 -1.6954  0.5848
15603TIP3   OH268223   0.073   6.570  14.175 -0.5081 -0.4521  0.3043
15603TIP3    H168224   0.062   6.554  14.081 -0.6673 -2.0455  0.5634
15603TIP3    H268225  -0.007   6.537  14.215 -0.1063 -0.5482  1.0600
15604TIP3   OH268226   6.589   0.607  11.789 -0.5217 -0.7950  0.3113
15604TIP3    H168227   6.542   0.635  11.867  0.2599  1.5457  0.0217
15604TIP3    H268228   6.674   0.577  11.822 -0.6316 -0.9601  0.4485
15605TIP3   OH268229   2.358   6.470  15.898 -0.2937  0.2141  0.2934
15605TIP3    H168230   2.283   6.440  15.847 -0.3462  1.5552 -0.4677
15605TIP3    H268231   2.403   6.533  15.841  2.4293 -1.8045  0.0334
15606TIP3   OH268232   2.199   5.392  11.384 -0.3989  0.0419 -0.0489
15606TIP3    H168233   2.245   5.476  11.377 -1.2929  0.4191 -1.9153
15606TIP3    H268234   2.219   5.347  11.302 -0.4907 -1.2890  0.6453
15607TIP3   OH268235   3.325   0.120  17.084 -0.0480  0.2981  0.5511
15607TIP3    H168236   3.413   0.156  17.080 -0.3761  1.2478  1.4083
15607TIP3    H268237   3.335   0.028  17.057  1.0290  0.6440 -0.2965
15608TIP3   OH268238   2.333   1.344  12.186  0.4501  0.2465 -0.0830
15608TIP3    H168239   2.276   1.417  12.212  1.5103  0.5064  1.7052
15608TIP3    H268240   2.296   1.268  12.230  0.1759 -0.0257 -0.7783
15609TIP3   OH268241   1.035   6.422  13.993 -0.1767  0.4761  0.5835
15609TIP3    H168242   1.021   6.421  14.088  1.1153  0.8294  0.8030
15609TIP3    H268243   1.055   6.330  13.972  0.1780  0.5033  0.7775
15610TIP3   OH268244   6.797   2.352  15.305 -0.0418  0.1741  0.0975
15610TIP3    H168245   6.885   2.321  15.287 -0.3141 -0.8230  0.3876
15610TIP3    H268246   6.803   2.395  15.390  0.1571  0.0751  0.1324
15611TIP3   OH268247   1.813   4.136   4.099  0.2924 -0.4061 -0.1202
15611TIP3    H168248   1.901   4.140   4.136  0.4823 -3.7489  0.0954
15611TIP3    H268249   1.825   4.097   4.012 -0.9969 -2.2690  0.4644
15612TIP3   OH268250   5.388   0.296   3.890  0.7298  0.1209  0.8709
15612TIP3    H168251   5.468   0.335   3.923  1.9854 -0.2045 -1.5772
15612TIP3    H268252   5.409   0.203   3.879 -0.0765 -0.0294  0.5071
15613TIP3   OH268253   2.196   5.894  12.122  0.1849  0.0906 -0.8068
15613TIP3    H168254   2.192   5.799  12.133  1.9366 -0.1726 -2.0083
15613TIP3    H268255   2.289   5.914  12.118 -0.1503  1.8480 -0.7834
15614TIP3   OH268256   1.832   5.131  14.592  0.4910  0.8425  0.3480
15614TIP3    H168257   1.768   5.202  14.596 -1.1921 -0.5229 -0.7853
15614TIP3    H268258   1.828   5.089  14.678  0.0416  0.9401  0.3764
15615TIP3   OH268259   6.315   5.798  13.142  0.6595  0.0898  0.0052
15615TIP3    H168260   6.255   5.798  13.217  1.1195  1.0227  0.3904
15615TIP3    H268261   6.402   5.799  13.182  0.9956 -2.0777 -0.5354
15616TIP3   OH268262   3.304   6.349  11.812  0.3999 -0.3503 -0.6240
15616TIP3    H168263   3.219   6.319  11.780  0.5008 -0.5575 -0.6987
15616TIP3    H268264   3.288   6.439  11.840  0.1423 -0.4051 -0.5863
15617TIP3   OH268265   6.045   4.336  11.285 -0.0593 -0.1755 -0.3488
15617TIP3    H168266   6.121   4.394  11.289 -0.4331  0.2982  0.1846
15617TIP3    H268267   5.981   4.385  11.232  0.4382 -1.1079 -1.8721
15618TIP3   OH268268   0.221   0.757   5.037  0.2118 -0.5477 -0.2042
15618TIP3    H168269   0.246   0.701   5.110  0.9137  1.4903  1.2337
15618TIP3    H268270   0.261   0.842   5.058 -1.7918  0.8409 -1.6187
15619TIP3   OH268271   4.636   0.921  16.801  0.1693 -0.3132 -0.0901
15619TIP3    H168272   4.613   0.855  16.736  3.4940 -1.3315 -0.4254
15619TIP3    H268273   4.696   0.980  16.755  1.1290  0.0373  1.5397
15620TIP3   OH268274   2.327   6.606  15.278 -0.9016 -0.0830  0.4132
15620TIP3    H168275   2.357   6.614  15.188 -0.1225  0.1520  0.6861
15620TIP3    H268276   2.403   6.629  15.331 -1.0311 -1.2616  1.1485
15621TIP3   OH268277   3.254   3.591  15.239  0.6883 -0.1124 -0.4773
15621TIP3    H168278   3.247   3.500  15.213 -2.5733  0.2588 -1.3983
15621TIP3    H268279   3.244   3.591  15.334  1.0731 -0.7110 -0.4355
15622TIP3   OH268280   5.290   3.326   5.441 -0.2671  0.0673  0.1802
15622TIP3    H168281   5.288   3.304   5.534 -2.2961  1.1699  0.4399
15622TIP3    H268282   5.248   3.252   5.398  0.8607 -0.5417  0.0737
15623TIP3   OH268283   5.388   1.334  15.247 -0.5667 -0.0674 -0.7428
15623TIP3    H168284   5.418   1.424  15.260  0.2142 -0.4888  0.5461
15623TIP3    H268285   5.304   1.344  15.202 -0.9048  1.3540  0.1024
15624TIP3   OH268286   3.957   4.991  10.938 -0.8105  0.0160  0.0829
15624TIP3    H168287   3.939   4.925  10.871  2.0124 -0.4728 -0.3189
15624TIP3    H268288   3.919   4.955  11.018  1.0777 -2.4421 -0.0150
15625TIP3   OH268289   4.260   6.461   3.796  0.5966 -0.2696  0.6852
15625TIP3    H168290   4.186   6.520   3.806  0.3123 -0.7800  1.7143
15625TIP3    H268291   4.253   6.428   3.707  0.6123  1.0306  0.1841
15626TIP3   OH268292   4.997   1.130   3.596  0.2055  0.3738  0.0350
15626TIP3    H168293   4.927   1.194   3.586 -1.0118 -0.4331  2.5057
15626TIP3    H268294   5.078   1.181   3.594 -0.7189  2.0119  1.6556
15627TIP3   OH268295   1.159   6.211   1.505  0.9567 -0.3665  0.4865
15627TIP3    H168296   1.199   6.284   1.458 -1.2997 -0.0767 -1.1237
15627TIP3    H268297   1.221   6.139   1.493  1.2210  0.1431 -1.5866
15628TIP3   OH268298   4.392   6.366   1.990 -0.7370 -0.1999  0.3243
15628TIP3    H168299   4.477   6.323   1.999 -0.1360  0.5706 -1.2815
15628TIP3    H268300   4.405   6.453   2.026 -0.2673  0.5611 -1.5806
15629TIP3   OH268301   4.557   4.051   4.326 -0.5350 -0.0122  0.4573
15629TIP3    H168302   4.563   4.143   4.354  2.2341 -0.1767  0.6784
15629TIP3    H268303   4.637   4.036   4.276 -1.8735 -1.8095 -1.3076
15630TIP3   OH268304   4.278   5.806  14.618  0.5948  0.3519 -0.9523
15630TIP3    H168305   4.280   5.783  14.711 -1.9797 -0.1861 -0.9577
15630TIP3    H268306   4.278   5.902  14.618  1.1546  0.3587 -0.4348
15631TIP3   OH268307   4.682   2.888  16.296  0.0819  0.3072 -0.1234
15631TIP3    H168308   4.775   2.899  16.313  0.2817 -0.1306 -0.8864
15631TIP3    H268309   4.654   2.973  16.261 -0.4046  1.3202  2.5245
15632TIP3   OH268310   6.547   1.623   4.553 -0.2818 -0.0462 -0.2484
15632TIP3    H168311   6.568   1.575   4.633 -2.2736  0.7014  0.7880
15632TIP3    H268312   6.602   1.701   4.557 -0.1733 -0.1432  0.2722
15633TIP3   OH268313   5.500   4.278  13.820  0.4738  0.8782  0.3141
15633TIP3    H168314   5.548   4.196  13.813  0.5829  0.7964  1.7401
15633TIP3    H268315   5.567   4.343  13.840  0.1719  0.9971  0.9601
15634TIP3   OH268316   1.485   5.033  12.667 -0.4084 -0.2672  0.6740
15634TIP3    H168317   1.448   5.020  12.580  0.3563 -0.8093  0.4185
15634TIP3    H268318   1.447   5.116  12.697  0.7079  0.8900 -0.9304
15635TIP3   OH268319   1.880   0.371   5.178 -0.4290 -0.6362 -0.1678
15635TIP3    H168320   1.846   0.292   5.136 -0.2025  0.3533 -2.3762
15635TIP3    H268321   1.906   0.427   5.105  2.4763  0.1838  1.3551
15636TIP3   OH268322   4.262   3.608  16.659 -0.6435  0.0121  0.2901
15636TIP3    H168323   4.178   3.590  16.703 -0.6766  2.1811  1.2172
15636TIP3    H268324   4.243   3.682  16.602  0.5248  0.1737  0.1051
15637TIP3   OH268325   4.376   1.418   3.729 -0.4463  0.0569  0.3363
15637TIP3    H168326   4.350   1.326   3.722 -0.6266  0.1226  0.1267
15637TIP3    H268327   4.294   1.467   3.723 -0.1306  0.4220 -2.9549
15638TIP3   OH268328   0.113   0.492   1.693 -0.2580 -0.1111 -0.6135
15638TIP3    H168329   0.029   0.451   1.716  0.6913 -0.9671  1.5933
15638TIP3    H268330   0.173   0.418   1.680  0.5217  0.5086 -0.6094
15639TIP3   OH268331   4.531   4.406  14.020  0.0790  0.2712 -0.0430
15639TIP3    H168332   4.617   4.411  13.979  0.4992 -1.0004  0.6444
15639TIP3    H268333   4.486   4.336  13.972 -0.0141 -0.1032  0.5776
15640TIP3   OH268334   0.331   0.888  15.884 -0.3512 -0.5809 -0.8940
15640TIP3    H168335   0.326   0.826  15.957  0.6174 -0.0630 -0.3642
15640TIP3    H268336   0.421   0.880  15.852 -0.4287  0.0349 -1.2897
15641TIP3   OH268337   2.500   4.711  14.475 -0.1143  1.0324  0.0275
15641TIP3    H168338   2.492   4.691  14.381 -0.5923  1.5373 -0.0422
15641TIP3    H268339   2.497   4.806  14.479  1.4443  1.0884  0.4222
15642TIP3   OH268340   1.357   2.555  13.786 -0.0436 -0.4471 -0.5298
15642TIP3    H168341   1.388   2.527  13.700 -1.1063  1.2424 -1.5184
15642TIP3    H268342   1.379   2.648  13.790  2.0615 -0.9303  2.0237
15643TIP3   OH268343   3.606   1.297   3.190  0.0689 -0.1088  0.2239
15643TIP3    H168344   3.564   1.311   3.105 -0.4510 -0.4875  0.4141
15643TIP3    H268345   3.549   1.340   3.253  1.0203  1.1316  0.2823
15644TIP3   OH268346   5.526   0.874   3.582  0.0121  0.6872 -0.0169
15644TIP3    H168347   5.608   0.918   3.603  1.8535 -2.3136 -0.2651
15644TIP3    H268348   5.508   0.899   3.492  0.6210  1.4291  0.0506
15645TIP3   OH268349   1.185   4.617  15.341  0.3185 -0.0145  0.6482
15645TIP3    H168350   1.157   4.548  15.401 -0.8004 -0.9166 -0.8208
15645TIP3    H268351   1.116   4.683  15.345  0.6756  0.3479  0.9818
15646TIP3   OH268352   5.664   0.515  13.707 -0.1008 -0.2705 -0.5751
15646TIP3    H168353   5.670   0.460  13.628  0.0982  0.7014 -1.2500
15646TIP3    H268354   5.625   0.597  13.676 -2.2101 -0.6777  0.7659
15647TIP3   OH268355   3.010   5.717   5.809  0.4482 -0.2965 -0.4056
15647TIP3    H168356   3.081   5.666   5.849 -0.0872  0.5562  1.7882
15647TIP3    H268357   3.031   5.808   5.829 -1.0968 -0.0107  0.0505
15648TIP3   OH268358   4.928   4.410  13.513 -0.2661  0.2030 -0.3676
15648TIP3    H168359   4.899   4.466  13.440 -0.9711 -1.5873 -1.5247
15648TIP3    H268360   5.009   4.452  13.544 -1.7910  2.9617  0.1800
15649TIP3   OH268361   4.554   6.247  16.508 -0.4375 -0.0140  0.1136
15649TIP3    H168362   4.566   6.206  16.594  0.0907 -0.0489  0.0312
15649TIP3    H268363   4.631   6.303  16.497 -0.8624  0.5535 -0.0302
15650TIP3   OH268364   4.954   4.171   5.657  0.4084  0.6438  0.3665
15650TIP3    H168365   4.938   4.201   5.747 -1.1901  0.1167  0.2763
15650TIP3    H268366   4.893   4.222   5.603  0.6726  0.2606 -0.3099
15651TIP3   OH268367   4.053   1.119   1.132 -0.4492  0.0934  0.4842
15651TIP3    H168368   4.050   1.207   1.094 -1.6204 -0.0056  0.3099
15651TIP3    H268369   4.083   1.063   1.060 -2.0456  0.0042 -0.1429
15652TIP3   OH268370   1.141   6.669  16.076 -0.1617 -0.1235 -0.5033
15652TIP3    H168371   1.183   6.634  15.998  0.1134  1.4218 -1.0774
15652TIP3    H268372   1.164   6.607  16.146  2.1607  0.0845 -1.0165
15653TIP3   OH268373   2.805   3.668   1.077 -0.3896 -0.0210 -0.0716
15653TIP3    H168374   2.785   3.578   1.052 -0.2931  0.1532 -0.7998
15653TIP3    H268375   2.869   3.659   1.148  0.4967 -0.5185 -0.9122
15654TIP3   OH268376   4.712   4.938  12.213  0.1269 -0.2099 -0.0453
15654TIP3    H168377   4.787   4.992  12.239  0.8614  0.2949 -2.9267
15654TIP3    H268378   4.740   4.848  12.235  1.7583 -0.0657 -1.3228
15655TIP3   OH268379   6.046   5.476   0.654 -0.0354  0.0739 -0.5189
15655TIP3    H168380   6.047   5.383   0.632 -1.1716 -0.4197  1.2883
15655TIP3    H268381   6.019   5.520   0.574 -0.7302 -1.2709 -1.0531
15656TIP3   OH268382   0.306   6.792  10.853 -0.0641 -0.2746 -0.5172
15656TIP3    H168383   0.316   6.706  10.895 -0.5726 -0.1325 -0.0981
15656TIP3    H268384   0.360   6.851  10.905 -0.7735 -0.0780  0.0227
15657TIP3   OH268385   4.729   3.066   0.879  0.3568 -0.0907 -0.9571
15657TIP3    H168386   4.782   2.986   0.879 -0.1464 -0.4896 -2.8969
15657TIP3    H268387   4.673   3.058   0.956  1.9319 -0.4506  0.2122
15658TIP3   OH268388   5.028   2.235   4.487 -0.5629  0.0599  0.1818
15658TIP3    H168389   5.070   2.210   4.569 -0.0065 -0.4997 -0.2701
15658TIP3    H268390   4.934   2.237   4.508 -0.3527  1.1544  1.1499
15659TIP3   OH268391   3.089   3.762  16.278 -0.0778 -0.2239  0.0820
15659TIP3    H168392   3.131   3.829  16.224  0.5222  0.0608  0.8760
15659TIP3    H268393   3.030   3.716  16.218 -0.2198  0.7656 -0.5697
15660TIP3   OH268394   3.059   4.573   3.124 -0.0584 -0.2997  0.4197
15660TIP3    H168395   3.033   4.558   3.033  2.0764 -0.3360 -0.2280
15660TIP3    H268396   2.992   4.631   3.159 -3.4735 -3.6817  0.2316
15661TIP3   OH268397   2.487   2.445   4.352  0.4210  0.3291 -0.0325
15661TIP3    H168398   2.476   2.424   4.445  1.0747 -0.6439 -0.1551
15661TIP3    H268399   2.542   2.523   4.351  0.5543  0.2451  0.3975
15662TIP3   OH268400   6.662   2.040  15.482  0.1870 -0.3694 -0.1560
15662TIP3    H168401   6.650   2.050  15.577  0.9112 -2.3618  0.2010
15662TIP3    H268402   6.757   2.037  15.471  0.0939 -0.9067 -0.8384
15663TIP3   OH268403   2.463   1.367   4.898  0.5214 -0.3645 -0.2293
15663TIP3    H168404   2.472   1.444   4.954 -1.2073 -0.4747  0.2381
15663TIP3    H268405   2.497   1.395   4.813  1.1095  0.4968  0.2767
15664TIP3   OH268406   1.332   4.316   0.649 -0.9066  0.1478 -0.1075
15664TIP3    H168407   1.381   4.398   0.657  1.9568 -1.5255  0.9933
15664TIP3    H268408   1.298   4.300   0.737 -0.4070 -0.4428 -0.0195
15665TIP3   OH268409   1.553   5.541   5.322  0.0579  0.3424 -0.1236
15665TIP3    H168410   1.525   5.572   5.408  2.7022  1.3687  0.4559
15665TIP3    H268411   1.614   5.470   5.340  1.5474  1.3309 -1.0523
15666TIP3   OH268412   3.132   4.951  16.174 -0.6294 -0.1029  0.0046
15666TIP3    H168413   3.063   4.995  16.224 -0.2434 -0.2145  0.6456
15666TIP3    H268414   3.087   4.883  16.125 -1.0841  0.3324 -0.1930
15667TIP3   OH268415   5.851   3.492  13.945 -0.1217 -0.2481  0.2421
15667TIP3    H168416   5.774   3.457  13.900  0.8134 -0.7569 -0.9948
15667TIP3    H268417   5.815   3.557  14.006 -1.5821 -0.9512  0.1656
15668TIP3   OH268418   4.081   0.514   1.983 -0.6860  0.1896 -0.2564
15668TIP3    H168419   4.053   0.532   2.073 -1.6970  0.0827 -0.5375
15668TIP3    H268420   4.171   0.547   1.979 -0.6445  0.2306  0.7796
15669TIP3   OH268421   4.201   0.583   0.363  0.1542 -0.0862 -0.1958
15669TIP3    H168422   4.137   0.645   0.398 -0.6682 -1.4834  0.8409
15669TIP3    H268423   4.261   0.638   0.312 -1.0885  1.4274 -0.1075
15670TIP3   OH268424   3.034   3.075  16.977  0.5769 -0.1091  0.5400
15670TIP3    H168425   3.085   3.020  17.035  0.1128  1.5587  2.6564
15670TIP3    H268426   2.951   3.029  16.966  0.9576 -0.8025  0.5542
15671TIP3   OH268427   4.768   6.775  16.154 -0.4582 -0.6594 -0.0380
15671TIP3    H168428   4.833   6.845  16.146  0.5843 -1.4038  1.3886
15671TIP3    H268429   4.704   6.793  16.085  1.2288  0.1458 -1.4752
15672TIP3   OH268430   4.706   0.477   4.449  0.1984 -0.3836  0.0576
15672TIP3    H168431   4.673   0.496   4.361  0.5004  2.4820  0.4792
15672TIP3    H268432   4.631   0.440   4.495 -0.7724  0.6365 -0.6572
15673TIP3   OH268433   5.107   2.693   0.344  0.4068 -0.0298 -0.5247
15673TIP3    H168434   5.137   2.662   0.429  0.2038  0.8129 -0.1408
15673TIP3    H268435   5.128   2.787   0.343 -1.1992  0.3609 -0.6755
15674TIP3   OH268436   4.076   4.241   3.516 -0.1248 -0.1674 -0.3820
15674TIP3    H168437   4.070   4.259   3.423  1.8403  0.3869 -0.4505
15674TIP3    H268438   4.026   4.161   3.529 -1.2287  0.2758 -1.7226
15675TIP3   OH268439   0.645   6.716  16.730 -0.1970 -0.3149 -0.7047
15675TIP3    H168440   0.579   6.647  16.731  0.7185 -1.2241 -1.1862
15675TIP3    H268441   0.727   6.670  16.712  0.4508  0.8866 -0.8995
15676TIP3   OH268442   4.352   4.326  13.034 -0.0081 -0.3487 -0.7248
15676TIP3    H168443   4.360   4.233  13.017  0.4073 -0.4351 -0.1030
15676TIP3    H268444   4.422   4.367  12.983 -0.0823 -0.3986 -0.8640
15677TIP3   OH268445   4.151   5.813   0.907  0.0935  0.5099 -0.7194
15677TIP3    H168446   4.109   5.896   0.883 -2.7129 -0.6820 -0.3268
15677TIP3    H268447   4.122   5.797   0.997  0.9653 -0.6624 -0.6315
15678TIP3   OH268448   4.254   0.476  15.310  0.0583 -0.2498  0.0290
15678TIP3    H168449   4.339   0.512  15.336  0.0664 -0.7556  0.7450
15678TIP3    H268450   4.192   0.548  15.323  0.5438  0.5538 -1.7693
15679TIP3   OH268451   3.780   6.631   3.032  0.2956  0.0174  0.2065
15679TIP3    H168452   3.799   6.725   3.024  0.1922  0.0252  0.0258
15679TIP3    H268453   3.752   6.606   2.944 -0.8061  0.0759  0.5247
15680TIP3   OH268454   5.899   5.285   2.337  0.0170  0.4443  0.2932
15680TIP3    H168455   5.837   5.232   2.387 -0.3013  0.5258 -0.0107
15680TIP3    H268456   5.873   5.273   2.246 -0.1048  1.1673  0.2237
15681TIP3   OH268457   3.959   6.538   3.732  0.3387 -0.1466 -0.0969
15681TIP3    H168458   3.941   6.523   3.825 -0.9410 -0.1196 -0.3145
15681TIP3    H268459   3.921   6.462   3.688  0.1197  0.2839 -0.6640
15682TIP3   OH268460   1.178   3.972  14.985 -0.1123 -0.3546  0.1212
15682TIP3    H168461   1.145   4.062  14.978  1.7322  0.3821  0.4042
15682TIP3    H268462   1.204   3.949  14.896 -1.7269 -1.1021 -0.1854
15683TIP3   OH268463   3.441   6.568   5.311  0.7600 -0.0555 -0.2736
15683TIP3    H168464   3.414   6.488   5.267  0.5836  0.3248 -0.8687
15683TIP3    H268465   3.452   6.543   5.402 -1.6000 -0.2220  0.0056
15684TIP3   OH268466   2.396   5.953  14.435 -0.1662  0.5628  0.0231
15684TIP3    H168467   2.481   5.916  14.413  0.1760  2.1391 -1.5645
15684TIP3    H268468   2.417   6.038  14.474 -1.0079  0.8773 -0.1884
15685TIP3   OH268469   1.663   3.808  15.234  0.0904  0.5601 -0.1056
15685TIP3    H168470   1.689   3.847  15.151  0.5399  0.5713  0.0410
15685TIP3    H268471   1.706   3.861  15.301 -1.7516  1.7457  0.2439
15686TIP3   OH268472   3.593   0.000  16.578  0.2280 -0.2798  0.4435
15686TIP3    H168473   3.583  -0.094  16.589  0.7296 -0.3894 -0.0387
15686TIP3    H268474   3.684   0.013  16.552 -0.6287  0.0055 -2.8511
15687TIP3   OH268475   4.291   0.751  10.301  0.0152 -0.0991 -0.3853
15687TIP3    H168476   4.250   0.696  10.367 -1.3719  2.1909  0.7871
15687TIP3    H268477   4.381   0.720  10.296 -0.3589 -1.5841  1.1529
15688TIP3   OH268478   4.747   4.073  12.062  0.6484 -0.4442 -0.4053
15688TIP3    H168479   4.665   4.116  12.037 -0.2453 -1.3542  0.8231
15688TIP3    H268480   4.799   4.072  11.982  0.1948  1.7344 -0.7963
15689TIP3   OH268481   2.181   3.247  12.643  0.9861  0.2969  0.2449
15689TIP3    H168482   2.168   3.155  12.622  1.2025  0.3346 -0.0604
15689TIP3    H268483   2.239   3.247  12.719  0.1369  0.1556  0.8993
15690TIP3   OH268484   0.652   4.848  14.322 -0.5819 -0.2600  0.0275
15690TIP3    H168485   0.705   4.918  14.361 -0.9102  0.8288 -1.4003
15690TIP3    H268486   0.592   4.894  14.264 -1.8909 -1.6208  0.2526
15691TIP3   OH268487   4.279   4.005  12.261 -0.0072  0.3321 -0.6017
15691TIP3    H168488   4.369   3.987  12.290 -0.4844  2.1738  2.4095
15691TIP3    H268489   4.289   4.078  12.199  0.6509 -0.2143 -1.1550
15692TIP3   OH268490   2.980   2.277  15.345  0.7021 -0.5163 -0.3225
15692TIP3    H168491   3.063   2.308  15.381  0.6612 -0.7567 -0.0167
15692TIP3    H268492   2.913   2.310  15.406  0.4671  0.6398 -1.1772
15693TIP3   OH268493   3.559   2.155  16.580  0.5616 -0.0123 -0.5731
15693TIP3    H168494   3.603   2.147  16.496  2.1588  1.5862  0.0419
15693TIP3    H268495   3.617   2.210  16.633  0.6300 -2.6111  2.3179
15694TIP3   OH268496   4.689   2.108   5.541 -0.2161  0.3583 -0.5352
15694TIP3    H168497   4.699   2.065   5.626  0.7454  0.6563 -0.4913
15694TIP3    H268498   4.613   2.165   5.553  0.5282  1.1808  0.4748
15695TIP3   OH268499   6.731   5.273   1.583 -0.2370 -0.1194  0.5489
15695TIP3    H168500   6.637   5.269   1.602 -0.5372 -0.2000 -0.8318
15695TIP3    H268501   6.742   5.357   1.538  0.3581 -0.1306  0.6759
15696TIP3   OH268502   4.554   1.131  16.367 -0.1891 -0.4077  0.3586
15696TIP3    H168503   4.604   1.061  16.408  0.1778 -0.8613 -0.8222
15696TIP3    H268504   4.620   1.189  16.329 -0.5238 -0.7200 -0.7405
15697TIP3   OH268505   3.719   3.608  13.103  0.0037  0.2633  0.3426
15697TIP3    H168506   3.742   3.602  13.196  0.8677  0.6804  0.1590
15697TIP3    H268507   3.792   3.566  13.057 -0.4762 -0.0450 -0.1481
15698TIP3   OH268508   3.141   1.540  14.126  0.2214  0.1922 -0.0435
15698TIP3    H168509   3.187   1.537  14.042 -0.1212  1.1533 -0.2833
15698TIP3    H268510   3.210   1.542  14.191  0.5305  0.9934 -0.3774
15699TIP3   OH268511   2.220   3.898   0.318  0.3706  0.1153 -0.1328
15699TIP3    H168512   2.126   3.878   0.317  0.2391  0.7418 -0.4870
15699TIP3    H268513   2.262   3.814   0.296 -0.1454  0.0419 -0.8757
15700TIP3   OH268514   4.451   6.473  11.453 -0.1617 -0.1854  0.3920
15700TIP3    H168515   4.458   6.395  11.507 -2.4254 -0.0007  1.0587
15700TIP3    H268516   4.528   6.471  11.397  1.2560 -1.4209  2.2720
15701TIP3   OH268517   5.151   0.017  12.200 -0.0532  0.3681  0.2712
15701TIP3    H168518   5.185   0.054  12.118 -1.6398  0.0904 -0.5590
15701TIP3    H268519   5.062  -0.011  12.178  1.0677 -4.3262  0.6726
15702TIP3   OH268520   2.445   3.036   3.489 -0.1973  0.7373  0.0008
15702TIP3    H168521   2.379   3.104   3.483 -0.4942  0.4271 -0.3259
15702TIP3    H268522   2.396   2.955   3.503  0.1813  0.6557  0.9519
15703TIP3   OH268523   0.205   0.885  16.818 -0.0276  0.2863 -0.6040
15703TIP3    H168524   0.238   0.871  16.907 -0.8320 -0.6371 -0.4356
15703TIP3    H268525   0.158   0.968  16.823  0.0256  0.2941 -0.1965
15704TIP3   OH268526   4.592   0.109   4.782  0.0580 -0.1520  0.2389
15704TIP3    H168527   4.623   0.034   4.732  0.1327 -0.0882  0.1893
15704TIP3    H268528   4.496   0.098   4.785 -0.1096  0.6590 -1.2446
15705TIP3   OH268529   4.921   4.357  15.074  0.2141  0.2738 -0.3392
15705TIP3    H168530   4.884   4.434  15.031 -0.5945  0.2602  0.2828
15705TIP3    H268531   4.844   4.306  15.099  0.3364  1.7716  3.8804
15706TIP3   OH268532   2.662   3.167   1.496  0.0545 -0.4503 -0.5969
15706TIP3    H168533   2.752   3.136   1.507  0.2625  0.5814  0.9072
15706TIP3    H268534   2.615   3.133   1.572 -1.0982 -1.7330 -1.8079
15707TIP3   OH268535   1.438   2.372   3.612 -0.0264  0.3983  0.7920
15707TIP3    H168536   1.508   2.307   3.617 -0.7030 -0.2502  2.4253
15707TIP3    H268537   1.364   2.326   3.572  1.0441  1.6950 -3.0925
15708TIP3   OH268538   3.724   3.342   0.872 -0.6913  0.5346 -0.2988
15708TIP3    H168539   3.635   3.328   0.904 -0.5000  0.9844  0.4285
15708TIP3    H268540   3.753   3.254   0.846 -0.5636  0.0093  1.5062
15709TIP3   OH268541   5.280   3.212  11.157 -0.0506 -0.4148  0.0356
15709TIP3    H168542   5.300   3.304  11.171  0.7439 -0.4692 -0.6903
15709TIP3    H268543   5.186   3.210  11.141 -0.5147 -0.0243  2.3742
15710TIP3   OH268544   4.389   4.589  12.102 -0.0953  0.0111 -0.3363
15710TIP3    H168545   4.309   4.587  12.049 -0.5807  2.3279  0.1656
15710TIP3    H268546   4.374   4.661  12.164  2.3931  0.5524 -0.2689
15711TIP3   OH268547   1.080   4.846   2.849  0.3198  0.3800 -0.3243
15711TIP3    H168548   0.998   4.822   2.805  0.4693 -1.1978  0.2190
15711TIP3    H268549   1.119   4.913   2.792 -1.7906  1.8960 -0.1179
15712TIP3   OH268550   5.253   5.509  14.807 -0.3389 -1.3116 -0.2275
15712TIP3    H168551   5.181   5.517  14.870 -0.0195 -3.1882  0.4458
15712TIP3    H268552   5.272   5.599  14.780 -0.9054 -0.4995  1.8923
15713TIP3   OH268553   6.239   6.110  13.390  0.8970  0.2647  0.2067
15713TIP3    H168554   6.260   6.195  13.427  1.7991 -0.7635  2.2532
15713TIP3    H268555   6.196   6.063  13.462  2.7300 -1.8542  0.0156
15714TIP3   OH268556   4.957   4.379   1.900  0.2977  0.2091 -0.6128
15714TIP3    H168557   4.882   4.358   1.845 -0.8494  1.6773  0.2922
15714TIP3    H268558   4.938   4.467   1.934  2.3633  0.5592 -0.2255
15715TIP3   OH268559   3.051   5.305   1.573 -0.0334  0.1538  0.2927
15715TIP3    H168560   3.014   5.392   1.560  1.2196  0.6531 -0.1500
15715TIP3    H268561   2.975   5.248   1.585 -0.8451  1.5557  2.3919
15716TIP3   OH268562   6.538   4.116  11.236  0.5964  0.4547 -0.1455
15716TIP3    H168563   6.444   4.106  11.245  0.6739  1.4839  2.9509
15716TIP3    H268564   6.549   4.191  11.177 -0.4752  0.1302 -0.7856
15717TIP3   OH268565   6.057   3.455  11.668  0.4953 -0.0893  0.5150
15717TIP3    H168566   6.029   3.513  11.597 -2.2593  0.6156  2.0062
15717TIP3    H268567   6.150   3.474  11.680  1.0770 -0.2171 -2.7843
15718TIP3   OH268568   0.872   3.588   3.024 -0.6866  0.0286  0.0024
15718TIP3    H168569   0.827   3.538   2.955  0.4913 -1.4252  0.2268
15718TIP3    H268570   0.854   3.679   3.003 -1.7811 -0.4367 -1.2398
15719TIP3   OH268571   5.278   2.593   3.870  0.1357  0.3120  0.2029
15719TIP3    H168572   5.222   2.526   3.909  0.4842 -0.7530 -1.0643
15719TIP3    H268573   5.362   2.583   3.914 -0.4885  1.6169  1.7901
15720TIP3   OH268574   5.820   3.248  13.488 -0.2641 -0.1638  0.0464
15720TIP3    H168575   5.856   3.310  13.425  0.7550  0.3523  1.1134
15720TIP3    H268576   5.871   3.168  13.475 -0.8164 -0.4337 -0.5420
15721TIP3   OH268577   2.045   4.630   2.483 -0.3687 -0.3662 -0.7707
15721TIP3    H168578   2.085   4.551   2.518  1.5721  1.4502  1.4366
15721TIP3    H268579   2.033   4.686   2.559 -2.1893  1.3019 -2.1753
15722TIP3   OH268580   3.213   6.187   1.285 -0.4573 -0.0267 -0.4526
15722TIP3    H168581   3.148   6.253   1.308 -1.5721 -1.5989  1.2073
15722TIP3    H268582   3.161   6.109   1.264  0.8550 -1.0049 -0.1688
15723TIP3   OH268583   0.377   6.300   5.393 -0.1507  0.1916 -0.3917
15723TIP3    H168584   0.423   6.329   5.314 -0.0737  0.2058 -0.3408
15723TIP3    H268585   0.438   6.241   5.436 -0.7648 -1.0262 -1.1288
15724TIP3   OH268586   6.023   2.834   5.138  0.4937  0.0463  0.2366
15724TIP3    H168587   5.960   2.763   5.130  0.8417 -0.3342  0.8280
15724TIP3    H268588   6.109   2.792   5.129  0.7361  0.2362  1.4951
15725TIP3   OH268589   5.729   0.299  11.477 -0.6891  0.7349 -0.0263
15725TIP3    H168590   5.663   0.267  11.416 -0.9251 -0.1369  0.6714
15725TIP3    H268591   5.700   0.268  11.563  1.0260 -0.3825  0.2032
15726TIP3   OH268592   3.667   0.377  10.760  0.0181 -0.5494 -0.0579
15726TIP3    H168593   3.686   0.453  10.816  1.9204 -0.2136 -1.0591
15726TIP3    H268594   3.612   0.412  10.690 -3.3536 -1.2011  2.0497
15727TIP3   OH268595   0.026   2.124  13.224  0.0129  0.4026  0.3529
15727TIP3    H168596  -0.062   2.088  13.230  0.5399 -0.7786  1.8312
15727TIP3    H268597   0.078   2.054  13.184 -0.2471  2.3060 -3.8640
15728TIP3   OH268598   0.129   1.679  11.652  0.0833 -0.7941 -0.3575
15728TIP3    H168599   0.041   1.698  11.684  0.1815  0.4078 -0.7411
15728TIP3    H268600   0.179   1.659  11.731 -0.5598 -1.6680 -0.1526
15729TIP3   OH268601   5.797   0.650  15.619 -0.3678 -0.3169 -0.4546
15729TIP3    H168602   5.851   0.636  15.697  3.8752  1.2274 -2.8170
15729TIP3    H268603   5.824   0.582  15.558  1.2177  2.1302 -2.7034
15730TIP3   OH268604   4.313   0.284   2.762  0.3912  0.0569  0.3618
15730TIP3    H168605   4.301   0.198   2.802 -0.3369  0.7281  1.6408
15730TIP3    H268606   4.278   0.275   2.674  0.8520 -1.1056  0.2817
15731TIP3   OH268607   3.482   0.697   3.979 -0.6857 -0.0301  0.0644
15731TIP3    H168608   3.490   0.617   4.030 -0.0143 -0.5829 -0.8957
15731TIP3    H268609   3.409   0.680   3.918  0.0946 -0.2979 -0.8121
15732TIP3   OH268610   0.578   6.334  15.332  0.3383  0.0824  0.5207
15732TIP3    H168611   0.672   6.324  15.346  0.5395  0.4403 -0.4795
15732TIP3    H268612   0.563   6.298  15.245 -0.7250 -1.4158  1.2857
15733TIP3   OH268613   5.236   1.804  16.841  0.0684  0.2973  0.0713
15733TIP3    H168614   5.166   1.865  16.862 -0.2145  0.9174 -2.3049
15733TIP3    H268615   5.305   1.823  16.904 -1.5571  0.2207  1.9467
15734TIP3   OH268616   5.510   3.816   4.512 -0.1957 -0.1244 -0.5016
15734TIP3    H168617   5.507   3.722   4.493 -0.2150 -0.7236  2.1125
15734TIP3    H268618   5.569   3.824   4.587 -1.3276  1.7686  0.2660
15735TIP3   OH268619   5.629   5.858   1.042  0.0278 -0.3581 -0.2673
15735TIP3    H168620   5.715   5.850   1.001 -0.2711  0.5554 -1.0994
15735TIP3    H268621   5.648   5.890   1.131  0.4906  1.0632 -0.8534
15736TIP3   OH268622   5.831   2.444  15.385  0.6627 -0.0146  0.2926
15736TIP3    H168623   5.771   2.374  15.357  2.5898 -1.8894  0.6380
15736TIP3    H268624   5.773   2.516  15.409 -1.6132 -2.3426  2.3822
15737TIP3   OH268625   5.412   2.815   3.149 -0.2569  0.1395 -0.1952
15737TIP3    H168626   5.338   2.800   3.091  0.0225  0.7373 -0.7212
15737TIP3    H268627   5.410   2.742   3.211  0.0782 -1.0935 -1.5930
15738TIP3   OH268628   6.460   2.252   5.237 -0.1898 -0.1699 -0.1776
15738TIP3    H168629   6.387   2.289   5.286  0.1390  1.3139 -0.7400
15738TIP3    H268630   6.522   2.324   5.227  1.6095 -1.5035  0.6956
15739TIP3   OH268631   1.938   4.192  14.631  0.0307 -0.1291  0.6688
15739TIP3    H168632   1.948   4.280  14.595  0.3472 -0.5233 -0.2334
15739TIP3    H268633   1.931   4.206  14.726  1.3359  0.7858  0.6698
15740TIP3   OH268634   4.826   6.329  15.925  0.1217  0.5465 -0.2111
15740TIP3    H168635   4.861   6.268  15.861 -1.0042 -0.3970  0.0268
15740TIP3    H268636   4.899   6.385  15.949  1.7871 -2.0105  1.1097
15741TIP3   OH268637   6.025   6.395  16.422 -0.6793 -0.2912  0.5905
15741TIP3    H168638   6.002   6.351  16.340 -0.8573  0.8334  0.0102
15741TIP3    H268639   6.098   6.345  16.456 -1.0186 -1.1658  0.0747
15742TIP3   OH268640   3.443   0.400  12.052 -0.5237 -0.3886 -0.2222
15742TIP3    H168641   3.427   0.374  12.143  2.9518 -0.3581  0.5437
15742TIP3    H268642   3.420   0.323  12.001 -1.4015 -0.8209  0.7863
15743TIP3   OH268643   1.604   2.256  14.235  1.0875 -0.3058  0.1952
15743TIP3    H168644   1.558   2.339  14.219  0.7455 -0.1626  1.7793
15743TIP3    H268645   1.536   2.189  14.226  1.0698 -0.2979  0.2728
15744TIP3   OH268646   5.850   5.072   2.933 -0.0389  0.2700 -0.9479
15744TIP3    H168647   5.934   5.062   2.890  1.3563  0.3007  1.5845
15744TIP3    H268648   5.794   5.116   2.869  2.0684  0.8851 -2.4377
15745TIP3   OH268649   6.424   0.849  10.912  0.5095 -0.2597  0.0449
15745TIP3    H168650   6.447   0.931  10.867 -0.4937  0.5694  0.9649
15745TIP3    H268651   6.483   0.784  10.876 -0.2189  0.3508 -2.4669
15746TIP3   OH268652   4.754   1.325   4.111 -0.3494  0.0694 -0.0535
15746TIP3    H168653   4.694   1.257   4.083  0.6710 -1.0963  0.5039
15746TIP3    H268654   4.805   1.285   4.182 -1.7394  2.3397  2.4035
15747TIP3   OH268655   4.534   0.677   3.446 -0.4481 -0.4936 -0.1245
15747TIP3    H168656   4.612   0.701   3.396 -0.9191  1.9100  0.1657
15747TIP3    H268657   4.483   0.623   3.385  0.0852  0.3954 -1.4077
15748TIP3   OH268658   5.075   2.732   1.871  0.1982  0.0594  0.4862
15748TIP3    H168659   5.051   2.643   1.897  0.7314  0.1589  1.3476
15748TIP3    H268660   5.015   2.789   1.918  0.6449  0.2041  0.8898
15749TIP3   OH268661   3.441   6.813  11.879 -0.0518  0.9483 -0.1895
15749TIP3    H168662   3.419   6.902  11.851  1.8265  0.7171 -2.7867
15749TIP3    H268663   3.496   6.826  11.956 -0.7182  1.9622  0.1413
15750TIP3   OH268664   3.889   0.653   0.280 -0.0603  0.1044  0.6179
15750TIP3    H168665   3.921   0.671   0.369  1.8726  2.2763 -0.4284
15750TIP3    H268666   3.899   0.558   0.270 -0.6300 -0.2445  2.8011
15751TIP3   OH268667   0.927   1.040  13.361 -0.0340  0.1442  0.6295
15751TIP3    H168668   0.911   1.086  13.444 -2.8506 -0.2034  0.4049
15751TIP3    H268669   0.893   0.952  13.376  0.5163 -0.2820 -0.5375
15752TIP3   OH268670   6.816   1.737  11.012 -0.1823 -0.1645  0.2272
15752TIP3    H168671   6.855   1.718  10.927 -0.4148  0.2127  0.0379
15752TIP3    H268672   6.850   1.668  11.070 -1.7829 -1.7798 -0.6678
15753TIP3   OH268673   5.116   2.056  14.764 -0.2627  0.0869  0.3107
15753TIP3    H168674   5.139   1.999  14.691  0.2541 -0.1389  0.6422
15753TIP3    H268675   5.095   1.996  14.835 -0.2668  0.3059  0.4967
15754TIP3   OH268676   5.670   5.167  15.853 -0.0603  0.0650  0.4834
15754TIP3    H168677   5.651   5.092  15.796  0.0242  0.9875 -0.8249
15754TIP3    H268678   5.584   5.198  15.881 -0.1997  0.4439 -0.3162
15755TIP3   OH268679   3.641   0.904  12.032  0.3672 -0.3265 -0.4055
15755TIP3    H168680   3.557   0.942  12.056 -0.1164 -1.2537 -0.5518
15755TIP3    H268681   3.674   0.865  12.113  0.0200 -1.0994 -0.6230
15756TIP3   OH268682   6.495   5.905   1.359  0.2235 -0.4135  0.1932
15756TIP3    H168683   6.556   5.942   1.423  0.6149  0.7253 -0.7902
15756TIP3    H268684   6.538   5.826   1.327  0.0080 -1.0138  1.3283
15757TIP3   OH268685   0.002   5.285   6.754 -0.6659 -0.1495 -0.0665
15757TIP3    H168686  -0.070   5.340   6.786  0.1912  1.9273 -1.4169
15757TIP3    H268687   0.077   5.312   6.806 -0.8634 -2.6071  1.6250
15758TIP3   OH268688   0.147   6.752   3.427  0.3236  0.1299 -0.3689
15758TIP3    H168689   0.213   6.707   3.479  1.0871 -1.6451 -2.6920
15758TIP3    H268690   0.064   6.711   3.453  0.1721  1.7221  1.8854
15759TIP3   OH268691   4.913   3.581  14.261 -1.1653  0.0227  0.1656
15759TIP3    H168692   4.937   3.590  14.169 -0.5840  1.7592  0.4571
15759TIP3    H268693   4.826   3.620  14.268 -0.3445  1.8803  0.6901
15760TIP3   OH268694   3.948   1.980  15.343 -0.4276  0.5893 -0.0553
15760TIP3    H168695   3.896   2.058  15.321  1.0015  1.5326 -0.2214
15760TIP3    H268696   4.025   2.014  15.388 -0.0317 -0.7945  0.3765
15761TIP3   OH268697   0.860   2.288   5.420  0.1123  0.6265  0.0754
15761TIP3    H168698   0.790   2.301   5.484  0.5475  0.0915  0.6677
15761TIP3    H268699   0.932   2.250   5.470  0.5456  0.4233 -0.6874
15762TIP3   OH268700   0.628   1.138   5.651 -0.4989 -0.0141 -0.1815
15762TIP3    H168701   0.549   1.159   5.602 -0.3772  1.1644  0.1084
15762TIP3    H268702   0.627   1.197   5.726  0.3674 -0.3757  0.1322
15763TIP3   OH268703   4.047   0.003   0.911  0.0675  0.1520  0.2195
15763TIP3    H168704   3.997  -0.047   0.974 -2.0252  0.4162 -1.1456
15763TIP3    H268705   3.982   0.055   0.863  1.2619 -1.3446 -3.3571
15764TIP3   OH268706   4.357   2.399   4.693 -0.1523  0.0783  0.6635
15764TIP3    H168707   4.319   2.377   4.608 -0.3863  1.3496  0.4192
15764TIP3    H268708   4.304   2.350   4.756 -1.1733  0.5618  0.2074
15765TIP3   OH268709   3.877   1.209  16.810  0.1291 -0.1306 -0.5739
15765TIP3    H168710   3.823   1.242  16.738  0.2567 -0.5092 -0.8491
15765TIP3    H268711   3.966   1.207  16.775  0.0892 -0.9867 -0.6488
15766TIP3   OH268712   4.838   3.501   1.284  0.0081 -1.0444  0.0462
15766TIP3    H168713   4.797   3.485   1.199 -0.7025  0.8577 -0.0062
15766TIP3    H268714   4.765   3.509   1.346  0.4079 -0.4610  0.4608
15767TIP3   OH268715   4.021   3.942   0.733  0.0720 -0.6046  0.0075
15767TIP3    H168716   4.100   3.994   0.752 -0.5486  0.2670  0.2640
15767TIP3    H268717   3.974   3.940   0.816 -0.4094 -0.7252 -0.2677
15768TIP3   OH268718   1.127   2.498   1.065  0.4925  0.0082 -0.2445
15768TIP3    H168719   1.080   2.462   0.990 -1.2434 -0.4014  0.9841
15768TIP3    H268720   1.092   2.451   1.140  0.4777  1.9824  1.0701
15769TIP3   OH268721   2.941   0.659   1.061 -0.2751 -0.1875 -0.4040
15769TIP3    H168722   2.896   0.743   1.068  0.6098  0.2440  0.4212
15769TIP3    H268723   3.027   0.675   1.100  0.6336 -0.9564 -1.9952
15770TIP3   OH268724   3.897   3.710   3.845  0.6696  0.5821 -0.3124
15770TIP3    H168725   3.955   3.634   3.839  1.4403  1.2127 -1.2530
15770TIP3    H268726   3.943   3.771   3.903  0.3258  0.5633 -0.0169
15771TIP3   OH268727   6.065   0.999   3.909  0.4588 -0.6529 -0.4678
15771TIP3    H168728   6.134   0.958   3.962 -0.6930  0.4666  2.0376
15771TIP3    H268729   6.100   0.997   3.820  3.9523  0.2366  0.7084
15772TIP3   OH268730   2.852   0.994   0.050 -0.3491  0.6304  0.3099
15772TIP3    H168731   2.776   1.004   0.107 -0.6090 -0.0703  0.1034
15772TIP3    H268732   2.838   0.909   0.007  0.2805  0.7448 -0.1314
15773TIP3   OH268733   3.543   2.611  15.233  0.2144  0.3285  0.6877
15773TIP3    H168734   3.532   2.582  15.142  0.5084 -0.4635  0.8927
15773TIP3    H268735   3.550   2.706  15.227 -0.4005  0.3387 -0.0553
15774TIP3   OH268736   6.725   2.435   0.116 -0.1914  0.8441  0.3464
15774TIP3    H168737   6.771   2.507   0.159  1.8054  0.0937 -0.4153
15774TIP3    H268738   6.736   2.361   0.175 -1.4534  0.8925  0.6866
15775TIP3   OH268739   1.685   4.013  13.362 -0.6962 -0.2493 -0.0791
15775TIP3    H168740   1.638   4.013  13.279 -2.3659  0.0681  0.8306
15775TIP3    H268741   1.655   4.091  13.407  0.0689 -0.5042  0.9078
15776TIP3   OH268742   0.355   1.713  16.540 -0.3866 -0.0622 -0.3447
15776TIP3    H168743   0.449   1.721  16.523 -0.1981 -1.5316 -0.1788
15776TIP3    H268744   0.344   1.623  16.572 -1.3533  1.0862  2.9766
15777TIP3   OH268745   3.186   1.375   1.079  0.0785 -0.1605  0.1095
15777TIP3    H168746   3.226   1.330   1.004 -0.3714  0.4644 -0.5142
15777TIP3    H268747   3.112   1.422   1.042  0.3154  0.7924  0.8246
15778TIP3   OH268748   2.815   5.839   1.719  0.1143 -0.3282  0.5413
15778TIP3    H168749   2.729   5.799   1.723  0.8121 -2.3913 -1.9460
15778TIP3    H268750   2.807   5.907   1.652  0.0782  0.5928  1.4512
15779TIP3   OH268751   3.960   4.781  14.710 -0.5328  0.1203  0.4645
15779TIP3    H168752   3.879   4.825  14.682 -0.9240 -0.0736  1.2484
15779TIP3    H268753   4.010   4.769  14.629 -2.1716 -1.5922 -0.3628
15780TIP3   OH268754   0.328   1.040  12.174 -0.5772 -0.2155  0.5168
15780TIP3    H168755   0.388   1.035  12.249  0.0129  0.8462  0.1354
15780TIP3    H268756   0.385   1.050  12.098 -1.1999 -0.6431 -0.0157
15781TIP3   OH268757   0.770   5.859   0.201  0.6477  0.0243 -0.4009
15781TIP3    H168758   0.680   5.866   0.235  0.3531 -2.0809 -0.6059
15781TIP3    H268759   0.825   5.883   0.275 -0.0692 -0.1340  0.1991
15782TIP3   OH268760   2.254   3.146   2.863 -0.3905  0.8030 -0.6532
15782TIP3    H168761   2.201   3.214   2.821  0.7581  1.4822 -1.0521
15782TIP3    H268762   2.245   3.162   2.957  0.3520  1.9234 -0.7519
15783TIP3   OH268763   6.265   0.533   3.401  0.0945  0.8083 -0.0254
15783TIP3    H168764   6.299   0.450   3.433 -0.2402  0.7023  0.0612
15783TIP3    H268765   6.312   0.549   3.319 -1.2164 -0.4351 -1.0633
15784TIP3   OH268766   0.469   1.038   0.191  0.0678  0.1619  0.7205
15784TIP3    H168767   0.443   1.074   0.275  2.1467 -1.3377  2.0979
15784TIP3    H268768   0.563   1.054   0.186  0.3098 -1.3709 -0.4746
15785TIP3   OH268769   3.927   6.382   1.785  0.2426  0.3827  0.2536
15785TIP3    H168770   3.872   6.312   1.820  2.4379 -0.9010  1.2606
15785TIP3    H268771   3.952   6.433   1.862  1.7926 -0.0427  0.0486
15786TIP3   OH268772   3.837   5.332   4.622  0.1785 -0.3625 -0.1858
15786TIP3    H168773   3.878   5.314   4.538 -1.7572  1.5929 -1.6330
15786TIP3    H268774   3.910   5.345   4.682  1.6326 -0.0198 -1.9586
15787TIP3   OH268775   3.781   4.307   0.204 -0.3170 -0.4016 -0.0330
15787TIP3    H168776   3.701   4.358   0.210  0.9040  1.7382 -1.0257
15787TIP3    H268777   3.784   4.276   0.114 -1.1124 -2.4518  0.5894
15788TIP3   OH268778   2.424   6.140   3.554  0.1825 -0.8930 -0.4373
15788TIP3    H168779   2.437   6.157   3.647 -1.3549 -0.8278 -0.2120
15788TIP3    H268780   2.471   6.211   3.510 -2.2871  1.4512  0.3948
15789TIP3   OH268781   2.563   2.871  14.026 -0.0584  0.5670 -0.4229
15789TIP3    H168782   2.567   2.776  14.010  1.3332  0.9219 -2.4929
15789TIP3    H268783   2.619   2.909  13.959 -1.5101  2.9624 -0.3890
15790TIP3   OH268784   0.074   5.662  14.528  0.1401 -0.6311 -0.4877
15790TIP3    H168785  -0.003   5.718  14.519  0.3143 -0.1715  0.6293
15790TIP3    H268786   0.146   5.723  14.542  0.1773 -1.1043  1.8266
15791TIP3   OH268787   2.205   0.300  15.667  1.1499  0.2632  0.2181
15791TIP3    H168788   2.208   0.395  15.677 -0.4140  0.2544  1.1073
15791TIP3    H268789   2.269   0.266  15.729  2.6896  0.7448 -1.0428
15792TIP3   OH268790   0.619   5.863   3.533 -0.4386  0.1488  0.4202
15792TIP3    H168791   0.711   5.875   3.508 -0.4365 -0.9181 -0.1490
15792TIP3    H268792   0.569   5.907   3.465 -0.3723  3.0072  2.0463
15793TIP3   OH268793   0.283   2.056  16.269 -0.1422  0.6244 -0.1185
15793TIP3    H168794   0.263   2.023  16.356  2.0628 -1.1110 -0.1877
15793TIP3    H268795   0.201   2.094  16.238 -1.3316  0.0519  2.1582
15794TIP3   OH268796   2.183   0.295  14.726  0.1010  0.0674 -0.1723
15794TIP3    H168797   2.194   0.278  14.820 -0.2477  1.1714  0.0830
15794TIP3    H268798   2.119   0.230  14.697 -1.1036  0.8057  0.7367
15795TIP3   OH268799   5.841   3.181   3.428 -0.6290 -0.0473  0.4639
15795TIP3    H168800   5.912   3.118   3.431  0.3615  1.0616  1.4587
15795TIP3    H268801   5.761   3.128   3.427  0.1885 -1.3084 -0.2534
15796TIP3   OH268802   1.225   4.465  13.943 -0.1059  0.0293  0.4198
15796TIP3    H168803   1.228   4.535  13.878  1.1604 -0.2873  0.1149
15796TIP3    H268804   1.211   4.385  13.892 -3.3667  0.1655  0.8891
15797TIP3   OH268805   1.612   0.727   4.563  0.1532  0.6867  0.1172
15797TIP3    H168806   1.585   0.816   4.587  2.0982  1.4092 -0.1618
15797TIP3    H268807   1.661   0.739   4.482  0.1099 -0.7182 -0.1352
15798TIP3   OH268808   4.331   2.827  10.920 -0.2864 -0.2763 -0.1371
15798TIP3    H168809   4.261   2.767  10.896 -0.6108  0.6526 -1.6906
15798TIP3    H268810   4.358   2.800  11.008 -3.0555 -0.2424  0.8021
15799TIP3   OH268811   4.696   0.463   2.608  0.2725 -0.4208 -0.3117
15799TIP3    H168812   4.724   0.553   2.625  2.8768 -1.1610 -0.2744
15799TIP3    H268813   4.763   0.428   2.550  0.6128 -3.0317  1.4967
15800TIP3   OH268814   0.394   4.956  15.488  0.3974 -0.4811 -0.2100
15800TIP3    H168815   0.474   4.943  15.539  0.2460 -1.4604 -0.1978
15800TIP3    H268816   0.377   4.870  15.448 -0.7628 -0.3507 -0.0417
15801TIP3   OH268817   1.194   5.239  14.822 -0.3180 -0.6045  0.9161
15801TIP3    H168818   1.271   5.251  14.878 -0.4924 -0.1099  1.0490
15801TIP3    H268819   1.160   5.327  14.809  1.7263 -0.1559 -2.8598
15802TIP3   OH268820   5.963   0.018  15.896 -0.2623 -0.4744 -0.0756
15802TIP3    H168821   5.954  -0.069  15.859 -2.5960  0.1487 -1.1563
15802TIP3    H268822   5.916   0.075  15.835  0.3769  1.3992  1.0966
15803TIP3   OH268823   5.539   3.480  16.048  0.0364 -0.3881 -0.4263
15803TIP3    H168824   5.519   3.537  15.974 -0.1989  0.4265  0.2553
15803TIP3    H268825   5.628   3.505  16.074 -0.5723  0.6610  0.7402
15804TIP3   OH268826   2.047   5.035  10.465  0.1825 -0.2938  0.0425
15804TIP3    H168827   2.083   5.118  10.435  1.1758 -0.2496  1.2682
15804TIP3    H268828   2.101   5.011  10.540 -0.5375 -1.6980  0.1481
15805TIP3   OH268829   5.796   5.195   2.109  0.1592  0.0452  0.2153
15805TIP3    H168830   5.702   5.211   2.119  0.3450  2.2589 -0.9807
15805TIP3    H268831   5.801   5.117   2.054 -1.0925  1.7596 -2.5070
15806TIP3   OH268832   2.731   1.521  14.771  0.5372 -0.3227  0.0649
15806TIP3    H168833   2.715   1.427  14.767  1.3809 -0.4863  0.2261
15806TIP3    H268834   2.785   1.539  14.694  1.0058 -0.1074  0.4420
15807TIP3   OH268835   0.848   1.273   3.681 -0.6101  0.3420  0.5056
15807TIP3    H168836   0.864   1.327   3.604 -1.1331 -0.2523 -0.0273
15807TIP3    H268837   0.934   1.266   3.723 -0.3391  0.7484  0.0283
15808TIP3   OH268838   0.725   4.227  15.239  0.5752  0.0461  0.0512
15808TIP3    H168839   0.768   4.303  15.276  0.1429  0.9045 -1.1384
15808TIP3    H268840   0.781   4.153  15.264  1.6139  0.8784  0.2695
15809TIP3   OH268841   0.780   5.038  14.513 -0.5137  0.0976 -0.1180
15809TIP3    H168842   0.721   5.108  14.539  0.4866  1.1963 -0.7247
15809TIP3    H268843   0.867   5.069  14.538 -0.1343 -1.3767  0.5430
15810TIP3   OH268844   4.293   1.764   1.484  0.3303  0.0751 -0.1385
15810TIP3    H168845   4.210   1.793   1.446  0.1903  1.6308  1.2751
15810TIP3    H268846   4.275   1.674   1.514 -0.1427 -0.4357 -1.8261
15811TIP3   OH268847   3.897   3.577   4.657 -0.1003  0.1471  0.5527
15811TIP3    H168848   3.948   3.519   4.601  0.7190  0.1091  1.3101
15811TIP3    H268849   3.886   3.657   4.605  1.3524  0.4217  0.6214
15812TIP3   OH268850   0.078   2.627  16.517  0.2310 -0.1406  0.1520
15812TIP3    H168851   0.009   2.612  16.583  1.0250 -0.2157  0.9789
15812TIP3    H268852   0.029   2.647  16.437 -0.7631  1.1950  1.0310
15813TIP3   OH268853   4.211   1.625  15.978  0.2373  0.0198  0.1818
15813TIP3    H168854   4.158   1.588  16.049 -0.2766 -1.9238 -1.1338
15813TIP3    H268855   4.241   1.549  15.928  2.9746  1.1379 -0.0818
15814TIP3   OH268856   0.833   2.261   2.417  0.2272  0.4935 -0.7098
15814TIP3    H168857   0.765   2.284   2.480  1.1116 -0.8705  0.8237
15814TIP3    H268858   0.909   2.313   2.443  1.3378 -1.8091  0.9553
15815TIP3   OH268859   3.251   5.748  11.859 -0.0913 -1.1393 -0.4172
15815TIP3    H168860   3.308   5.735  11.783 -1.6105 -0.3455 -1.7621
15815TIP3    H268861   3.281   5.829  11.899  0.6777 -1.5301 -0.1876
15816TIP3   OH268862   0.179   3.754   0.846 -0.2227 -0.1088  0.0929
15816TIP3    H168863   0.189   3.798   0.762 -0.5869 -0.5506 -0.1897
15816TIP3    H268864   0.176   3.661   0.823 -1.6616 -0.1750  0.4507
15817TIP3   OH268865   2.157   4.392  17.086  0.1052 -0.2032 -0.4545
15817TIP3    H168866   2.075   4.399  17.037 -1.5409 -1.1022  2.0063
15817TIP3    H268867   2.157   4.303  17.121  1.8907 -0.0469  0.0506
15818TIP3   OH268868   5.214   5.416  12.195 -0.3890  0.9268 -0.1396
15818TIP3    H168869   5.301   5.377  12.204 -0.3749  1.1759  1.0050
15818TIP3    H268870   5.201   5.423  12.101  0.6848  0.5570 -0.3374
15819TIP3   OH268871   5.558   4.615  11.395  0.5506  0.0726 -0.1760
15819TIP3    H168872   5.562   4.595  11.301  0.0044 -1.3481  0.0713
15819TIP3    H268873   5.615   4.550  11.436  0.0851  0.1012  0.5447
15820TIP3   OH268874   3.384   0.288   5.885  0.5576  0.2040 -0.1036
15820TIP3    H168875   3.425   0.366   5.924  0.2155  0.4738 -0.2806
15820TIP3    H268876   3.361   0.315   5.797  0.7102 -0.1973 -0.2711
15821TIP3   OH268877   1.087   0.276  16.847 -0.1585 -0.0165 -0.3630
15821TIP3    H168878   1.092   0.341  16.916 -2.0190  0.4933 -0.6513
15821TIP3    H268879   1.177   0.264  16.818  0.6868 -0.2986  2.1436
15822TIP3   OH268880   2.917   0.014   1.265  0.1515 -0.4527 -0.8419
15822TIP3    H168881   2.855  -0.009   1.196  1.9801  2.6300 -3.8549
15822TIP3    H268882   2.998  -0.032   1.241  0.5374 -0.1241 -0.1937
15823TIP3   OH268883   4.365   3.402  12.548  0.0447 -0.1619  0.3893
15823TIP3    H168884   4.373   3.461  12.473  1.6038 -0.9479 -0.1059
15823TIP3    H268885   4.300   3.444  12.604  0.8542  1.8653 -0.0830
15824TIP3   OH268886   1.669   5.248   4.168  0.4271 -0.0264  0.1907
15824TIP3    H168887   1.598   5.291   4.121  0.0878 -0.0416  0.6823
15824TIP3    H268888   1.715   5.197   4.102 -0.3585 -0.4595 -0.0284
15825TIP3   OH268889   5.009   6.420   5.712  0.1290 -0.1691  0.3855
15825TIP3    H168890   4.973   6.509   5.718  0.1039 -0.0243 -1.3656
15825TIP3    H268891   5.006   6.387   5.802 -0.9827  1.1592  0.8797
15826TIP3   OH268892   0.813   0.686  11.593  0.2427 -0.3423 -0.6262
15826TIP3    H168893   0.863   0.757  11.633  1.7579 -1.1497 -1.0097
15826TIP3    H268894   0.861   0.664  11.513  0.2278 -2.2575 -0.1627
15827TIP3   OH268895   1.628   2.958   4.994 -0.0753  0.0029  0.1957
15827TIP3    H168896   1.699   2.914   5.039  0.7600  0.8403 -0.2771
15827TIP3    H268897   1.592   2.893   4.934  0.0720 -0.5197  0.6718
15828TIP3   OH268898   5.999   4.570  11.076  0.3693 -0.1227 -0.6543
15828TIP3    H168899   6.059   4.638  11.047  0.8946 -0.5205 -0.5359
15828TIP3    H268900   5.935   4.561  11.005  0.0799  0.7368 -0.5073
15829TIP3   OH268901   5.224   4.295   3.344  0.3353 -0.0408  0.0202
15829TIP3    H168902   5.210   4.210   3.300  0.9390 -0.4304  0.5597
15829TIP3    H268903   5.318   4.312   3.333  0.4749 -0.0830  1.0278
15830TIP3   OH268904   4.433   6.310   3.400  0.1501 -0.0131  0.0481
15830TIP3    H168905   4.401   6.401   3.402  0.2712  0.0897 -1.3769
15830TIP3    H268906   4.525   6.319   3.377  0.4987 -0.4579  1.2024
15831TIP3   OH268907   4.754   5.441   3.962  0.0839 -0.1241  0.4404
15831TIP3    H168908   4.778   5.354   3.933 -0.9812 -1.0634  2.2073
15831TIP3    H268909   4.807   5.457   4.040 -2.4648 -0.9069  2.4775
15832TIP3   OH268910   5.471   6.812  16.507 -0.2290 -0.1637 -0.3806
15832TIP3    H168911   5.510   6.829  16.592 -1.2929  0.1510  0.0588
15832TIP3    H268912   5.546   6.797  16.449  0.5436  0.5817  0.3925
15833TIP3   OH268913   6.608   1.992  13.183 -0.3479  0.0437  0.7093
15833TIP3    H168914   6.628   2.004  13.091  1.1368 -0.0804  0.9972
15833TIP3    H268915   6.512   2.000  13.188 -0.5235 -0.7165 -0.9353
15834TIP3   OH268916   1.331   2.555  14.736 -0.4008 -0.4899 -0.1373
15834TIP3    H168917   1.330   2.590  14.825 -0.7708  0.7791 -0.6195
15834TIP3    H268918   1.416   2.511  14.728  0.6376  1.3874  0.1044
15835TIP3   OH268919   2.924   3.442   0.700 -0.0014 -0.4063  0.1888
15835TIP3    H168920   2.926   3.456   0.605  1.9239  0.7954  0.3514
15835TIP3    H268921   2.890   3.524   0.735  1.5464  0.0772  0.6289
15836TIP3   OH268922   1.461   6.045   4.332  0.0781  0.2749 -0.5675
15836TIP3    H168923   1.394   5.989   4.293  0.1966  0.5557 -1.1775
15836TIP3    H268924   1.520   5.984   4.375  0.0930 -0.0626 -1.0555
15837TIP3   OH268925   1.474   3.385  13.023 -0.4768 -0.5781  0.1397
15837TIP3    H168926   1.517   3.332  13.090  0.8176  0.0578 -0.1505
15837TIP3    H268927   1.422   3.322  12.973  0.7533 -1.5437  0.0112
15838TIP3   OH268928   5.143   4.669  13.843  0.1413  0.2612 -0.3000
15838TIP3    H168929   5.213   4.640  13.901 -0.5259 -1.8079 -0.4402
15838TIP3    H268930   5.156   4.618  13.763 -1.0178  0.4555 -0.6281
15839TIP3   OH268931   3.679   3.031  11.665  0.2823  0.0210  0.5837
15839TIP3    H168932   3.601   2.984  11.693 -0.9482  1.3516 -0.4877
15839TIP3    H268933   3.711   2.981  11.590 -0.9589  0.7799 -0.4823
15840TIP3   OH268934   1.707   5.651  11.615  0.3079  0.1615 -0.2238
15840TIP3    H168935   1.760   5.666  11.693  0.9857  0.4055 -0.7295
15840TIP3    H268936   1.769   5.650  11.542 -0.3589  0.3288 -0.8122
15841TIP3   OH268937   1.790   1.838  11.924 -0.2518 -0.7721 -0.6561
15841TIP3    H168938   1.734   1.810  11.996  0.2557 -0.1311  0.0093
15841TIP3    H268939   1.860   1.773  11.921  0.0065 -0.5227 -0.2195
15842TIP3   OH268940   5.497   1.352  12.102  0.3879  0.9769  0.4066
15842TIP3    H168941   5.424   1.362  12.162 -1.4694  1.2938 -1.7556
15842TIP3    H268942   5.530   1.441  12.088 -0.4105  1.1649 -0.4113
15843TIP3   OH268943   1.772   3.633   3.714 -0.0120 -0.2010 -0.2709
15843TIP3    H168944   1.712   3.698   3.678 -0.5987 -0.9003 -0.5901
15843TIP3    H268945   1.849   3.637   3.658  0.3935  0.9304  0.3348
15844TIP3   OH268946   5.065   1.517   0.772 -0.0302  0.4573 -0.3624
15844TIP3    H168947   5.156   1.542   0.786  0.6869 -1.8648 -0.4032
15844TIP3    H268948   5.021   1.539   0.855  1.3667 -1.4682  0.9942
15845TIP3   OH268949   3.830   5.497   5.749 -0.5116  0.4655 -0.3683
15845TIP3    H168950   3.739   5.467   5.757 -0.6511  1.2318  1.6474
15845TIP3    H268951   3.826   5.590   5.772  0.7473  0.5847 -0.5968
15846TIP3   OH268952   5.581   1.723   6.519 -0.4642 -0.7782 -0.0365
15846TIP3    H168953   5.546   1.709   6.431 -0.2549 -0.1518 -0.2233
15846TIP3    H268954   5.552   1.811   6.543  1.3478 -0.0433 -0.3856
15847TIP3   OH268955   2.514   3.808   0.285 -0.1114  0.4399  0.0186
15847TIP3    H168956   2.483   3.747   0.352 -0.6492 -0.1323 -0.7350
15847TIP3    H268957   2.560   3.753   0.221 -1.1914  0.7036 -1.0253
15848TIP3   OH268958   2.379   0.990  11.364  0.4407 -0.1723  0.8426
15848TIP3    H168959   2.429   0.940  11.429  0.7086  0.6977  1.3198
15848TIP3    H268960   2.340   1.062  11.414 -1.2222 -0.7599  0.4676
15849TIP3   OH268961   5.563   5.805   5.721 -0.0631  0.3577 -1.1117
15849TIP3    H168962   5.505   5.801   5.797  0.1610 -0.4883 -0.9784
15849TIP3    H268963   5.527   5.741   5.660  2.0541 -1.9538 -0.0768
15850TIP3   OH268964   5.187   6.782  13.903 -0.0316  0.0092 -0.7253
15850TIP3    H168965   5.208   6.809  13.813 -0.8174  0.7693 -0.6865
15850TIP3    H268966   5.130   6.851  13.936 -0.1699 -0.5347  0.1861
15851TIP3   OH268967   6.124   1.095  11.844 -0.2878  0.3679  0.2162
15851TIP3    H168968   6.076   1.158  11.897 -1.6485 -0.2922 -0.1941
15851TIP3    H268969   6.190   1.059  11.903 -1.1360  0.3428  1.1731
15852TIP3   OH268970   0.335   3.564   2.376 -0.4087 -0.2737  0.2939
15852TIP3    H168971   0.298   3.651   2.361  0.9917  0.0395 -1.7619
15852TIP3    H268972   0.296   3.509   2.308  0.2373 -0.7651  0.3094
15853TIP3   OH268973   2.985   5.851   0.077 -0.5747 -0.4548 -0.3321
15853TIP3    H168974   2.914   5.849   0.141 -0.6339  2.0645 -0.2235
15853TIP3    H268975   2.949   5.899   0.003  0.7349  0.1018 -0.6338
15854TIP3   OH268976   4.236   6.618  13.385 -0.1095 -0.6968 -0.1899
15854TIP3    H168977   4.262   6.551  13.322  0.4259  1.2258 -2.1399
15854TIP3    H268978   4.316   6.638  13.434 -0.5783 -2.3529  1.3354
15855TIP3   OH268979   0.024   4.975   5.897 -0.2577 -0.2490 -0.0480
15855TIP3    H168980  -0.069   4.972   5.876 -0.4269 -0.9088  0.7489
15855TIP3    H268981   0.032   4.927   5.980  0.8171 -0.3646 -0.1985
15856TIP3   OH268982   5.757   1.312   5.877  0.3988 -0.1878 -0.4309
15856TIP3    H168983   5.844   1.337   5.847  0.6612 -0.3696  0.1549
15856TIP3    H268984   5.773   1.248   5.947 -0.1695  0.3750  0.2343
15857TIP3   OH268985   1.433   5.209   0.400  0.7636 -0.5344  0.8118
15857TIP3    H168986   1.426   5.117   0.372 -0.0327 -0.5167  0.9392
15857TIP3    H268987   1.357   5.223   0.456  1.3855 -0.0510  1.5408
15858TIP3   OH268988   1.784   5.714  12.578 -0.0822  0.3869  0.5541
15858TIP3    H168989   1.688   5.705  12.578 -0.0604  0.1473  0.4246
15858TIP3    H268990   1.807   5.716  12.485  0.0731  0.0781  0.5858
15859TIP3   OH268991   0.953   1.269  12.540  0.6496  0.7614  0.3465
15859TIP3    H168992   0.954   1.241  12.631  0.6811  0.6130  0.3012
15859TIP3    H268993   0.995   1.197  12.492 -0.7883  0.1311 -0.0030
15860TIP3   OH268994   0.138   1.536   3.559  0.4346  0.2487 -0.0317
15860TIP3    H168995   0.046   1.517   3.543  0.3589 -0.4486  1.1308
15860TIP3    H268996   0.167   1.468   3.620  1.8412  0.1836 -0.7175
15861TIP3   OH268997   4.302   2.366   0.268  0.4273  0.5611  0.3755
15861TIP3    H168998   4.277   2.403   0.184  0.0102  0.7313  0.5729
15861TIP3    H268999   4.237   2.401   0.330 -0.1247 -0.6722  0.5223
15862TIP3   OH269000   4.980   5.983   5.853 -0.0268 -0.2775  0.2793
15862TIP3    H169001   4.929   5.922   5.905  1.4415  0.1030  2.3283
15862TIP3    H269002   5.067   5.983   5.895  0.3576  2.3297 -0.3136
15863TIP3   OH269003   3.216   2.249  14.014 -0.8420 -0.0098 -0.2641
15863TIP3    H169004   3.301   2.226  13.977 -1.3087 -1.1609 -0.6579
15863TIP3    H269005   3.158   2.256  13.939 -1.5050 -1.0908  0.1282
15864TIP3   OH269006   1.164   5.424  16.862  0.7779  0.3298  0.1587
15864TIP3    H169007   1.241   5.368  16.848  1.3855  0.3868  2.7117
15864TIP3    H269008   1.120   5.385  16.937 -1.8328  0.2410 -1.3086
15865TIP3   OH269009   1.541   6.041  11.924  0.5288 -0.6965  0.3761
15865TIP3    H169010   1.518   6.065  11.834 -1.0054 -0.5511  0.7679
15865TIP3    H269011   1.630   6.073  11.936  0.0429  1.0643 -0.4629
15866TIP3   OH269012   2.710   6.539  11.830 -0.2261 -0.4351  0.9768
15866TIP3    H169013   2.637   6.555  11.770 -0.7837 -0.0418  1.7417
15866TIP3    H269014   2.711   6.444  11.842  0.5158 -0.6238 -0.4091
15867TIP3   OH269015   4.982   5.528   6.269  0.5157 -0.2337 -0.3181
15867TIP3    H169016   4.967   5.478   6.349 -0.6773  0.7188  0.0809
15867TIP3    H269017   4.895   5.546   6.235  0.9826  0.1396 -1.3691
15868TIP3   OH269018   6.493   6.478  15.058 -0.2149  0.2198 -0.1356
15868TIP3    H169019   6.560   6.478  14.990  0.9540 -0.6933  0.9646
15868TIP3    H269020   6.477   6.570  15.078  0.0084  0.4638 -1.0680
15869TIP3   OH269021   5.051   6.397  14.648  0.3498 -0.6198  0.1054
15869TIP3    H169022   5.060   6.349  14.731  1.9266  0.5663  0.6448
15869TIP3    H269023   5.121   6.363  14.593  1.6786  1.2128  0.5951
15870TIP3   OH269024   3.636   4.119  15.045  0.6219  0.0560  0.3222
15870TIP3    H169025   3.542   4.113  15.060  0.2154 -1.1395 -2.1532
15870TIP3    H269026   3.651   4.211  15.023 -0.0307  0.1846  0.4053
15871TIP3   OH269027   3.502   1.170  12.584 -0.2794  0.2978  0.6779
15871TIP3    H169028   3.502   1.123  12.667  0.9432  0.4437  0.7794
15871TIP3    H269029   3.593   1.197  12.571 -0.0032 -1.3911 -1.6291
15872TIP3   OH269030   2.625   3.324   2.682 -0.2658  0.5138  0.3080
15872TIP3    H169031   2.649   3.239   2.719 -2.9579 -0.4405  0.1387
15872TIP3    H269032   2.567   3.363   2.748 -1.0155  1.0926 -0.6609
15873TIP3   OH269033   4.814   6.206  15.203  0.2826 -0.1492 -0.4489
15873TIP3    H169034   4.761   6.135  15.169 -0.6492 -0.0272  0.6718
15873TIP3    H269035   4.904   6.179  15.186 -0.0333 -1.7362  0.1775
15874TIP3   OH269036   1.793   2.615  15.992 -0.1258 -0.3971 -0.9088
15874TIP3    H169037   1.840   2.697  15.973 -0.7136 -0.0381 -0.8515
15874TIP3    H269038   1.794   2.567  15.909  0.6411 -0.5456 -0.8134
15875TIP3   OH269039   0.779   3.951  16.593 -0.2092  0.4197 -0.3318
15875TIP3    H169040   0.850   3.995  16.641  0.4262 -1.2420  0.3080
15875TIP3    H269041   0.824   3.903  16.524 -0.9205  0.9264 -1.1639
15876TIP3   OH269042   6.375   0.830   2.539  0.8851 -0.1251 -0.3499
15876TIP3    H169043   6.302   0.771   2.520 -0.3332  0.3145  2.4410
15876TIP3    H269044   6.342   0.917   2.516 -0.2566  0.2948  2.4813
15877TIP3   OH269045   2.269   3.797   2.194 -0.5809  0.3240  0.1748
15877TIP3    H169046   2.299   3.883   2.224  0.9586 -0.5634  1.3115
15877TIP3    H269047   2.348   3.742   2.196 -1.2248 -0.7976 -1.8473
15878TIP3   OH269048   3.511   4.275  12.104 -0.1402  0.4956 -0.5399
15878TIP3    H169049   3.492   4.191  12.060 -0.3477  0.1255  0.2463
15878TIP3    H269050   3.534   4.334  12.032 -0.0989 -0.2035 -1.1191
15879TIP3   OH269051   1.850   5.687   2.156 -0.0688  0.0992  0.1064
15879TIP3    H169052   1.779   5.723   2.209 -0.7167 -0.6828 -0.1950
15879TIP3    H269053   1.818   5.694   2.066  0.2758 -0.1624 -0.0404
15880TIP3   OH269054   0.079   2.804   3.300  0.6550 -0.7381  0.0789
15880TIP3    H169055   0.033   2.866   3.355  0.6243 -2.0496  1.6168
15880TIP3    H269056   0.067   2.837   3.211  1.6809  2.0886  0.8847
15881TIP3   OH269057   0.110   0.713   3.359  0.1320 -0.2016  0.3986
15881TIP3    H169058   0.117   0.625   3.321 -1.5937 -0.3931  0.4178
15881TIP3    H269059   0.017   0.723   3.378  0.8115 -0.1015  4.5746
15882TIP3   OH269060   4.745   2.367   4.191 -0.5308 -0.1253  0.2081
15882TIP3    H169061   4.679   2.338   4.255 -0.5894 -0.8964 -0.1958
15882TIP3    H269062   4.761   2.459   4.214 -0.2077 -0.5069  1.6280
15883TIP3   OH269063   2.067   6.080  10.930 -0.5010  0.0373 -0.0263
15883TIP3    H169064   2.001   6.011  10.929  0.8524 -1.3266 -1.2578
15883TIP3    H269065   2.039   6.141  10.862 -0.9761 -0.0435  0.0935
15884TIP3   OH269066   5.385   6.804   5.583  0.1666 -0.2350  0.9378
15884TIP3    H169067   5.357   6.836   5.497 -1.1097 -0.0070  1.4072
15884TIP3    H269068   5.303   6.780   5.627  0.8825 -1.5151  1.6434
15885TIP3   OH269069   4.517   5.989  10.523 -0.1294 -0.0099 -0.2943
15885TIP3    H169070   4.501   6.083  10.527  3.1065  0.6728 -0.9224
15885TIP3    H269071   4.470   5.953  10.598  0.9353  2.5330  1.7329
15886TIP3   OH269072   4.136   3.255   5.191 -0.1583 -0.0770 -0.6941
15886TIP3    H169073   4.173   3.191   5.130 -0.7948 -2.3763  1.2027
15886TIP3    H269074   4.041   3.240   5.186 -0.3204  0.7169 -0.1948
15887TIP3   OH269075   5.158   1.249   3.333  0.6969  0.5549  0.1321
15887TIP3    H169076   5.157   1.304   3.254  1.7319 -0.8597 -0.9151
15887TIP3    H269077   5.200   1.303   3.399  0.2630  1.5956 -0.4186
15888TIP3   OH269078   4.330   4.258  10.694 -0.4800  0.0442 -0.4785
15888TIP3    H169079   4.388   4.243  10.619  0.9006 -3.2959  1.0571
15888TIP3    H269080   4.255   4.200  10.679 -1.3390  1.0911 -0.3412
15889TIP3   OH269081   1.719   6.052  11.522 -0.3460 -0.1251  0.3374
15889TIP3    H169082   1.753   6.117  11.461 -0.3267  0.1780  0.6663
15889TIP3    H269083   1.797   6.009  11.557 -0.3776 -0.6668 -0.2456
15890TIP3   OH269084   4.816   2.769   0.160  0.2609 -0.0676  0.0120
15890TIP3    H169085   4.847   2.717   0.235  0.2848 -0.3653 -0.2038
15890TIP3    H269086   4.896   2.806   0.123  0.5130 -1.6989 -1.1958
15891TIP3   OH269087   2.237   0.307  12.605  0.7308  0.2597  0.1394
15891TIP3    H169088   2.167   0.352  12.652  1.4113  0.8101  0.6450
15891TIP3    H269089   2.193   0.235  12.560 -0.4885  1.6911 -1.0868
15892TIP3   OH269090   6.090   1.928   3.297 -0.4468 -0.4519 -0.5071
15892TIP3    H169091   6.184   1.924   3.284 -0.6638 -0.6823 -2.2529
15892TIP3    H269092   6.065   2.016   3.267 -0.8284 -0.5471 -0.4782
15893TIP3   OH269093   1.939   2.288   1.771 -0.0906  0.4291 -0.1107
15893TIP3    H169094   1.979   2.261   1.689  0.9217 -0.4695  0.6340
15893TIP3    H269095   1.871   2.350   1.746 -0.0284 -0.0777 -1.6380
15894TIP3   OH269096   3.783   4.509  12.084  0.0421  0.0490 -0.1934
15894TIP3    H169097   3.823   4.448  12.022 -2.2629 -2.9303  0.9961
15894TIP3    H269098   3.711   4.549  12.035 -1.1295 -1.5251  0.1601
15895TIP3   OH269099   6.580   0.377   3.853 -0.2201 -0.1624  0.0724
15895TIP3    H169100   6.485   0.383   3.849 -0.2792 -0.1822  1.1314
15895TIP3    H269101   6.611   0.461   3.818 -0.6276 -0.1273 -0.2036
15896TIP3   OH269102   2.070   1.165   5.047 -0.0285 -0.7981  0.2268
15896TIP3    H169103   2.165   1.163   5.036 -0.2830 -1.5079 -2.6064
15896TIP3    H269104   2.040   1.234   4.988 -1.3350 -1.0774  0.5305
15897TIP3   OH269105   2.661   5.990   2.807  0.2219 -0.3662  0.9309
15897TIP3    H169106   2.574   5.985   2.767  1.0528  1.9962 -1.4920
15897TIP3    H269107   2.681   5.900   2.832 -2.0454 -1.3394 -0.4200
15898TIP3   OH269108   3.609   0.087   4.070 -0.1304 -0.4211  0.1605
15898TIP3    H169109   3.658   0.151   4.122 -0.1753 -0.3934  0.1693
15898TIP3    H269110   3.578   0.137   3.994 -1.4683 -0.0370  0.9255
15899TIP3   OH269111   1.214   2.814   4.936 -0.3280 -0.2488  0.5332
15899TIP3    H169112   1.185   2.851   4.853 -0.5506  1.2601  1.2609
15899TIP3    H269113   1.251   2.729   4.913  1.2234  0.8663 -1.3330
15900TIP3   OH269114   5.986   1.139   2.052 -0.2866 -0.0310 -0.0048
15900TIP3    H169115   6.018   1.050   2.068 -1.6465 -1.0990 -2.5443
15900TIP3    H269116   5.931   1.159   2.127  0.3205 -1.1691  0.7809
15901TIP3   OH269117   1.488   0.804   0.915 -0.2974  0.7002  0.4295
15901TIP3    H169118   1.527   0.891   0.914  1.3917  0.0252 -1.8278
15901TIP3    H269119   1.440   0.798   0.833  1.8053 -1.3066 -0.7766
15902TIP3   OH269120   1.241   5.080   5.251  0.2586  0.2267  0.1538
15902TIP3    H169121   1.295   5.113   5.179 -0.7255  1.3047 -0.1142
15902TIP3    H269122   1.218   4.991   5.224  0.8275  0.2210 -0.3343
15903TIP3   OH269123   2.295   3.992   1.197  0.0173  0.1464 -0.0760
15903TIP3    H169124   2.200   3.998   1.186  0.0525  0.9823  0.0132
15903TIP3    H269125   2.330   4.057   1.137  0.4683  0.8354  0.9035
15904TIP3   OH269126   4.915   2.060   6.228 -0.3155 -0.9136 -0.6414
15904TIP3    H169127   4.982   2.101   6.174  0.5442 -0.9699  0.3643
15904TIP3    H269128   4.839   2.117   6.220 -0.4194 -1.2456 -2.3935
15905TIP3   OH269129   6.618   5.412   6.283  0.4253 -0.5278 -0.2473
15905TIP3    H169130   6.656   5.466   6.213  0.0130 -1.5852 -1.3331
15905TIP3    H269131   6.529   5.394   6.253 -0.3572  0.3871  1.3795
15906TIP3   OH269132   4.551   2.755   0.039 -0.1810 -0.0348  0.4126
15906TIP3    H169133   4.631   2.703   0.048  0.1724 -0.4895 -3.5319
15906TIP3    H269134   4.577   2.843   0.066  0.5276 -0.8610  2.6845
15907TIP3   OH269135   6.111   3.992  12.977  0.3388 -0.6672  0.1027
15907TIP3    H169136   6.137   4.034  13.059 -0.3969 -1.8459  0.9653
15907TIP3    H269137   6.058   4.059  12.933  1.3393  0.2359  0.2300
15908TIP3   OH269138   3.180   2.412   4.880  1.1022  0.1145  0.0500
15908TIP3    H169139   3.214   2.350   4.944  0.5565 -0.3327 -0.0786
15908TIP3    H269140   3.125   2.359   4.822 -1.8867  1.1062  1.7093
15909TIP3   OH269141   5.497   2.427  14.661  0.0913 -0.1230  0.4446
15909TIP3    H169142   5.531   2.508  14.700  0.2446 -0.4385  0.9803
15909TIP3    H269143   5.536   2.357  14.714  0.5748 -0.5764 -0.4841
15910TIP3   OH269144   3.046   1.358  10.521  0.2702  0.1363 -0.2668
15910TIP3    H169145   3.085   1.443  10.539  1.3101 -0.6032  1.1477
15910TIP3    H269146   3.062   1.306  10.600 -0.3841 -1.3542 -1.0601
15911TIP3   OH269147   2.971   6.382   2.619  0.6870  0.5162  0.2017
15911TIP3    H169148   3.031   6.372   2.545  0.1713  1.7139 -0.4079
15911TIP3    H269149   3.025   6.418   2.689  1.0367 -0.0078  0.2082
15912TIP3   OH269150   2.059   4.633   3.041  0.5597 -0.5489 -0.4260
15912TIP3    H169151   2.087   4.718   3.074  1.7067 -0.1620 -2.2502
15912TIP3    H269152   2.116   4.570   3.087  1.5384 -0.1020 -1.0018
15913TIP3   OH269153   1.972   6.646   3.347 -1.0739 -0.6011 -0.0337
15913TIP3    H169154   1.910   6.717   3.330 -1.2523 -0.9121 -0.7120
15913TIP3    H269155   1.991   6.609   3.261  0.1296 -0.4573  0.1468
15914TIP3   OH269156   2.204   6.242   1.402  0.0686 -0.0230 -0.6122
15914TIP3    H169157   2.176   6.269   1.315  0.8397 -0.4040 -0.9947
15914TIP3    H269158   2.123   6.227   1.451 -0.3858 -0.6759 -1.5343
15915TIP3   OH269159   2.200   5.918   0.536 -0.3947 -0.0139 -0.1879
15915TIP3    H169160   2.189   5.906   0.441 -2.6335 -0.7270  0.1060
15915TIP3    H269161   2.195   6.012   0.549 -0.4448  0.0629 -0.7350
15916TIP3   OH269162   5.845   4.913   6.385  0.5046  0.2907  0.5643
15916TIP3    H169163   5.775   4.977   6.373  0.5875  0.2461 -0.1946
15916TIP3    H269164   5.801   4.835   6.419  0.3587  0.6416  1.1985
15917TIP3   OH269165   5.733   5.166  12.028  0.3685  0.0685 -0.6212
15917TIP3    H169166   5.765   5.093  11.974 -3.6274 -1.2766 -1.6043
15917TIP3    H269167   5.788   5.166  12.105  1.5482 -3.0113 -1.3309
15918TIP3   OH269168   3.285   6.320   0.686  0.1748  0.2515  0.1423
15918TIP3    H169169   3.208   6.300   0.634 -0.4126  3.3525 -0.4272
15918TIP3    H269170   3.251   6.348   0.771  0.7367  0.5585  0.2770
15919TIP3   OH269171   6.331   2.894  15.843  0.4089 -0.2019  0.4127
15919TIP3    H169172   6.370   2.904  15.929  0.1885  0.5632  0.4334
15919TIP3    H269173   6.303   2.982  15.819 -1.3275 -0.7028  0.4223
15920TIP3   OH269174   3.062   3.345  14.906 -0.0541 -0.0922 -0.0974
15920TIP3    H169175   3.135   3.301  14.862  0.7539  0.0875  1.0217
15920TIP3    H269176   3.021   3.397  14.837 -0.4501 -1.8205 -1.2306
15921TIP3   OH269177   2.719   0.489  14.031 -0.5045 -0.1252  0.0006
15921TIP3    H169178   2.801   0.441  14.035 -0.7353 -0.6449 -1.1411
15921TIP3    H269179   2.728   0.547  13.955 -1.0920  0.0133  0.0272
15922TIP3   OH269180   1.819   3.990  15.397  0.3640 -0.1804 -0.3512
15922TIP3    H169181   1.874   3.990  15.475  0.3995  1.0872 -0.3451
15922TIP3    H269182   1.750   4.054  15.417 -1.5611 -2.2339 -0.0684
15923TIP3   OH269183   3.685   0.146   5.645  0.0409 -0.2298 -0.0998
15923TIP3    H169184   3.700   0.189   5.729 -0.5504 -1.0079  0.4235
15923TIP3    H269185   3.700   0.053   5.662 -2.8405 -0.7966 -0.0742
15924TIP3   OH269186   3.952   6.676  10.922 -0.2829 -0.1089  0.4347
15924TIP3    H169187   3.994   6.723  10.850 -2.3049 -0.5306 -1.1202
15924TIP3    H269188   3.939   6.742  10.989  0.0705  0.7200 -0.2953
15925TIP3   OH269189   1.471   3.557   3.677  0.3101 -0.5580  0.0122
15925TIP3    H169190   1.448   3.474   3.636  1.2446 -2.0480  2.3364
15925TIP3    H269191   1.565   3.567   3.664 -0.0163  0.9817 -1.5914
15926TIP3   OH269192   5.590   3.898  16.410  0.4546 -0.5497  0.6749
15926TIP3    H169193   5.594   3.844  16.489  0.1623  0.9780  1.7661
15926TIP3    H269194   5.557   3.982  16.440 -0.0537 -0.0555 -1.1585
15927TIP3   OH269195   4.379   5.007   0.209  0.0714 -0.0163  0.0828
15927TIP3    H169196   4.437   5.013   0.285 -0.4841 -2.0692  0.7280
15927TIP3    H269197   4.309   4.948   0.237 -0.3479 -0.5278 -1.9058
15928TIP3   OH269198   4.578   6.405   4.530  0.5712 -0.6564  0.1176
15928TIP3    H169199   4.492   6.397   4.571  0.3228  1.8912  0.2356
15928TIP3    H269200   4.559   6.430   4.440  1.1092  1.7757  0.6044
15929TIP3   OH269201   4.391   3.091   1.500 -0.7294 -0.2407  0.5585
15929TIP3    H169202   4.419   3.051   1.582 -0.0138  0.6489  0.7677
15929TIP3    H269203   4.461   3.153   1.479 -2.5684  2.1981  1.1576
15930TIP3   OH269204   6.014   6.291  12.491 -0.6924  0.0494 -0.0254
15930TIP3    H169205   5.949   6.283  12.421 -0.0562 -1.8062 -0.4680
15930TIP3    H269206   6.090   6.243  12.458 -0.1342 -0.2926  1.6600
15931TIP3   OH269207   3.200   6.535   5.859  0.2595  0.1460  0.4554
15931TIP3    H169208   3.146   6.565   5.786 -2.0179  1.3907  2.4906
15931TIP3    H269209   3.271   6.599   5.864  0.6492 -0.1537 -0.8282
15932TIP3   OH269210   5.494   0.967   3.333 -0.2537 -0.0897  0.0893
15932TIP3    H169211   5.539   1.031   3.277  0.7152  0.2438  1.2171
15932TIP3    H269212   5.403   0.970   3.304  0.0285  0.8210 -0.7783
15933TIP3   OH269213   4.782   0.490   0.915  0.0107  0.1496 -0.2544
15933TIP3    H169214   4.752   0.501   0.824  0.5154  2.2594 -0.2222
15933TIP3    H269215   4.869   0.453   0.907 -0.4516 -0.8906 -0.5714
15934TIP3   OH269216   6.424   6.319   1.204 -0.4557  0.0543  0.0474
15934TIP3    H169217   6.502   6.327   1.259  0.2051  1.3162 -1.0181
15934TIP3    H269218   6.361   6.380   1.243 -1.2317 -1.5098  1.3544
15935TIP3   OH269219   0.572   3.486  16.831 -0.1855 -0.1992 -0.0599
15935TIP3    H169220   0.576   3.429  16.754  0.9752  0.0079 -0.1717
15935TIP3    H269221   0.493   3.539  16.818 -0.3522 -0.6156 -0.7791
15936TIP3   OH269222   6.785   1.460   3.887  0.0117 -0.6401 -0.5491
15936TIP3    H169223   6.862   1.421   3.929 -0.5695 -0.4100  0.7723
15936TIP3    H269224   6.717   1.459   3.955 -1.0282 -0.4204 -1.5433
15937TIP3   OH269225   1.386   4.757  16.313  0.5619  0.6125  0.1206
15937TIP3    H169226   1.392   4.844  16.353 -1.5292 -0.0674  2.1625
15937TIP3    H269227   1.375   4.697  16.387  0.3395 -1.2215 -1.3074
15938TIP3   OH269228   2.551   2.404  16.831  0.1103  0.2441  0.1087
15938TIP3    H169229   2.517   2.397  16.920  0.3994 -0.9079  0.1415
15938TIP3    H269230   2.583   2.316  16.810 -1.6310 -0.0176 -1.8303
15939TIP3   OH269231   0.844   5.184  14.139  0.3736  0.3376  0.3486
15939TIP3    H169232   0.877   5.239  14.068  1.0943 -1.4012 -0.7117
15939TIP3    H269233   0.761   5.225  14.164  0.1178  1.0151 -1.4813
15940TIP3   OH269234   1.149   1.705   2.407 -0.1740  0.3340  0.6159
15940TIP3    H169235   1.113   1.751   2.330  2.5960 -0.9761 -1.6459
15940TIP3    H269236   1.079   1.646   2.434 -1.4983  1.3582 -0.4154
15941TIP3   OH269237   5.643   0.338  15.523  0.3912 -0.3480 -0.0701
15941TIP3    H169238   5.583   0.411  15.506 -0.5704 -1.5468 -2.2131
15941TIP3    H269239   5.729   0.371  15.494 -0.2494 -0.4092 -2.2191
15942TIP3   OH269240   2.190   2.167   4.390 -0.9342 -0.3818 -0.4125
15942TIP3    H169241   2.278   2.152   4.355  0.2171  0.8617  1.7729
15942TIP3    H269242   2.174   2.092   4.448 -1.3559 -0.6005 -0.7944
15943TIP3   OH269243   6.177   5.513   1.632 -0.5590 -0.0960 -0.5997
15943TIP3    H169244   6.171   5.422   1.602  1.1335 -0.2001 -0.7122
15943TIP3    H269245   6.158   5.565   1.554 -0.0757 -0.3517 -0.8875
15944TIP3   OH269246   1.251   2.655  11.406 -0.0285 -0.5743 -0.6112
15944TIP3    H169247   1.189   2.727  11.392 -0.2846 -1.0072 -1.8496
15944TIP3    H269248   1.320   2.693  11.461 -1.5839 -0.2161  1.1704
15945TIP3   OH269249   2.898   4.003  16.380 -0.2510 -0.2226  0.5201
15945TIP3    H169250   2.871   4.088  16.344  1.7180 -0.6140 -2.2325
15945TIP3    H269251   2.899   3.944  16.304  3.0994 -1.4447  1.3325
15946TIP3   OH269252   0.901   2.058   3.069 -0.5307  0.1150 -0.2216
15946TIP3    H169253   0.914   2.045   2.975 -0.9429 -1.0970 -0.1324
15946TIP3    H269254   0.846   2.135   3.075  0.5542  0.9697 -0.9122
15947TIP3   OH269255   0.504   2.986  16.449 -0.2569  0.1794  0.8208
15947TIP3    H169256   0.457   3.031  16.520 -0.6992 -1.7168  1.7841
15947TIP3    H269257   0.476   2.895  16.455  1.2028 -0.4131 -0.5718
15948TIP3   OH269258   0.095   3.697   2.936  0.7055  0.2112  0.7567
15948TIP3    H169259   0.179   3.668   2.971  1.3440  0.8724 -0.1628
15948TIP3    H269260   0.041   3.619   2.935  1.3747 -0.2676  1.1769
15949TIP3   OH269261   5.974   0.171   4.501 -0.0954 -0.1986 -0.2576
15949TIP3    H169262   5.918   0.094   4.499  0.1162 -0.3720  0.3078
15949TIP3    H269263   6.018   0.167   4.586 -0.1618  0.6008 -0.1692
15950TIP3   OH269264   4.397   1.640  16.521  0.3984  0.1968 -0.1453
15950TIP3    H169265   4.387   1.603  16.609  0.1221  0.4886 -0.0530
15950TIP3    H269266   4.483   1.608  16.492  0.3540 -0.1594  0.1040
15951TIP3   OH269267   6.540   6.298  12.024 -0.9302  0.6119  0.3515
15951TIP3    H169268   6.505   6.287  11.936 -0.2938  0.6332  0.0904
15951TIP3    H269269   6.613   6.359  12.013 -1.4095  1.3411  1.0365
15952TIP3   OH269270   5.588   0.040  14.038  0.0224  0.3377  0.3378
15952TIP3    H169271   5.512   0.098  14.035 -0.7905 -0.6974  0.1321
15952TIP3    H269272   5.584  -0.008  13.955  0.2273 -0.5398  0.8252
15953TIP3   OH269273   1.777   1.137   4.113  0.2134 -0.2654  0.4472
15953TIP3    H169274   1.826   1.126   4.032 -1.8158 -3.4273 -0.5757
15953TIP3    H269275   1.833   1.098   4.181  0.9372  0.2549  0.1616
15954TIP3   OH269276   3.812   2.661   5.242 -0.6746  0.9074  0.2803
15954TIP3    H169277   3.893   2.633   5.200 -0.7918  2.7362 -1.3452
15954TIP3    H269278   3.787   2.589   5.299  1.3674 -0.2525 -0.2233
15955TIP3   OH269279   1.857   1.026  12.616  0.5050 -0.4398 -0.2623
15955TIP3    H169280   1.844   1.114  12.652 -2.0447 -1.1171  0.6318
15955TIP3    H269281   1.871   0.971  12.693  1.8223 -0.9070 -0.8052
15956TIP3   OH269282   1.477   2.906  16.858 -0.7298 -0.7056 -0.0176
15956TIP3    H169283   1.553   2.890  16.915 -0.9955 -0.0779  0.5296
15956TIP3    H269284   1.508   2.883  16.770  0.0930 -0.4740  0.1972
15957TIP3   OH269285   0.236   1.591  15.624 -0.6612  0.7717  0.2391
15957TIP3    H169286   0.311   1.630  15.670  0.5703  0.1182 -1.1142
15957TIP3    H269287   0.272   1.563  15.540 -1.5423 -2.8414  0.8964
15958TIP3   OH269288   4.533   6.794   3.075 -0.3191 -0.2010 -0.1154
15958TIP3    H169289   4.556   6.780   3.167  0.6141 -1.5950 -0.5230
15958TIP3    H269290   4.438   6.803   3.075 -0.2737  0.3728  1.0426
15959TIP3   OH269291   6.202   1.077  16.719  0.3694 -0.1443  0.2777
15959TIP3    H169292   6.266   1.012  16.749 -1.1073 -1.2806  1.1205
15959TIP3    H269293   6.245   1.122  16.647  1.6969 -1.6154  0.1036
15960TIP3   OH269294   5.929   0.047  15.224  0.2149 -0.2381 -0.0199
15960TIP3    H169295   6.007  -0.006  15.211  0.7182  0.8326 -1.5875
15960TIP3    H269296   5.864   0.008  15.166  0.3330  0.3372 -0.5455
15961TIP3   OH269297   2.071   1.709  13.350 -0.3915 -0.4973  0.1791
15961TIP3    H169298   2.043   1.748  13.433  0.5679 -1.6347  1.0906
15961TIP3    H269299   2.152   1.663  13.372  1.7819  1.9395 -2.1474
15962TIP3   OH269300   4.748   3.519   5.277 -0.0135 -0.0913 -0.7618
15962TIP3    H169301   4.770   3.568   5.198  0.9531  0.2335 -0.3166
15962TIP3    H269302   4.822   3.536   5.336 -1.1376  0.4194  0.5543
15963TIP3   OH269303   3.063   1.508  17.031  0.0211 -0.1496  0.1613
15963TIP3    H169304   3.089   1.496  16.940  0.8856 -0.4625  0.4352
15963TIP3    H269305   3.092   1.428  17.075 -2.6264 -1.1695  0.2698
15964TIP3   OH269306   2.074   6.632   5.968 -0.1927  0.5363 -0.7604
15964TIP3    H169307   2.053   6.628   5.875 -0.9019  0.0851 -0.5929
15964TIP3    H269308   2.168   6.615   5.972 -0.1044  0.8401 -1.4119
15965TIP3   OH269309   4.119   5.207  10.942 -0.0407 -0.0272 -0.4368
15965TIP3    H169310   4.056   5.135  10.946 -0.4616  0.0780 -3.1500
15965TIP3    H269311   4.072   5.283  10.976 -0.8802 -0.2713 -1.0295
15966TIP3   OH269312   0.363   0.007   2.334  0.2300 -0.3678 -0.3228
15966TIP3    H169313   0.351   0.022   2.428 -0.4738 -1.5219 -0.2055
15966TIP3    H269314   0.278   0.028   2.296  0.5160  0.1065 -0.7044
15967TIP3   OH269315   6.219   4.911   1.176  0.2755 -0.3869  0.2054
15967TIP3    H169316   6.144   4.870   1.220 -0.6140  0.7562 -0.1905
15967TIP3    H269317   6.201   4.901   1.083 -0.9505  2.4835  0.0471
15968TIP3   OH269318   4.548   6.052  13.834 -0.4733 -0.7218  0.3257
15968TIP3    H169319   4.511   5.975  13.791 -0.3682 -0.5069 -0.1624
15968TIP3    H269320   4.624   6.018  13.882 -0.0013 -0.8211 -0.4631
15969TIP3   OH269321   3.357   5.262  12.288 -0.1121 -0.3205  0.0756
15969TIP3    H169322   3.266   5.236  12.272 -0.2658  0.5880 -0.6142
15969TIP3    H269323   3.359   5.355  12.266  0.7466 -0.0862  1.0904
15970TIP3   OH269324   2.040   4.148   1.084 -0.1178  0.3975 -0.5854
15970TIP3    H169325   2.068   4.231   1.043  0.7767  0.9261  1.0183
15970TIP3    H269326   1.993   4.175   1.163  0.1482 -0.6212 -0.0642
15971TIP3   OH269327   3.683   5.905   4.992 -0.6906  0.2032 -0.1744
15971TIP3    H169328   3.762   5.898   4.940  0.0565 -1.4155  1.0775
15971TIP3    H269329   3.694   5.985   5.043  0.3482 -0.2341  0.3036
15972TIP3   OH269330   0.656   2.074   2.852  0.1479  0.3050 -0.8819
15972TIP3    H169331   0.653   2.141   2.920  0.8534  0.2834 -0.8278
15972TIP3    H269332   0.747   2.074   2.822  0.4643 -1.4697 -0.0351
15973TIP3   OH269333   0.708   6.507  12.998 -0.4568 -0.2790 -0.7137
15973TIP3    H169334   0.748   6.595  12.994 -0.6003 -0.0608  1.4875
15973TIP3    H269335   0.781   6.447  12.982  0.4398  0.1798  1.3367
15974TIP3   OH269336   3.302   2.553   4.591  0.4485  0.3734  0.0508
15974TIP3    H169337   3.208   2.544   4.572  0.6675 -0.4544 -0.7285
15974TIP3    H269338   3.306   2.581   4.682 -0.5550  0.2260  0.1491
15975TIP3   OH269339   4.530   1.584   4.422  0.0174 -0.3114  0.4206
15975TIP3    H169340   4.554   1.676   4.419 -0.2550 -0.2222  0.8674
15975TIP3    H269341   4.484   1.569   4.339  0.7268 -0.2432  0.0054
15976TIP3   OH269342   5.197   2.562  15.482 -0.0606  0.0265  0.2068
15976TIP3    H169343   5.244   2.568  15.565  0.1800 -0.5864  0.1213
15976TIP3    H269344   5.254   2.509  15.425  0.1944  1.1860 -0.6503
15977TIP3   OH269345   5.469   3.862   3.145  0.2195 -0.0313 -0.2682
15977TIP3    H169346   5.494   3.949   3.114  1.7167 -0.2060  0.3910
15977TIP3    H269347   5.390   3.840   3.094 -1.0155  2.2675  0.5225
15978TIP3   OH269348   1.833   1.747  12.671 -0.5207  0.0999 -0.1633
15978TIP3    H169349   1.764   1.736  12.605 -1.3790 -0.4219  0.7844
15978TIP3    H269350   1.861   1.838  12.661 -1.2514  0.2840 -0.6675
15979TIP3   OH269351   5.226   5.898  16.110  0.3168 -0.0214 -0.6522
15979TIP3    H169352   5.267   5.974  16.150 -0.2173 -1.7068  3.6526
15979TIP3    H269353   5.132   5.912  16.123  0.2219 -1.4104  0.4675
15980TIP3   OH269354   1.184   3.013   6.292 -0.1337 -0.3023  0.2033
15980TIP3    H169355   1.182   3.036   6.200 -0.3822 -0.5238  0.1502
15980TIP3    H269356   1.270   3.040   6.323 -0.0521 -0.2284 -0.0940
15981TIP3   OH269357   5.942   6.341  12.061  0.5495  0.2492 -0.4272
15981TIP3    H169358   5.955   6.434  12.080  0.9886  0.2644 -0.7798
15981TIP3    H269359   5.914   6.304  12.145 -2.0607  1.1206 -0.8287
15982TIP3   OH269360   3.203   3.069   5.409 -1.2056  0.7598 -0.4105
15982TIP3    H169361   3.253   3.142   5.374  0.0753 -0.2139 -0.6832
15982TIP3    H269362   3.217   3.072   5.503  1.5574 -0.9549 -0.6462
15983TIP3   OH269363   2.930   3.818  13.986  0.3404  0.3155 -0.9043
15983TIP3    H169364   2.887   3.853  14.064  1.3599 -0.2331 -0.0738
15983TIP3    H269365   2.872   3.748  13.955  0.3930 -0.1075 -0.0697
15984TIP3   OH269366   4.271   3.461  15.317 -0.9839 -0.8615  0.0561
15984TIP3    H169367   4.280   3.555  15.335  0.6471 -1.3114  1.9401
15984TIP3    H269368   4.319   3.447  15.235  2.8112 -0.6631  2.0318
15985TIP3   OH269369   0.578   5.956  13.878  0.0946 -0.5306 -0.1368
15985TIP3    H169370   0.626   6.039  13.883  1.0670 -1.0203 -0.8812
15985TIP3    H269371   0.501   5.977  13.824  0.7308 -0.2732 -0.9745
15986TIP3   OH269372   3.217   1.506   2.930  0.1855  1.1277  0.0900
15986TIP3    H169373   3.200   1.506   3.024 -1.0980  3.4250 -0.0670
15986TIP3    H269374   3.211   1.598   2.905  0.1818  0.5290 -2.3101
15987TIP3   OH269375   0.119   3.432   5.445  0.4183  0.2320 -0.2311
15987TIP3    H169376   0.067   3.512   5.438  0.2579  0.2990  1.3514
15987TIP3    H269377   0.120   3.412   5.539 -1.5931 -2.9869 -0.7469
15988TIP3   OH269378   1.030   1.170  15.403  0.2396 -0.4773  0.2727
15988TIP3    H169379   0.983   1.086  15.404 -3.0658  1.2244  1.4731
15988TIP3    H269380   1.044   1.188  15.310 -0.9486 -1.4058 -0.1204
15989TIP3   OH269381   0.489   0.294  11.677 -0.2770 -0.3060 -0.6277
15989TIP3    H169382   0.488   0.238  11.755 -1.0735  1.1932  0.5029
15989TIP3    H269383   0.573   0.275  11.636  1.6297  0.9932  2.2902
15990TIP3   OH269384   4.873   5.516   5.803 -0.6446 -0.5567 -0.0701
15990TIP3    H169385   4.953   5.514   5.750 -0.4992  0.4981  0.0936
15990TIP3    H269386   4.808   5.472   5.748 -0.0251 -1.2156 -0.3057
15991TIP3   OH269387   2.872   4.110   5.689 -0.0434 -0.4156  0.2843
15991TIP3    H169388   2.865   4.028   5.640  0.6051 -2.0565  2.7599
15991TIP3    H269389   2.785   4.149   5.685 -0.6528 -1.7761 -0.0238
15992TIP3   OH269390   4.400   1.810  16.111  0.4100  0.0272  0.4409
15992TIP3    H169391   4.350   1.746  16.062 -0.6480  1.5039 -0.4631
15992TIP3    H269392   4.360   1.811  16.198 -0.1145  0.0541  0.2019
15993TIP3   OH269393   5.819   5.017  14.159 -0.2968  0.3265  0.3359
15993TIP3    H169394   5.889   4.951  14.152 -0.1128  0.5567 -0.0727
15993TIP3    H269395   5.848   5.088  14.102  0.4764  1.6508  2.2792
15994TIP3   OH269396   3.657   3.638  16.518 -0.4031 -0.2917  0.0541
15994TIP3    H169397   3.663   3.690  16.598 -1.4037 -1.0954  0.6721
15994TIP3    H269398   3.575   3.666  16.477 -0.0864 -0.1612 -0.5062
15995TIP3   OH269399   0.951   1.296  12.158 -0.1517 -0.1644  0.1641
15995TIP3    H169400   1.004   1.230  12.202 -1.3859 -0.1571  1.7325
15995TIP3    H269401   1.015   1.352  12.113  1.1162 -0.6020  1.3580
15996TIP3   OH269402   0.929   0.314  11.079  0.1528  0.6934 -0.1529
15996TIP3    H169403   0.974   0.247  11.028 -0.0661 -0.0000  0.5545
15996TIP3    H269404   0.843   0.324  11.036 -0.2872 -0.3600  0.4514
15997TIP3   OH269405   0.231   0.062  13.415 -0.2316  0.3204  0.5555
15997TIP3    H169406   0.227   0.154  13.441 -2.5448 -0.1627  2.1519
15997TIP3    H269407   0.151   0.048  13.365  1.9159  0.0392 -3.2146
15998TIP3   OH269408   4.279   6.280  15.219  0.2066 -0.3925  0.0790
15998TIP3    H169409   4.375   6.276  15.217  0.1754 -1.4271 -0.3280
15998TIP3    H269410   4.256   6.338  15.147  0.5070 -1.5032 -0.9568
15999TIP3   OH269411   2.973   0.257  15.869 -0.3147 -0.5284 -0.6508
15999TIP3    H169412   2.957   0.207  15.789 -1.0190  0.9519 -1.5043
15999TIP3    H269413   3.022   0.334  15.839 -0.2257 -0.1586  0.4066
16000TIP3   OH269414   0.810   4.260   5.179 -0.5365  0.0617 -0.0659
16000TIP3    H169415   0.718   4.284   5.196 -0.3495 -0.7460  2.4738
16000TIP3    H269416   0.846   4.243   5.266  1.6257 -1.1541 -1.1465
16001TIP3   OH269417   4.316   5.176   2.519  0.2881  0.5327  1.0621
16001TIP3    H169418   4.258   5.171   2.443  1.3235  0.0080  0.2648
16001TIP3    H269419   4.328   5.084   2.546 -1.6177  0.8230  3.1220
16002TIP3   OH269420   2.598   4.941  15.377 -0.8190 -0.0360 -0.4840
16002TIP3    H169421   2.528   5.005  15.392 -0.9011 -0.4876  1.1728
16002TIP3    H269422   2.674   4.995  15.355 -0.7771  0.6920  1.3104
16003TIP3   OH269423   0.024   1.071  15.851  0.1342  0.1149 -0.0243
16003TIP3    H169424  -0.043   1.028  15.799  0.9054 -0.8441 -0.2468
16003TIP3    H269425   0.030   1.019  15.931  1.6537 -0.7321 -0.6506
16004TIP3   OH269426   4.199   1.169  12.947  0.9127 -0.6114 -0.0103
16004TIP3    H169427   4.198   1.105  13.018  0.9201 -0.0401  0.5169
16004TIP3    H269428   4.171   1.251  12.988  0.6978 -0.3209 -0.7177
16005TIP3   OH269429   5.816   1.886  11.174  0.5144  0.0266  0.7868
16005TIP3    H169430   5.869   1.864  11.251 -0.3670 -0.4542  1.2809
16005TIP3    H269431   5.746   1.941  11.209 -0.5847 -1.1783  0.5694
16006TIP3   OH269432   6.758   3.074   4.655 -0.0591  0.6850 -0.2196
16006TIP3    H169433   6.818   3.000   4.657 -0.8152  0.0639  0.8104
16006TIP3    H269434   6.806   3.144   4.700 -0.3774 -0.0588  1.3589
16007TIP3   OH269435   3.587   4.325   0.554  0.4965  0.2889  0.2242
16007TIP3    H169436   3.548   4.329   0.642  0.5030 -1.3129  0.3247
16007TIP3    H269437   3.539   4.391   0.504 -1.1644 -0.4232  0.7995
16008TIP3   OH269438   3.427   0.665  12.130 -0.2636 -0.0325 -0.1045
16008TIP3    H169439   3.370   0.632  12.060 -0.7507 -1.0202  0.7337
16008TIP3    H269440   3.498   0.601  12.135 -0.2250  0.0377  0.2875
16009TIP3   OH269441   4.303   3.718  11.061  0.0616 -0.1756  0.2791
16009TIP3    H169442   4.314   3.708  11.155 -1.9252  1.1282  0.7041
16009TIP3    H269443   4.328   3.808  11.042 -1.2698  0.1457 -0.0981
16010TIP3   OH269444   6.275   0.181  12.606  0.5138 -0.4932  0.0279
16010TIP3    H169445   6.324   0.148  12.531  0.4669 -0.8186  0.1416
16010TIP3    H269446   6.183   0.168  12.581  0.4736  0.1712 -0.2110
16011TIP3   OH269447   3.474   3.981  15.920  0.3176  0.2152 -0.4329
16011TIP3    H169448   3.513   4.057  15.963  1.5667 -0.0762 -0.9872
16011TIP3    H269449   3.480   4.001  15.827 -0.0474 -0.2352 -0.5575
16012TIP3   OH269450   2.164   0.185  11.835  0.3178 -0.0184  0.7408
16012TIP3    H169451   2.231   0.203  11.901  0.7324  2.2858 -0.2386
16012TIP3    H269452   2.139   0.271  11.801 -1.4737 -0.9831 -0.5740
16013TIP3   OH269453   2.282   5.427   5.199 -0.5138 -0.0162  0.3711
16013TIP3    H169454   2.296   5.520   5.184  1.0639 -0.2446  0.1676
16013TIP3    H269455   2.265   5.420   5.293  1.9802  0.2848  0.9321
16014TIP3   OH269456   3.612   3.367   6.282  0.2368 -0.0478  0.0105
16014TIP3    H169457   3.519   3.385   6.277  0.4063  1.0950  0.7402
16014TIP3    H269458   3.650   3.415   6.208  0.3999  0.6059  0.5131
16015TIP3   OH269459   0.894   0.268   1.144 -0.4344 -0.1355  0.0704
16015TIP3    H169460   0.922   0.215   1.069  0.8686  2.2925 -1.2925
16015TIP3    H269461   0.799   0.277   1.133 -0.5613 -1.5081 -0.0886
16016TIP3   OH269462   3.448   5.967  14.104 -0.1691  0.1892  0.5020
16016TIP3    H169463   3.404   6.039  14.059  0.2145  0.2976  0.2998
16016TIP3    H269464   3.398   5.889  14.080  0.8861  0.0156 -1.3174
16017TIP3   OH269465   1.501   3.770  16.768  0.5382 -0.0508 -0.2843
16017TIP3    H169466   1.440   3.720  16.715  0.4307 -0.6044  0.3383
16017TIP3    H269467   1.588   3.739  16.742  0.4381 -1.6582  1.0920
16018TIP3   OH269468   6.693   2.966  12.923  0.3150  0.3422 -0.3111
16018TIP3    H169469   6.605   2.956  12.886 -0.0928 -0.2050  0.7824
16018TIP3    H269470   6.690   2.920  13.007  1.2507  1.4886  0.3851
16019TIP3   OH269471   2.616   4.252   5.655 -0.4774  0.3674  0.5521
16019TIP3    H169472   2.587   4.174   5.608  1.2660  0.4710 -0.7719
16019TIP3    H269473   2.637   4.316   5.586  1.8915  0.6132  1.4226
16020TIP3   OH269474   0.635   5.623  16.358  0.2176 -0.1546 -0.4361
16020TIP3    H169475   0.717   5.653  16.396 -0.5090  2.3871 -0.6942
16020TIP3    H269476   0.601   5.559  16.421  0.9683  0.9755  1.1820
16021TIP3   OH269477   5.831   2.701  12.035  0.0465 -0.0911 -0.3882
16021TIP3    H169478   5.902   2.662  12.085  0.6237  1.2727 -0.0953
16021TIP3    H269479   5.808   2.634  11.970 -0.8171 -1.9566  1.7092
16022TIP3   OH269480   3.982   5.807  11.206  0.4607  0.3984 -0.3909
16022TIP3    H169481   3.904   5.756  11.228  0.5782 -0.8238 -2.5483
16022TIP3    H269482   4.006   5.850  11.288  0.0097 -2.5148  1.4174
16023TIP3   OH269483   3.265   5.202   2.975 -0.8011  0.6715  0.2850
16023TIP3    H169484   3.174   5.187   3.002  0.0366 -1.6509  2.1470
16023TIP3    H269485   3.303   5.253   3.047  0.1859 -1.3356  1.2698
16024TIP3   OH269486   4.924   3.607  12.509  0.4353  0.0261 -0.4928
16024TIP3    H169487   4.925   3.511  12.505  0.0309  0.0547 -2.2180
16024TIP3    H269488   5.014   3.633  12.489  0.6365  0.0171  0.3606
16025TIP3   OH269489   1.036   5.461  10.930  0.3223 -0.0940  0.1908
16025TIP3    H169490   0.950   5.495  10.955  0.4238 -0.5579  1.2055
16025TIP3    H269491   1.048   5.491  10.840  0.1257  2.0197  0.8215
16026TIP3   OH269492   2.910   3.291   4.936  0.1740 -0.2268 -0.0524
16026TIP3    H169493   2.881   3.202   4.960  0.6965  0.0673  1.8669
16026TIP3    H269494   2.835   3.329   4.891 -0.5224 -1.2167  0.2293
16027TIP3   OH269495   3.144   2.540  14.416 -0.0821 -0.4315 -0.2883
16027TIP3    H169496   3.099   2.495  14.488  0.8429  0.0889  0.6485
16027TIP3    H269497   3.130   2.484  14.340 -0.7573 -1.2001  0.3791
16028TIP3   OH269498   4.234   5.360   1.081  0.4227  0.6158 -0.5926
16028TIP3    H169499   4.305   5.299   1.102  1.3602  1.4374 -1.2859
16028TIP3    H269500   4.228   5.358   0.986 -1.3815 -0.4044 -0.4994
16029TIP3   OH269501   5.544   0.824  16.093  0.2583  0.0891 -1.3315
16029TIP3    H169502   5.631   0.864  16.098 -0.5500  1.8112 -0.1477
16029TIP3    H269503   5.488   0.894  16.060 -1.4390  0.4732  1.9528
16030TIP3   OH269504   5.987   4.460   3.941  0.3989  0.0160  0.1315
16030TIP3    H169505   6.078   4.445   3.914 -0.5088 -1.0146 -2.6945
16030TIP3    H269506   5.943   4.376   3.926 -1.0470  0.4798  1.4794
16031TIP3   OH269507   5.260   3.310   2.770 -0.5616  0.0708  0.1155
16031TIP3    H169508   5.273   3.232   2.717 -1.3279  0.0707 -0.0818
16031TIP3    H269509   5.347   3.350   2.775 -0.4402 -0.0232 -0.9820
16032TIP3   OH269510   0.581   4.749   4.484 -0.2793 -0.3221 -0.2871
16032TIP3    H169511   0.603   4.670   4.534  0.9224  0.1619 -0.0312
16032TIP3    H269512   0.489   4.765   4.505  0.3919  0.4162  2.6175
16033TIP3   OH269513   4.361   0.327  13.267 -0.2796 -0.3603 -0.6933
16033TIP3    H169514   4.441   0.275  13.273 -0.1193 -0.0501 -0.0870
16033TIP3    H269515   4.345   0.357  13.356 -0.9390 -0.2126 -0.8547
16034TIP3   OH269516   6.437   0.360   0.847  0.1579 -0.2347 -0.1308
16034TIP3    H169517   6.481   0.441   0.874 -0.0842 -0.5537  1.2626
16034TIP3    H269518   6.455   0.354   0.753  1.8390  0.4120  0.1216
16035TIP3   OH269519   0.438   4.202   0.835 -0.0897  0.2376  0.0337
16035TIP3    H169520   0.515   4.232   0.786 -1.1785 -1.8683 -3.3170
16035TIP3    H269521   0.366   4.255   0.802 -0.4982  0.5588  1.3683
16036TIP3   OH269522   5.077   4.037   1.764  0.1488  0.1262  0.0992
16036TIP3    H169523   5.146   4.024   1.829  0.5609  0.7416 -0.2090
16036TIP3    H269524   4.996   4.030   1.813  0.4475  0.0792  0.5900
16037TIP3   OH269525   6.454   6.134   2.557  0.1569 -0.0251 -0.7569
16037TIP3    H169526   6.447   6.041   2.535 -1.0544 -0.6053  1.7134
16037TIP3    H269527   6.433   6.180   2.476 -0.5237 -1.9163 -1.7011
16038TIP3   OH269528   3.002   5.926  16.510  0.3486  0.1833  0.1999
16038TIP3    H169529   2.987   5.880  16.592  3.3022  0.8808  1.2403
16038TIP3    H269530   3.088   5.898  16.481  0.3764  1.7350 -1.4236
16039TIP3   OH269531   3.223   5.997  10.625 -0.0137  1.0741 -0.3363
16039TIP3    H169532   3.258   6.001  10.536  1.4063  1.8082  0.2102
16039TIP3    H269533   3.130   5.978  10.614 -0.5681  4.0387 -2.1463
16040TIP3   OH269534   1.603   2.830   2.505 -0.0259 -0.0585  0.5341
16040TIP3    H169535   1.537   2.765   2.528 -0.1817 -0.3549 -0.7054
16040TIP3    H269536   1.629   2.869   2.589 -0.7199 -0.9476  1.1708
16041TIP3   OH269537   2.932   1.417   4.914 -0.2980 -0.2179 -0.1244
16041TIP3    H169538   2.868   1.382   4.852 -0.8193  0.5650 -0.0411
16041TIP3    H269539   2.883   1.482   4.965 -0.2534 -1.7525  1.9987
16042TIP3   OH269540   0.525   1.430   3.590  0.0491  0.0549  0.2027
16042TIP3    H169541   0.506   1.518   3.623  2.2960  0.6897 -0.0352
16042TIP3    H269542   0.585   1.392   3.654 -0.1652 -0.9539 -0.1728
16043TIP3   OH269543   3.862   1.784  11.285  0.2841 -0.3536  0.3992
16043TIP3    H169544   3.882   1.784  11.191  0.9886 -0.8861  0.5440
16043TIP3    H269545   3.929   1.728  11.324  1.6845  1.9940  1.5853
16044TIP3   OH269546   1.391   5.502   3.439 -0.2208  0.3056  0.0976
16044TIP3    H169547   1.296   5.497   3.435 -0.3775  1.2764  1.5802
16044TIP3    H269548   1.409   5.596   3.451  0.9935  0.2880 -1.3098
16045TIP3   OH269549   2.440   3.705  10.875 -0.0018  0.0096  0.3138
16045TIP3    H169550   2.474   3.777  10.822 -1.8647  0.2908 -0.5705
16045TIP3    H269551   2.454   3.627  10.822  0.2078 -0.0333  0.4267
16046TIP3   OH269552   6.662   3.732  16.668  0.0003 -0.1708 -0.6061
16046TIP3    H169553   6.588   3.793  16.670  0.0081 -0.1046 -1.5479
16046TIP3    H269554   6.736   3.782  16.700 -0.6452 -0.7006  1.8908
16047TIP3   OH269555   0.619   4.686   0.888 -0.3311 -0.1408  0.2735
16047TIP3    H169556   0.714   4.680   0.887 -0.3604 -0.9436 -1.3080
16047TIP3    H269557   0.591   4.619   0.951  0.1460  0.7136  1.4312
16048TIP3   OH269558   1.717   5.343  12.675  0.3985  0.2944 -0.1303
16048TIP3    H169559   1.805   5.380  12.675  1.0104 -1.0431  1.4655
16048TIP3    H269560   1.663   5.409  12.719  0.7106  0.8730 -0.6077
16049TIP3   OH269561   0.143   2.186  15.651  0.4555  0.1514  0.2231
16049TIP3    H169562   0.090   2.139  15.715  0.8878  0.6165  0.9398
16049TIP3    H269563   0.214   2.224  15.702  1.6231 -0.6318 -0.7336
16050TIP3   OH269564   2.842   5.793  15.044 -0.2076  0.4698  0.5248
16050TIP3    H169565   2.766   5.736  15.050 -0.8943  1.2734 -0.1389
16050TIP3    H269566   2.899   5.751  14.979 -0.9742  0.8015 -0.3934
16051TIP3   OH269567   6.305   2.029  12.046 -0.3796 -0.3133  0.7109
16051TIP3    H169568   6.253   1.959  12.086  0.7254 -0.5659  1.7582
16051TIP3    H269569   6.335   2.082  12.119 -1.4041  1.4381 -0.0923
16052TIP3   OH269570   5.012   2.762   4.738  0.0999 -0.0905 -0.2089
16052TIP3    H169571   5.033   2.736   4.648 -1.4800 -1.1540 -0.3000
16052TIP3    H269572   4.932   2.813   4.731 -0.7974 -1.3141  0.7044
16053TIP3   OH269573   6.132   1.513   2.155  0.4363 -0.0880  0.3076
16053TIP3    H169574   6.206   1.507   2.094  0.3078 -2.8075  0.3083
16053TIP3    H269575   6.154   1.451   2.225 -1.5978 -0.5834  0.5625
16054TIP3   OH269576   4.391   1.990   1.329 -0.6632  0.8184  0.0984
16054TIP3    H169577   4.348   1.907   1.348  0.8262 -0.6175 -2.3121
16054TIP3    H269578   4.354   2.017   1.244  0.2631  1.6207 -0.0686
16055TIP3   OH269579   0.537   4.930  12.322  0.2270 -0.2308  0.0018
16055TIP3    H169580   0.519   4.877  12.399  1.0872  0.3694  0.6306
16055TIP3    H269581   0.476   4.897  12.256 -0.4141 -0.8549  0.8804
16056TIP3   OH269582   0.497   5.920  12.490  0.5402  0.3235 -0.6060
16056TIP3    H169583   0.414   5.885  12.457 -1.2813  2.1062  1.7600
16056TIP3    H269584   0.532   5.970  12.417 -1.7716  1.5842 -0.9365
16057TIP3   OH269585   4.912   4.340   5.127 -0.0030 -0.6167  0.5508
16057TIP3    H169586   4.866   4.260   5.101 -0.7500 -0.1177  0.2926
16057TIP3    H269587   4.848   4.410   5.114  0.4986 -0.0219  1.1811
16058TIP3   OH269588   4.411   3.453   6.439 -0.4220  0.1715  0.5156
16058TIP3    H169589   4.389   3.375   6.388  0.2189 -1.0244  1.9530
16058TIP3    H269590   4.369   3.526   6.393 -2.4443 -1.2261  0.0132
16059TIP3   OH269591   0.277   3.718  16.188  0.2908 -0.3061 -0.5090
16059TIP3    H169592   0.336   3.650  16.154 -0.1219 -1.1590  0.4394
16059TIP3    H269593   0.279   3.787  16.121  2.7650 -0.0575 -0.2859
16060TIP3   OH269594   2.089   3.465  11.680 -0.3358 -0.0619 -0.3099
16060TIP3    H169595   2.004   3.469  11.637 -0.1526  0.6355 -0.6270
16060TIP3    H269596   2.070   3.434  11.769 -0.6684 -1.9078 -0.9843
16061TIP3   OH269597   6.358   4.351   4.668  0.0754 -0.3313 -0.0554
16061TIP3    H169598   6.369   4.382   4.758 -1.7936 -0.2450  0.1820
16061TIP3    H269599   6.446   4.351   4.632  0.7427  0.5832  1.4668
16062TIP3   OH269600   4.328   4.412  11.704  0.1233  0.0566  0.5058
16062TIP3    H169601   4.416   4.425  11.669  0.3955 -1.2151  0.6704
16062TIP3    H269602   4.339   4.420  11.799 -0.0096  0.2835  0.5017
16063TIP3   OH269603   6.690   1.708  11.754 -0.2153 -0.3900 -0.2967
16063TIP3    H169604   6.675   1.670  11.840  0.9625  0.0469  0.1320
16063TIP3    H269605   6.657   1.798  11.761 -0.0629 -0.3350 -0.2789
16064TIP3   OH269606   2.923   2.381   2.847  0.1478 -0.5006 -0.4371
16064TIP3    H169607   2.967   2.338   2.774  1.7447 -0.5450  0.5211
16064TIP3    H269608   2.952   2.472   2.841 -0.8321 -0.1842 -0.6563
16065TIP3   OH269609   4.829   6.718  11.256  0.1318 -0.2392  0.1974
16065TIP3    H169610   4.865   6.702  11.168  1.2994  1.3580  0.3482
16065TIP3    H269611   4.890   6.674  11.315 -0.5248 -1.1097  0.2549
16066TIP3   OH269612   5.480   3.952   6.555  0.5075  0.3183 -0.0844
16066TIP3    H169613   5.442   3.864   6.550 -2.1949  0.9862  3.8231
16066TIP3    H269614   5.421   4.007   6.504  1.3573  0.1316 -1.3012
16067TIP3   OH269615   3.857   4.893   3.642 -0.1107 -0.1964  0.1213
16067TIP3    H169616   3.804   4.823   3.603 -0.4120  1.0199 -1.7739
16067TIP3    H269617   3.847   4.967   3.582  0.7418  1.2729  1.7165
16068TIP3   OH269618   5.112   5.605  12.613 -0.0365  0.4225 -0.1321
16068TIP3    H169619   5.020   5.632  12.610  0.5277  2.4908 -1.7642
16068TIP3    H269620   5.152   5.660  12.680  0.1273 -0.1366  0.2410
16069TIP3   OH269621   3.614   4.388  13.004  0.3401  0.3824  0.3349
16069TIP3    H169622   3.534   4.375  13.054 -0.1586  1.0875 -0.2378
16069TIP3    H269623   3.668   4.312  13.023 -1.7801 -1.8536 -1.7538
16070TIP3   OH269624   3.417   2.678   3.563  0.1306 -0.1156  0.2220
16070TIP3    H169625   3.386   2.682   3.473 -0.9540 -0.2877  0.5698
16070TIP3    H269626   3.507   2.710   3.559  0.5337 -1.2774 -1.1068
16071TIP3   OH269627   2.803   6.568  12.749 -0.3503  0.4442  0.0478
16071TIP3    H169628   2.815   6.474  12.735 -0.8091  0.4682 -0.5265
16071TIP3    H269629   2.892   6.604  12.743 -0.3383  0.2396 -1.1893
16072TIP3   OH269630   0.526   4.160   4.657  0.3319  0.3201 -0.3533
16072TIP3    H169631   0.457   4.219   4.625 -0.5703 -0.5638 -0.0672
16072TIP3    H269632   0.547   4.194   4.744 -0.2181  0.1997 -0.1694
16073TIP3   OH269633   4.346   2.553   2.249  0.1721  0.2473 -0.2016
16073TIP3    H169634   4.325   2.521   2.337  0.7775 -1.1255 -0.5248
16073TIP3    H269635   4.429   2.599   2.260  0.2097  0.1422 -0.0339
16074TIP3   OH269636   2.184   6.190   0.582  0.0806  0.5093  0.1674
16074TIP3    H169637   2.268   6.224   0.613  0.7334 -0.9268  0.0335
16074TIP3    H269638   2.120   6.255   0.612  0.9616  0.5114  2.2534
16075TIP3   OH269639   2.825   3.764   0.246 -0.0887 -0.0880 -0.2183
16075TIP3    H169640   2.846   3.830   0.179  1.2824 -0.0281  0.2510
16075TIP3    H269641   2.769   3.701   0.200  0.6790  0.0462 -1.3716
16076TIP3   OH269642   6.233   3.908  10.512  0.8893  0.2805  0.0548
16076TIP3    H169643   6.301   3.844  10.494  0.1873 -0.4377 -0.1021
16076TIP3    H269644   6.168   3.860  10.563  0.4979  0.9514  0.1952
16077TIP3   OH269645   5.968   3.319  16.767  0.7086 -0.2401 -0.0104
16077TIP3    H169646   5.902   3.374  16.726  2.1467  1.6990  0.0972
16077TIP3    H269647   5.919   3.249  16.809 -1.1118  0.1655 -1.3538
16078TIP3   OH269648   4.369   6.369   5.118  0.2597  0.2415  0.0426
16078TIP3    H169649   4.445   6.427   5.118 -0.1920  0.8483 -0.7501
16078TIP3    H269650   4.407   6.281   5.124  1.1095  0.4630 -1.4945
16079TIP3   OH269651   1.434   0.603  15.208  0.2244 -0.5179 -0.0594
16079TIP3    H169652   1.404   0.613  15.298 -1.3712 -0.7491 -0.5329
16079TIP3    H269653   1.485   0.681  15.190  2.2873 -1.3765  1.6594
16080TIP3   OH269654   3.515   6.470   0.140 -0.6654 -0.3339  0.3687
16080TIP3    H169655   3.609   6.474   0.156 -0.4570 -0.7971 -0.6778
16080TIP3    H269656   3.485   6.397   0.194 -0.7325  0.8687  2.0324
16081TIP3   OH269657   0.608   1.727  13.540  0.0182  0.3640  1.2204
16081TIP3    H169658   0.676   1.776  13.495  0.6684  0.4779  2.2950
16081TIP3    H269659   0.655   1.658  13.588 -0.8189 -0.9625  0.2258
16082TIP3   OH269660   0.047   3.912  16.828 -0.3181  0.0838 -0.2802
16082TIP3    H169661   0.141   3.893  16.828 -0.0827  1.1751  0.5168
16082TIP3    H269662   0.036   3.980  16.763 -0.3490  0.8350  0.4920
16083TIP3   OH269663   4.225   4.923  13.556 -0.0116  0.5159  0.3283
16083TIP3    H169664   4.131   4.908  13.555 -0.1730  1.0792 -2.4390
16083TIP3    H269665   4.235   5.010  13.595 -0.8043  1.0580 -0.6323
16084TIP3   OH269666   4.730   4.363   3.147  0.2699  0.0374 -0.6336
16084TIP3    H169667   4.815   4.407   3.152  0.7508 -0.9778  0.4093
16084TIP3    H269668   4.672   4.417   3.201  0.5928 -0.0286 -0.2199
16085TIP3   OH269669   1.996   5.275  16.836 -0.3064 -0.1897 -0.2499
16085TIP3    H169670   1.980   5.357  16.883  0.1392  0.0369 -0.4866
16085TIP3    H269671   2.048   5.300  16.760  0.8228 -0.8343  0.2757
16086TIP3   OH269672   3.601   3.605  11.097 -0.0000 -0.1008 -0.3126
16086TIP3    H169673   3.579   3.521  11.137  1.2425  0.3921  1.4842
16086TIP3    H269674   3.531   3.664  11.126  1.2705  0.4342  1.8798
16087TIP3   OH269675   2.869   1.417   0.589  0.0103  0.4442 -0.7523
16087TIP3    H169676   2.959   1.383   0.587 -0.1595 -0.0419 -0.2699
16087TIP3    H269677   2.816   1.342   0.613 -0.5998  0.5981 -1.5709
16088TIP3   OH269678   6.780   6.060   5.511  0.0949 -0.1561 -0.5476
16088TIP3    H169679   6.810   6.069   5.421  0.0685  0.8174 -0.4645
16088TIP3    H269680   6.688   6.035   5.503  0.0440  0.1087 -0.7867
16089TIP3   OH269681   6.760   4.904   2.734  0.4399  0.1938 -0.0644
16089TIP3    H169682   6.714   4.963   2.794  0.4157  1.6969 -1.4676
16089TIP3    H269683   6.694   4.879   2.670  1.3533  2.1087 -1.9100
16090TIP3   OH269684   3.866   1.485  16.970  0.1382 -0.1328 -0.5887
16090TIP3    H169685   3.961   1.491  16.980 -0.0901  1.4420  1.2109
16090TIP3    H269686   3.831   1.549  17.032 -2.1155 -0.6586 -1.2136
16091TIP3   OH269687   0.123   0.089   2.500 -0.1344  0.1725 -0.2120
16091TIP3    H169688   0.042   0.127   2.535  0.5667  1.0427  0.5579
16091TIP3    H269689   0.099   0.002   2.469 -1.5668  0.7995 -0.9300
16092TIP3   OH269690   6.343   4.818  12.454  0.0649 -0.5554  0.0209
16092TIP3    H169691   6.416   4.875  12.429 -1.2659  0.4367 -1.9362
16092TIP3    H269692   6.269   4.878  12.464 -0.6442 -1.6068  1.3568
16093TIP3   OH269693   3.679   6.607  11.970 -0.1803  0.0073  0.0877
16093TIP3    H169694   3.664   6.702  11.970  2.4717  0.5258 -1.2198
16093TIP3    H269695   3.640   6.576  11.889 -0.3901  0.1038  0.1510
16094TIP3   OH269696   4.487   5.206   1.376 -0.6264  0.9448  0.4734
16094TIP3    H169697   4.515   5.207   1.285  0.0938  0.0500  0.6727
16094TIP3    H269698   4.565   5.179   1.425 -0.4172  3.3597  1.5821
16095TIP3   OH269699   6.306   4.966   2.182  0.3334  0.4109 -0.5284
16095TIP3    H169700   6.296   5.018   2.262 -1.0399  0.4959 -0.7231
16095TIP3    H269701   6.266   5.019   2.114  0.1174 -0.3168 -0.9786
16096TIP3   OH269702   6.393   0.551  12.754  0.3446  0.5836 -0.7786
16096TIP3    H169703   6.389   0.540  12.849 -0.2719  2.9644 -0.4550
16096TIP3    H269704   6.471   0.503  12.727  1.8321  1.6910  1.2625
16097TIP3   OH269705   5.458   0.374   4.642 -0.0702 -0.2651  0.2741
16097TIP3    H169706   5.449   0.418   4.557 -0.7290  0.2203  0.5852
16097TIP3    H269707   5.445   0.281   4.623 -0.1477 -0.1682 -0.1584
16098TIP3   OH269708   2.243   4.401   2.864 -0.1878  0.3545 -0.8707
16098TIP3    H169709   2.261   4.490   2.894  2.3133 -0.0829 -0.8833
16098TIP3    H269710   2.226   4.352   2.945  0.4635  0.4421 -0.6733
16099TIP3   OH269711   2.206   2.597   0.379 -0.2930 -0.3719  0.1268
16099TIP3    H169712   2.137   2.645   0.334  0.8131 -0.5085 -1.8022
16099TIP3    H269713   2.276   2.588   0.315  3.0111  2.6371  2.8600
16100TIP3   OH269714   0.947   5.332  17.028 -0.2431  0.1130  0.2946
16100TIP3    H169715   0.910   5.245  17.042 -0.7188  0.1900 -0.4332
16100TIP3    H269716   0.981   5.357  17.114  1.5676 -1.5190  0.1320
16101TIP3   OH269717   4.666   3.466   1.050  0.0343 -0.3070  0.4646
16101TIP3    H169718   4.716   3.402   0.999 -0.1796 -0.6630  0.7018
16101TIP3    H269719   4.576   3.455   1.021  0.2102  1.1017 -0.7810
16102TIP3   OH269720   5.938   2.275   0.773  0.3611  0.2338 -0.2038
16102TIP3    H169721   5.887   2.207   0.818  0.6819 -0.1280 -0.3805
16102TIP3    H269722   5.980   2.324   0.844 -0.5350  0.7851 -0.0410
16103TIP3   OH269723   6.252   6.154  17.095  0.3958  0.0544 -0.6824
16103TIP3    H169724   6.231   6.079  17.040  2.3241 -1.5393  0.6019
16103TIP3    H269725   6.322   6.200  17.049  1.1450 -0.5686 -0.1938
16104TIP3   OH269726   1.027   1.557  14.888  0.3227  0.2219  0.4385
16104TIP3    H169727   0.988   1.644  14.883 -0.4900 -0.1563 -0.0957
16104TIP3    H269728   1.110   1.565  14.841 -0.0193  0.5812 -0.1267
16105TIP3   OH269729   2.735   0.353  15.583  0.4945  0.3106  0.3434
16105TIP3    H169730   2.716   0.425  15.643 -2.0515  0.4670 -0.5022
16105TIP3    H269731   2.763   0.396  15.502  2.1591  0.1717  0.8154
16106TIP3   OH269732   5.673   3.534   5.727  0.2728 -0.1341 -0.1757
16106TIP3    H169733   5.766   3.522   5.708 -0.0341  0.8218 -2.6010
16106TIP3    H269734   5.660   3.629   5.724 -0.7253 -0.2319  0.5289
16107TIP3   OH269735   3.549   2.349  16.124 -0.1858 -0.5670 -0.0404
16107TIP3    H169736   3.465   2.388  16.150  0.1099  0.7847 -0.9767
16107TIP3    H269737   3.525   2.279  16.063 -0.6417 -0.0986 -0.4151
16108TIP3   OH269738   4.416   5.781   2.596  0.0432 -0.0028 -0.7340
16108TIP3    H169739   4.474   5.782   2.519 -0.5106  0.6302 -1.1555
16108TIP3    H269740   4.363   5.860   2.587 -0.4720 -0.2565 -0.0298
16109TIP3   OH269741   0.096   2.499  12.482  0.8230  0.7756  0.2267
16109TIP3    H169742   0.131   2.539  12.562 -0.2238 -0.6345  1.4443
16109TIP3    H269743   0.174   2.482  12.427  1.6326  1.1719  1.2249
16110TIP3   OH269744   1.931   0.020  16.592 -0.4753 -0.3012 -0.1468
16110TIP3    H169745   2.012   0.070  16.586  0.1275 -0.6715  3.0875
16110TIP3    H269746   1.873   0.062  16.528  0.9487  2.5939  0.2712
16111TIP3   OH269747   1.003   4.771   3.392  0.7858 -0.4356  0.8072
16111TIP3    H169748   0.953   4.771   3.474 -0.5565 -1.6433  0.0159
16111TIP3    H269749   0.983   4.855   3.352  1.4966  0.1920  1.7061
16112TIP3   OH269750   6.475   3.989   1.881  0.1866 -0.1603 -0.3069
16112TIP3    H169751   6.397   3.978   1.827  0.2389 -0.9098 -0.2373
16112TIP3    H269752   6.478   4.083   1.900 -0.6788 -0.1235 -0.3346
16113TIP3   OH269753   4.924   3.141  15.117 -0.1754 -0.0769 -0.0246
16113TIP3    H169754   4.983   3.187  15.177 -1.0031  0.7399  0.1831
16113TIP3    H269755   4.872   3.210  15.077  0.1452 -0.6441 -1.4699
16114TIP3   OH269756   4.675   1.439   5.299 -0.0772  0.2191 -0.0040
16114TIP3    H169757   4.674   1.493   5.220  1.7171  1.0135  0.4588
16114TIP3    H269758   4.706   1.353   5.270  0.4745  0.4787 -0.1954
16115TIP3   OH269759   1.372   4.295  15.455 -0.0785 -0.2019 -0.1526
16115TIP3    H169760   1.337   4.380  15.426  0.6617  0.2500  0.2386
16115TIP3    H269761   1.304   4.259  15.511  0.4061  1.0552  1.3041
16116TIP3   OH269762   4.916   4.980  16.806 -0.4146 -0.1993  0.2288
16116TIP3    H169763   4.863   5.057  16.786 -0.1270 -0.1636 -0.4479
16116TIP3    H269764   4.908   4.924  16.728  0.8215 -0.0263 -0.0522
16117TIP3   OH269765   1.344   1.133  15.527  0.3742 -0.2164  0.3338
16117TIP3    H169766   1.361   1.070  15.457 -0.5752 -1.1820  0.9266
16117TIP3    H269767   1.332   1.217  15.483  2.5136 -0.2521 -0.4135
16118TIP3   OH269768   3.738   2.130   3.883  0.5937  0.3594 -0.7303
16118TIP3    H169769   3.685   2.210   3.891  0.2295 -0.0298  1.5725
16118TIP3    H269770   3.779   2.120   3.969  1.8392 -1.1308 -1.4510
16119TIP3   OH269771   5.681   5.075   1.615  0.2954  0.3488  0.6383
16119TIP3    H169772   5.603   5.085   1.669  0.1061 -0.2458  0.4865
16119TIP3    H269773   5.753   5.104   1.670 -0.0585  1.1567  0.6902
16120TIP3   OH269774   4.238   6.071  15.663  0.0993 -0.8050  0.4358
16120TIP3    H169775   4.229   6.082  15.568  0.7469 -0.4610  0.4106
16120TIP3    H269776   4.286   5.989  15.673 -1.0801 -1.5056  0.5095
16121TIP3   OH269777   2.589   1.224   2.164  0.1674  0.0182 -0.1070
16121TIP3    H169778   2.594   1.311   2.125 -3.3376 -0.9674 -3.3641
16121TIP3    H269779   2.636   1.167   2.103 -1.5625 -0.9676 -0.5767
16122TIP3   OH269780   5.504   3.867   0.795 -0.4751 -0.7352  0.0959
16122TIP3    H169781   5.419   3.862   0.840 -1.0702 -0.7309 -0.9959
16122TIP3    H269782   5.552   3.791   0.828 -1.8787 -2.2455 -1.1529
16123TIP3   OH269783   2.260   4.696  11.141  0.6785 -0.2411 -0.1927
16123TIP3    H169784   2.347   4.700  11.180  0.4799  0.4063  0.1940
16123TIP3    H269785   2.270   4.740  11.056  0.4851  0.8514  0.3314
16124TIP3   OH269786   2.307   1.309  14.092  0.6776  0.2299 -0.6556
16124TIP3    H169787   2.299   1.268  14.006 -0.6153  0.7140 -0.7832
16124TIP3    H269788   2.312   1.236  14.153 -3.7212 -0.3161 -0.6699
16125TIP3   OH269789   5.168   6.148  11.208 -0.0526 -0.2725  0.2632
16125TIP3    H169790   5.116   6.083  11.256  0.5712 -1.1084 -0.1450
16125TIP3    H269791   5.205   6.098  11.134  1.1225  0.3393  0.4196
16126TIP3   OH269792   2.527   5.586   1.187  0.2893  0.6622  0.1759
16126TIP3    H169793   2.520   5.496   1.154  1.0997  0.0890  1.4672
16126TIP3    H269794   2.608   5.619   1.149  0.2919  0.6312  0.1542
16127TIP3   OH269795   5.056   6.694  12.746  0.3345 -0.1846  0.0583
16127TIP3    H169796   5.012   6.777  12.764 -1.1527 -1.1733  1.1944
16127TIP3    H269797   5.122   6.686  12.815  0.5867  0.1174 -0.1458
16128TIP3   OH269798   5.594   1.876  16.178  0.7467 -0.1057 -0.2670
16128TIP3    H169799   5.509   1.914  16.200  1.1652 -0.1699  1.5973
16128TIP3    H269800   5.651   1.901  16.251  1.3199 -3.3614  0.5462
16129TIP3   OH269801   5.035   5.130  15.230 -0.1119  0.0691 -0.3042
16129TIP3    H169802   5.019   5.039  15.204  0.0619 -0.3515  0.9976
16129TIP3    H269803   5.054   5.125  15.323  1.1656  1.3041 -0.4661
16130TIP3   OH269804   0.618   0.074   0.429 -0.1502 -0.7872 -0.5829
16130TIP3    H169805   0.563   0.109   0.359 -0.0687 -1.9607 -1.2670
16130TIP3    H269806   0.705   0.110   0.411  0.4166 -2.8603 -2.5181
16131TIP3   OH269807   4.314   1.171   5.300 -0.3741 -0.6822 -0.2165
16131TIP3    H169808   4.332   1.159   5.207 -2.3139 -0.1893 -0.6983
16131TIP3    H269809   4.388   1.223   5.332  0.5528 -1.2436 -1.3555
16132TIP3   OH269810   1.438   3.558  16.999  0.2110  0.3277 -0.1547
16132TIP3    H169811   1.425   3.645  16.961  0.9120  1.1716  1.4470
16132TIP3    H269812   1.356   3.539  17.044 -0.0525  0.0134 -0.7588
16133TIP3   OH269813   6.482   3.871   5.029  0.1439  0.0061 -0.5629
16133TIP3    H169814   6.520   3.845   5.113 -1.3872 -0.3984  0.0322
16133TIP3    H269815   6.482   3.967   5.032 -0.7652  0.0009  0.3294
16134TIP3   OH269816   0.288   2.772  12.308 -0.7944  0.0271 -0.7992
16134TIP3    H169817   0.287   2.861  12.344 -0.5235 -0.4854  0.5589
16134TIP3    H269818   0.309   2.717  12.383 -1.2583 -1.2180 -1.5578
16135TIP3   OH269819   1.482   4.285  14.010 -0.5912 -0.2939 -0.6018
16135TIP3    H169820   1.557   4.330  13.970 -0.3314  0.9769  1.1480
16135TIP3    H269821   1.419   4.275  13.939  0.7942 -0.4194 -1.8777
16136TIP3   OH269822   0.149   1.970   4.514  0.0946  0.6717  0.0443
16136TIP3    H169823   0.179   1.910   4.446  2.1185 -0.8169  2.0994
16136TIP3    H269824   0.183   2.056   4.487 -3.9983  1.4656 -3.6563
16137TIP3   OH269825   2.101   6.624   3.978 -0.2122  0.4832  0.0535
16137TIP3    H169826   2.014   6.631   4.018 -0.7555  0.1286 -1.0232
16137TIP3    H269827   2.101   6.537   3.938  0.0409  1.0802 -1.2912
16138TIP3   OH269828   4.241   3.570   2.589 -0.2033 -0.2266 -0.3866
16138TIP3    H169829   4.150   3.565   2.559 -0.2444 -0.3002 -0.2531
16138TIP3    H269830   4.268   3.478   2.598 -0.1111 -0.2053 -0.4377
16139TIP3   OH269831   1.186   2.775   3.294 -0.7264  0.3045  0.3818
16139TIP3    H169832   1.106   2.828   3.295 -1.0740 -0.2213  0.7937
16139TIP3    H269833   1.226   2.794   3.209 -1.4384  0.3589  0.0542
16140TIP3   OH269834   4.513   0.248   2.045  0.2535  0.0310  0.7996
16140TIP3    H169835   4.486   0.335   2.074  1.3571 -0.1273  2.4031
16140TIP3    H269836   4.468   0.188   2.105 -1.0576 -0.5817 -0.7250
16141TIP3   OH269837   5.629   4.327   4.482  0.0518  0.1914  0.0760
16141TIP3    H169838   5.625   4.413   4.525  1.3461  0.5025 -0.3997
16141TIP3    H269839   5.661   4.268   4.550 -2.7600 -0.3912  1.0350
16142TIP3   OH269840   4.881   4.387  15.787 -0.4985  0.2815 -0.1212
16142TIP3    H169841   4.966   4.429  15.799 -0.3075  0.0531 -0.6246
16142TIP3    H269842   4.886   4.307  15.840 -0.0862 -0.1488 -0.7880
16143TIP3   OH269843   0.696   0.758   3.603 -0.0947  0.0501 -0.1249
16143TIP3    H169844   0.781   0.722   3.628 -0.0721 -0.0293 -0.3155
16143TIP3    H269845   0.717   0.842   3.561 -0.2099  0.8082  1.2721
16144TIP3   OH269846   3.374   6.716   3.838 -0.0634  0.6223 -0.0052
16144TIP3    H169847   3.433   6.677   3.775 -0.0995 -0.6238  0.6976
16144TIP3    H269848   3.308   6.648   3.854  0.1369  0.7690  1.5956
16145TIP3   OH269849   6.533   3.685   1.538 -0.6623  1.1380 -0.5681
16145TIP3    H169850   6.600   3.749   1.562 -1.4887  2.1771 -0.8905
16145TIP3    H269851   6.579   3.617   1.491  0.6619  0.1652  1.9745
16146TIP3   OH269852   4.170   4.614  13.806  0.7673  0.3322  0.1493
16146TIP3    H169853   4.127   4.550  13.863  1.7791 -0.4353  0.1011
16146TIP3    H269854   4.206   4.679  13.866 -1.0229  1.3673  0.1435
16147TIP3   OH269855   5.876   2.793  13.954  0.4952 -0.0543 -0.3317
16147TIP3    H169856   5.849   2.883  13.973 -2.3968 -0.9683  0.3893
16147TIP3    H269857   5.826   2.768  13.877 -0.8198 -1.8169  0.9838
16148TIP3   OH269858   6.508   0.198   5.391 -0.0555  0.2609 -0.6682
16148TIP3    H169859   6.538   0.121   5.441  1.0661  1.1668  0.1053
16148TIP3    H269860   6.484   0.262   5.457 -0.7181  0.6987 -1.3132
16149TIP3   OH269861   1.094   1.739   1.844 -0.3260 -0.1945 -0.5051
16149TIP3    H169862   1.074   1.818   1.895 -1.7518 -1.2017  0.6038
16149TIP3    H269863   1.186   1.721   1.863  0.1089  1.3680 -1.0393
16150TIP3   OH269864   1.224   5.006  13.522  0.3703  0.1145 -0.0444
16150TIP3    H169865   1.220   5.090  13.476  0.3466  0.0056 -0.2440
16150TIP3    H269866   1.194   4.942  13.457 -0.6445  0.0814  0.4496
16151TIP3   OH269867   2.551   0.573   6.205 -0.7615 -0.2438 -0.4868
16151TIP3    H169868   2.624   0.602   6.151  0.7792 -1.3122  0.9136
16151TIP3    H269869   2.525   0.489   6.168 -1.3323  0.1602 -1.0160
16152TIP3   OH269870   1.132   2.856  16.208 -0.1548 -0.0085  0.6192
16152TIP3    H169871   1.140   2.764  16.179  0.5754  0.3823 -0.5053
16152TIP3    H269872   1.197   2.864  16.277  0.3913 -0.1289  0.1298
16153TIP3   OH269873   0.546   4.227   1.292  0.4022 -0.0025  0.4048
16153TIP3    H169874   0.634   4.250   1.319  0.2962  0.7043  0.1636
16153TIP3    H269875   0.533   4.272   1.209  0.2166 -1.0149 -0.1282
16154TIP3   OH269876   0.643   5.688  11.730 -0.1954 -0.4673 -0.1141
16154TIP3    H169877   0.736   5.679  11.707 -0.5447 -0.2931 -1.7131
16154TIP3    H269878   0.619   5.775  11.698 -1.2040 -1.0000 -0.8502
16155TIP3   OH269879   2.836   1.211  16.398  0.6557  0.1180  0.0775
16155TIP3    H169880   2.915   1.222  16.346  0.1711  0.7950 -0.5468
16155TIP3    H269881   2.776   1.278  16.364  0.0765  0.1048  1.0342
16156TIP3   OH269882   5.055   3.374  11.581  0.1718  0.2989 -0.1945
16156TIP3    H169883   5.015   3.336  11.659  0.3376 -0.1502 -0.3296
16156TIP3    H269884   5.148   3.356  11.591  0.2698  0.7711 -0.2045
16157TIP3   OH269885   3.301   5.772  13.979 -0.2273  0.0485 -0.0881
16157TIP3    H169886   3.301   5.676  13.972 -2.5294  0.0306 -0.8940
16157TIP3    H269887   3.282   5.802  13.891 -1.2240  1.1600  0.4757
16158TIP3   OH269888   0.181   1.009   3.854 -0.1643 -0.1546  0.1517
16158TIP3    H169889   0.170   0.925   3.898 -0.0195 -0.3884 -0.2522
16158TIP3    H269890   0.235   1.061   3.914 -1.5771  0.2204  1.1317
16159TIP3   OH269891   3.233   5.097  16.826  0.4737 -0.0316 -0.2586
16159TIP3    H169892   3.183   5.176  16.845  1.1661  0.0898  1.2452
16159TIP3    H269893   3.269   5.111  16.739 -0.6193  0.6446 -0.6217
16160TIP3   OH269894   6.376   4.241  12.168 -0.5708 -0.4039  0.4185
16160TIP3    H169895   6.394   4.302  12.240  0.4015 -0.3375  0.1323
16160TIP3    H269896   6.449   4.253  12.108 -2.1633  0.7450 -1.4374
16161TIP3   OH269897   3.471   2.159   3.389  0.1451  0.3821  0.1534
16161TIP3    H169898   3.432   2.241   3.358 -0.4045  0.4236  0.9466
16161TIP3    H269899   3.548   2.188   3.439  2.6796  0.2387 -3.2950
16162TIP3   OH269900   1.057   0.380   0.453  0.0674  0.3117  0.2070
16162TIP3    H169901   1.049   0.475   0.466 -0.5916  0.4372 -0.9133
16162TIP3    H269902   1.146   0.368   0.420 -0.1654  0.6906 -0.6095
16163TIP3   OH269903   5.117   6.637   4.655  0.0310  0.0933  0.3035
16163TIP3    H169904   5.152   6.666   4.570  1.3270  0.3124  0.9014
16163TIP3    H269905   5.182   6.577   4.689 -0.7910 -0.4892  0.8746
16164TIP3   OH269906   6.476   5.922   0.585 -0.4152  0.2142 -0.1656
16164TIP3    H169907   6.460   5.882   0.671  0.2654 -2.0731 -1.0161
16164TIP3    H269908   6.419   5.998   0.583 -1.8140 -0.7028  1.6297
16165TIP3   OH269909   5.151   5.516   2.539 -0.0055  0.0251  0.1209
16165TIP3    H169910   5.150   5.428   2.501 -0.6175 -0.1768  0.5827
16165TIP3    H269911   5.179   5.573   2.468  0.9339 -0.6114 -0.0259
16166TIP3   OH269912   6.613   3.844   4.289 -0.1194  0.0951  0.2204
16166TIP3    H169913   6.626   3.799   4.205 -2.6012  0.6189 -0.5282
16166TIP3    H269914   6.595   3.773   4.351  1.7817 -0.3006  0.3914
16167TIP3   OH269915   4.204   2.980  11.126  1.1429  0.0481  0.5602
16167TIP3    H169916   4.141   3.052  11.126  2.1221  0.9976 -1.2697
16167TIP3    H269917   4.224   2.965  11.218 -0.8067  0.5365  1.1069
16168TIP3   OH269918   3.302   4.604  10.655 -0.1885  0.0107 -0.7386
16168TIP3    H169919   3.255   4.521  10.651  2.0522 -1.4540  1.1151
16168TIP3    H269920   3.252   4.657  10.717 -0.3581 -0.8536 -0.1254
16169TIP3   OH269921   5.149   4.434  15.237 -0.8713  0.2744  0.2781
16169TIP3    H169922   5.063   4.422  15.198 -1.0072 -0.5391  0.8110
16169TIP3    H269923   5.210   4.416  15.166 -1.0655 -3.2165  0.8253
16170TIP3   OH269924   4.280   5.456   2.099 -0.6076  0.2314 -0.7341
16170TIP3    H169925   4.351   5.436   2.038 -1.8961  1.5210 -2.7585
16170TIP3    H269926   4.310   5.533   2.147  1.2994 -1.9615  1.9351
16171TIP3   OH269927   3.958   2.052   1.269 -0.2861 -0.6203 -0.0914
16171TIP3    H169928   3.920   2.116   1.209 -3.1615 -0.5824  1.5862
16171TIP3    H269929   4.041   2.091   1.296 -1.4647  1.9513  0.0764
16172TIP3   OH269930   3.610   3.091   4.535  0.2109 -0.6561  0.1911
16172TIP3    H169931   3.697   3.059   4.512 -0.2214 -1.4789 -0.3594
16172TIP3    H269932   3.588   3.042   4.615  0.7531  0.4697  1.0471
16173TIP3   OH269933   0.236   4.796   5.858  0.3939 -0.4553 -0.4092
16173TIP3    H169934   0.171   4.866   5.861  1.3224  0.4598 -1.1080
16173TIP3    H269935   0.313   4.833   5.900  0.7148 -1.2740 -0.2485
16174TIP3   OH269936   3.688   4.347  16.952  0.2002 -0.8851 -0.0676
16174TIP3    H169937   3.782   4.328  16.957  0.5218  0.7017  0.5158
16174TIP3    H269938   3.646   4.263  16.970  1.4947 -1.6692 -0.5214
16175TIP3   OH269939   3.884   5.997  12.786  0.0332 -0.1373 -0.4611
16175TIP3    H169940   3.918   5.909  12.802 -2.2416 -0.8823  0.7463
16175TIP3    H269941   3.923   6.051  12.856 -3.1839 -1.5786  2.7746
16176TIP3   OH269942   2.532   1.118   3.375  0.1733 -0.1135 -0.0752
16176TIP3    H169943   2.517   1.169   3.295 -1.3861 -1.3151 -0.5911
16176TIP3    H269944   2.549   1.029   3.344  1.0351 -0.2977  0.8846
16177TIP3   OH269945   6.386   0.020  12.000  0.1844 -0.6061  0.0535
16177TIP3    H169946   6.463   0.077  11.992 -0.1158 -0.3079 -0.8211
16177TIP3    H269947   6.354   0.011  11.910 -1.4417  0.1564  0.5199
16178TIP3   OH269948   6.526   2.256   2.913  0.7264  0.2592  0.0721
16178TIP3    H169949   6.435   2.226   2.919  0.7307  0.2134 -0.0762
16178TIP3    H269950   6.554   2.228   2.826  0.8575  0.3445  0.0874
16179TIP3   OH269951   3.296   6.801  14.774 -0.0999  0.4602 -0.4929
16179TIP3    H169952   3.383   6.838  14.763  0.3709 -0.7843 -1.0465
16179TIP3    H269953   3.299   6.757  14.859 -0.3519  0.8282 -0.2881
16180TIP3   OH269954   4.992   3.445   1.529 -0.1889 -0.0290  0.0346
16180TIP3    H169955   5.058   3.379   1.505 -2.0303 -1.9305 -0.1399
16180TIP3    H269956   4.930   3.444   1.456 -0.3229  1.8762  0.0837
16181TIP3   OH269957   2.740   6.434  14.206 -0.3533  0.5616  0.0975
16181TIP3    H169958   2.689   6.411  14.284  2.0228 -2.5955  0.9483
16181TIP3    H269959   2.683   6.409  14.133 -0.8905 -0.8807  0.9589
16182TIP3   OH269960   0.338   6.416   3.936  0.1236  0.3492 -0.6525
16182TIP3    H169961   0.389   6.460   3.868 -2.3660  1.1327 -2.1449
16182TIP3    H269962   0.270   6.479   3.961 -1.7233 -1.4975 -0.6666
16183TIP3   OH269963   0.598   0.535  10.778  0.6393 -0.6261 -0.6643
16183TIP3    H169964   0.688   0.512  10.803  0.1172 -1.6121  0.3999
16183TIP3    H269965   0.543   0.488  10.841 -0.5938  1.3505 -0.1909
16184TIP3   OH269966   6.384   5.941  15.171 -0.3829 -0.7156  0.0917
16184TIP3    H169967   6.460   5.990  15.141 -0.6339 -1.5855 -2.1344
16184TIP3    H269968   6.417   5.889  15.245  0.9701 -0.4889 -0.3244
16185TIP3   OH269969   3.288   0.984  14.677 -0.0783 -0.3966 -0.3360
16185TIP3    H169970   3.365   1.017  14.631 -0.2169  0.4939  0.0599
16185TIP3    H269971   3.297   0.889  14.673  2.5296 -0.3840  2.1483
16186TIP3   OH269972   2.212   0.147   1.963 -0.2299  0.2282 -0.3834
16186TIP3    H169973   2.200   0.167   1.870 -0.8710  2.5032  0.1053
16186TIP3    H269974   2.123   0.131   1.995 -0.1852  0.8444  0.0773
16187TIP3   OH269975   3.285   1.189  14.832  0.4001  0.4040  0.2779
16187TIP3    H169976   3.266   1.128  14.760  1.1586  1.5240 -0.9247
16187TIP3    H269977   3.208   1.247  14.835  0.5992  0.6884 -0.0045
16188TIP3   OH269978   1.786   2.385  14.044 -0.2221 -0.6773  0.2267
16188TIP3    H169979   1.778   2.476  14.016 -1.2851 -0.8148  0.0245
16188TIP3    H269980   1.719   2.376  14.112  1.9866 -0.4737  2.5700
16189TIP3   OH269981   4.787   4.709  10.811 -0.4648 -0.4471  0.2203
16189TIP3    H169982   4.849   4.683  10.880 -0.7985 -0.8383  0.3774
16189TIP3    H269983   4.834   4.692  10.730 -0.6800 -1.6145  0.3154
16190TIP3   OH269984   4.324   5.251  11.524 -0.6061  0.1931 -0.1628
16190TIP3    H169985   4.289   5.260  11.613  0.2200 -0.3361  0.2298
16190TIP3    H269986   4.404   5.304  11.524 -0.4839  0.0106 -0.5212
16191TIP3   OH269987   3.990   2.355   3.079  0.1968  0.1229 -0.4593
16191TIP3    H169988   4.041   2.361   3.160 -0.5871 -0.8946  0.1326
16191TIP3    H269989   4.052   2.321   3.014  1.0065  1.5615 -0.4813
16192TIP3   OH269990   3.078   4.722   4.994 -0.3146 -0.1074  0.2842
16192TIP3    H169991   3.123   4.801   5.024 -1.2056  0.4562  0.1608
16192TIP3    H269992   3.127   4.650   5.034  1.6995  0.3802 -1.1462
16193TIP3   OH269993   3.663   2.345   1.255 -0.4565  0.3150 -0.2819
16193TIP3    H169994   3.707   2.273   1.209 -1.2444  1.1256 -2.4333
16193TIP3    H269995   3.588   2.304   1.298  0.7697 -0.6047  1.1205
16194TIP3   OH269996   1.755   5.047   5.280 -0.6375 -0.1069  0.0831
16194TIP3    H169997   1.840   5.084   5.305 -0.2567 -0.9492  0.0734
16194TIP3    H269998   1.777   4.963   5.240 -1.3046  0.6636 -2.0057
16195TIP3   OH269999   4.292   5.464   3.148 -0.3609 -0.0603 -0.1280
16195TIP3    H170000   4.357   5.397   3.170  0.4402  0.2967 -1.3118
16195TIP3    H270001   4.272   5.449   3.056 -1.1090  0.5676 -0.0826
16196TIP3   OH270002   5.748   4.562  12.037  0.4042 -0.0433  0.3084
16196TIP3    H170003   5.770   4.649  12.005 -0.2448  0.6006  1.5360
16196TIP3    H270004   5.810   4.547  12.109 -1.4412  0.7713  2.1890
16197TIP3   OH270005   1.188   4.989   3.531  0.6326  0.5207 -0.5731
16197TIP3    H170006   1.117   5.042   3.493  0.3013 -0.6365 -1.6193
16197TIP3    H270007   1.143   4.924   3.585  1.1010  2.2201  2.0338
16198TIP3   OH270008   2.863   4.871   0.627  0.1133 -0.2449 -0.3401
16198TIP3    H170009   2.907   4.943   0.672  1.1320 -0.3259 -1.1733
16198TIP3    H270010   2.892   4.878   0.536  0.2381 -1.6933 -0.4387
16199TIP3   OH270011   3.062   0.397   4.827 -0.0572  0.3318  0.2944
16199TIP3    H170012   3.107   0.429   4.904 -1.3484  0.5894  0.9746
16199TIP3    H270013   3.079   0.463   4.759  1.4211 -0.1055  0.2193
16200TIP3   OH270014   6.581   4.970  12.810 -0.1173  0.4066  0.0298
16200TIP3    H170015   6.521   4.895  12.808  1.4102 -0.9213  0.9287
16200TIP3    H270016   6.530   5.041  12.846 -0.9246 -0.9558  1.7153
16201TIP3   OH270017   6.307   1.046   4.136 -0.0508 -1.1377 -0.0860
16201TIP3    H170018   6.350   1.008   4.059 -0.0875  1.2798 -1.3727
16201TIP3    H270019   6.378   1.087   4.185 -0.4366  0.2617 -0.6478
16202TIP3   OH270020   4.639   1.842   4.555  0.5090  0.4818  0.4161
16202TIP3    H170021   4.628   1.925   4.508 -1.1018 -0.1274 -0.3469
16202TIP3    H270022   4.584   1.852   4.633 -1.3137 -0.5350 -0.6545
16203TIP3   OH270023   5.735   0.550   0.895  0.0072  0.0021 -0.4163
16203TIP3    H170024   5.742   0.641   0.866 -0.8715 -0.5359 -2.4884
16203TIP3    H270025   5.693   0.504   0.823 -0.4609 -1.8911  0.9606
16204TIP3   OH270026   5.888   5.592  14.102 -0.2847  0.3355  0.7932
16204TIP3    H170027   5.908   5.664  14.161  2.2592  0.5022 -0.1288
16204TIP3    H270028   5.964   5.587  14.043 -1.6041 -1.3466 -0.9236
16205TIP3   OH270029   4.461   4.633   5.374  0.0758 -0.7388  0.1229
16205TIP3    H170030   4.479   4.680   5.456  1.1658  0.2115 -0.6355
16205TIP3    H270031   4.534   4.572   5.364  1.1539  0.6824 -1.2041
16206TIP3   OH270032   6.695   5.213  11.277  0.9351  0.1601  0.1463
16206TIP3    H170033   6.748   5.198  11.356  2.6571  0.4162 -0.8963
16206TIP3    H270034   6.745   5.171  11.207 -0.4075  0.1891 -0.8678
16207TIP3   OH270035   3.841   5.419   1.118 -0.3727 -0.1588 -0.5901
16207TIP3    H170036   3.804   5.502   1.149  1.7388  0.4547  0.4443
16207TIP3    H270037   3.808   5.410   1.028 -1.7276  1.0878 -0.2575
16208TIP3   OH270038   6.122   4.052   2.251 -0.0765 -0.2853 -0.5715
16208TIP3    H170039   6.135   3.994   2.175 -0.1177  1.4170 -1.9457
16208TIP3    H270040   6.032   4.035   2.279  0.0893 -1.2676 -0.5910
16209TIP3   OH270041   1.118   1.320   0.083 -0.1470 -0.6930  0.1256
16209TIP3    H170042   1.105   1.230   0.053  1.7513 -1.3344  1.0243
16209TIP3    H270043   1.120   1.313   0.179  1.8502 -0.0484  0.1800
16210TIP3   OH270044   1.888   2.079   3.124  0.4964  0.5307  0.4408
16210TIP3    H170045   1.920   1.994   3.156 -0.8556 -0.6860 -1.2618
16210TIP3    H270046   1.967   2.124   3.092  0.8719 -1.5967 -1.9258
16211TIP3   OH270047   0.524   1.564   1.073  0.0983 -0.0124 -0.2877
16211TIP3    H170048   0.491   1.504   1.140 -0.8031  0.6078 -0.1568
16211TIP3    H270049   0.493   1.650   1.102  3.1708  0.8894  0.7392
16212TIP3   OH270050   1.487   6.626   3.501  0.3557 -0.1932 -0.3148
16212TIP3    H170051   1.472   6.712   3.461  0.7121 -0.4095 -0.9236
16212TIP3    H270052   1.447   6.633   3.588 -0.3321  0.3282 -0.6567
16213TIP3   OH270053   1.769   1.190   0.496 -0.4450 -0.4332  0.0889
16213TIP3    H170054   1.745   1.245   0.570  0.3344 -0.0238  0.0521
16213TIP3    H270055   1.774   1.251   0.422 -0.8010 -0.7676 -0.2116
16214TIP3   OH270056   5.915   3.592   5.578 -0.4122  0.1889 -0.1850
16214TIP3    H170057   5.863   3.645   5.517 -0.7872 -0.0461 -0.0746
16214TIP3    H270058   5.974   3.541   5.521  0.0103  0.7833 -0.2851
16215TIP3   OH270059   5.062   1.668   6.939  0.1161 -0.0757 -0.6964
16215TIP3    H170060   5.009   1.605   6.989  0.1293 -0.0209 -0.6122
16215TIP3    H270061   5.139   1.619   6.911 -0.1364 -0.2456 -1.0987
16216TIP3   OH270062   6.547   6.088  14.531  0.5028 -0.5648  0.3576
16216TIP3    H170063   6.458   6.094  14.496  0.9228 -1.6000 -0.9845
16216TIP3    H270064   6.594   6.159  14.488  0.1638  0.5153  1.7017
16217TIP3   OH270065   6.156   4.493   2.898 -0.1936  0.3682 -0.6303
16217TIP3    H170066   6.125   4.403   2.907 -0.2325  0.5098  1.0966
16217TIP3    H270067   6.133   4.518   2.808 -0.7755 -1.1137 -0.9185
16218TIP3   OH270068   0.351   6.797   0.663 -0.0693 -0.4191 -0.5414
16218TIP3    H170069   0.277   6.763   0.713 -1.4472  1.1895 -1.3947
16218TIP3    H270070   0.323   6.792   0.572  1.3554 -0.8241 -0.9864
16219TIP3   OH270071   6.313   5.936  12.197 -0.2457  0.3641  0.2860
16219TIP3    H170072   6.391   5.956  12.249 -0.3528  1.9807 -0.1066
16219TIP3    H270073   6.276   5.858  12.238  0.7763  0.4296  1.3847
16220TIP3   OH270074   5.140   0.376  10.640  0.0792 -0.5787 -1.1118
16220TIP3    H170075   5.080   0.390  10.567 -1.8209 -0.2152  0.4223
16220TIP3    H270076   5.225   0.405  10.607 -1.0933  1.5573 -2.5216
16221TIP3   OH270077   1.061   1.903  13.330 -0.4724 -0.0662 -0.3787
16221TIP3    H170078   1.063   1.894  13.235  2.5130  2.4438 -0.6904
16221TIP3    H270079   1.019   1.988  13.345  1.8585  1.0310  0.2842
16222TIP3   OH270080   5.841   5.927  14.595  0.3479  0.2360  0.2006
16222TIP3    H170081   5.804   5.863  14.535 -1.2624  0.9986  0.3421
16222TIP3    H270082   5.782   6.002  14.591  0.2817  0.3923  2.5923
16223TIP3   OH270083   6.256   5.218   4.987  0.2973  0.1633 -0.2873
16223TIP3    H170084   6.164   5.237   4.965  0.4395 -0.5009 -1.5978
16223TIP3    H270085   6.268   5.255   5.074 -1.3268 -0.0490  0.0668
16224TIP3   OH270086   2.764   2.662   2.729  0.3410  0.2728 -0.0385
16224TIP3    H170087   2.761   2.695   2.639 -0.5338  1.4941  0.4118
16224TIP3    H270088   2.831   2.716   2.771  2.7710 -2.0801 -0.5698
16225TIP3   OH270089   3.278   1.876   4.544 -1.1363 -0.4254  0.1356
16225TIP3    H170090   3.309   1.916   4.463  0.4706  0.4746  1.1407
16225TIP3    H270091   3.182   1.877   4.535 -1.0117 -0.0213 -1.5777
16226TIP3   OH270092   0.717   5.284   3.444 -0.0359  0.6544 -0.7946
16226TIP3    H170093   0.651   5.216   3.433  1.1365 -0.5037 -0.8421
16226TIP3    H270094   0.745   5.304   3.355  2.2848 -1.5371 -0.6538
16227TIP3   OH270095   5.511   3.255  12.522  0.4115  0.3397 -0.1310
16227TIP3    H170096   5.542   3.285  12.607 -1.1517  0.9094  0.2853
16227TIP3    H270097   5.450   3.323  12.493  1.3011  0.4203 -1.9774
16228TIP3   OH270098   5.036   2.274  13.355  0.0760 -0.1433 -0.4237
16228TIP3    H170099   5.001   2.361  13.336 -0.5434 -0.5042 -0.9977
16228TIP3    H270100   5.084   2.249  13.276  1.5919  0.3021  0.3193
16229TIP3   OH270101   5.839   1.691  14.268 -0.0870  0.3367  0.5025
16229TIP3    H170102   5.802   1.682  14.180  0.9766  0.3258  0.0432
16229TIP3    H270103   5.809   1.777  14.298  0.3536  0.7685 -0.2723
16230TIP3   OH270104   3.151   4.403   1.942 -0.1787  0.0567 -0.9643
16230TIP3    H170105   3.069   4.384   1.897  0.1317 -0.3506 -1.3661
16230TIP3    H270106   3.217   4.405   1.873  0.0315  1.2163 -0.7631
16231TIP3   OH270107   5.909   5.357  14.777  0.6552  0.4170 -0.7564
16231TIP3    H170108   5.880   5.363  14.869  3.1131  0.5623  0.0711
16231TIP3    H270109   5.878   5.438  14.737  0.0031  0.5893  0.0636
16232TIP3   OH270110   0.887   3.339  13.879  0.1808 -0.3407  0.3463
16232TIP3    H170111   0.801   3.325  13.919 -0.0416  1.3652  0.5289
16232TIP3    H270112   0.933   3.396  13.941  1.1454 -0.5547 -0.1590
16233TIP3   OH270113   5.381   1.666   3.022  0.3672 -0.4825 -0.0314
16233TIP3    H170114   5.414   1.751   2.994 -1.1094  0.6443  1.4150
16233TIP3    H270115   5.402   1.662   3.116 -2.6647 -0.0619  0.7679
16234TIP3   OH270116   0.213   4.473   1.305 -0.1539  0.4026 -0.1403
16234TIP3    H170117   0.253   4.529   1.240  2.1156  0.4410  1.1811
16234TIP3    H270118   0.169   4.533   1.365  0.3117  0.6049  0.0031
16235TIP3   OH270119   5.486   3.568  10.166  0.1174  0.6707  0.0797
16235TIP3    H170120   5.395   3.594  10.157  0.7374  3.2706  0.5920
16235TIP3    H270121   5.493   3.530  10.253 -0.3773  0.8525  0.1952
16236TIP3   OH270122   1.850   4.418   0.637 -0.0642  0.3000 -0.0299
16236TIP3    H170123   1.770   4.427   0.689 -0.0696 -0.7352  0.1700
16236TIP3    H270124   1.858   4.501   0.590 -0.3041  1.0684  1.2626
16237TIP3   OH270125   1.989   0.660  15.899 -0.0950 -0.7593  0.2158
16237TIP3    H170126   2.015   0.711  15.976  0.3926  1.6798 -1.4623
16237TIP3    H270127   1.897   0.639  15.915 -0.2677  0.5299  1.0772
16238TIP3   OH270128   5.326   0.474   3.030 -0.3324  0.0560 -0.1532
16238TIP3    H170129   5.292   0.386   3.016  1.0082 -0.6840  0.9900
16238TIP3    H270130   5.265   0.513   3.093 -0.4227 -0.3918  0.0420
16239TIP3   OH270131   4.107   1.481   0.466  0.3834 -0.4728  0.1466
16239TIP3    H170132   4.164   1.515   0.534  1.6384  1.1368 -1.5987
16239TIP3    H270133   4.154   1.406   0.430  0.2124 -0.6752  0.3401
16240TIP3   OH270134   4.388   1.157  13.197 -0.4843  0.3213  0.6267
16240TIP3    H170135   4.450   1.119  13.134 -1.5375 -1.1623  0.4330
16240TIP3    H270136   4.314   1.096  13.198 -0.3687  0.0785  3.5612
16241TIP3   OH270137   3.540   5.710   0.542  0.0942  0.6445  1.0356
16241TIP3    H170138   3.558   5.737   0.452 -1.2765  0.3090  0.6249
16241TIP3    H270139   3.624   5.716   0.587  0.8612  0.5787 -0.3280
16242TIP3   OH270140   3.034   4.255  12.061 -0.1573  0.7132 -0.0851
16242TIP3    H170141   3.108   4.244  12.121 -1.2462 -1.5932  0.9766
16242TIP3    H270142   3.047   4.187  11.994 -0.5185  1.3091 -0.7716
16243TIP3   OH270143   0.496   3.030  12.318  0.3105  0.6844 -0.4277
16243TIP3    H170144   0.541   3.042  12.235  1.1104  0.8801  0.0207
16243TIP3    H270145   0.500   3.116  12.360  1.0928  0.2719  0.3779
16244TIP3   OH270146   5.624   4.257  16.834 -0.1824 -0.7529 -0.2327
16244TIP3    H170147   5.678   4.211  16.769  2.0838  1.2446  0.0939
16244TIP3    H270148   5.638   4.350  16.815  0.1362 -0.0891  2.7488
16245TIP3   OH270149   4.984   5.917  15.219 -0.2242  0.2193  0.1914
16245TIP3    H170150   4.910   5.936  15.162 -0.7024 -2.0834 -0.0508
16245TIP3    H270151   4.959   5.837  15.266  2.5300 -1.3355 -0.7310
16246TIP3   OH270152   5.211   5.291  15.719 -0.0607  0.0208 -0.0285
16246TIP3    H170153   5.168   5.335  15.792 -0.0212  0.0702 -0.0356
16246TIP3    H270154   5.168   5.327  15.641 -0.6719 -0.6254 -0.0027
16247TIP3   OH270155   6.122   3.136   4.430 -0.5612  0.2101 -0.1299
16247TIP3    H170156   6.039   3.182   4.442 -1.0119 -0.1776 -1.5505
16247TIP3    H270157   6.097   3.044   4.422  0.0850  0.0054  0.1474
16248TIP3   OH270158   3.359   3.069   0.536  0.2057 -0.6026  0.0493
16248TIP3    H170159   3.295   3.135   0.565  0.5769 -0.2521  0.0800
16248TIP3    H270160   3.417   3.117   0.476  2.2422 -0.1198  2.2407
16249TIP3   OH270161   2.056   3.756   1.083 -0.0265  0.2060 -0.5880
16249TIP3    H170162   2.068   3.796   0.997  2.3848  0.7957 -0.0468
16249TIP3    H270163   1.967   3.780   1.109 -1.0481 -0.5481 -3.1594
16250TIP3   OH270164   5.645   6.241  14.913  0.9410 -0.3568  0.2244
16250TIP3    H170165   5.692   6.307  14.861  0.8556  0.1973  0.8260
16250TIP3    H270166   5.567   6.287  14.945 -0.4314 -1.4760 -1.3500
16251TIP3   OH270167   0.090   3.507  13.099 -0.6123 -0.4195 -0.3782
16251TIP3    H170168   0.178   3.506  13.137 -0.7169  1.5670  0.0452
16251TIP3    H270169   0.102   3.481  13.008  0.6142  0.9780 -0.6489
16252TIP3   OH270170   4.182   4.379   1.614  0.8997 -0.3532  0.1141
16252TIP3    H170171   4.192   4.446   1.547  3.0965  1.0434  1.7097
16252TIP3    H270172   4.198   4.297   1.568 -0.1574  0.3176 -1.5479
16253TIP3   OH270173   1.445   3.927   4.982 -0.1845  0.2301 -0.3638
16253TIP3    H170174   1.494   4.008   4.978 -0.3138  0.2460 -2.4732
16253TIP3    H270175   1.504   3.861   4.947 -0.3474 -0.4796  0.6372
16254TIP3   OH270176   2.997   4.379  11.241 -0.3683  0.7888  0.0081
16254TIP3    H170177   3.068   4.431  11.279 -0.2637  0.6976 -0.0611
16254TIP3    H270178   3.041   4.321  11.179 -0.5415  0.9551 -0.2720
16255TIP3   OH270179   1.145   2.282   1.298 -0.2309  0.0006 -0.1296
16255TIP3    H170180   1.169   2.279   1.390  0.8196 -0.7543 -0.4112
16255TIP3    H270181   1.076   2.216   1.288 -0.7043  0.4392  0.2044
16256TIP3   OH270182   2.038   4.713  11.532 -0.3978  0.3655  0.3937
16256TIP3    H170183   1.998   4.799  11.517 -0.2141  0.4310  0.2680
16256TIP3    H270184   2.068   4.685  11.445 -2.1115 -0.6749  0.0881
16257TIP3   OH270185   0.675   1.753  11.009  0.2591  0.1233 -0.0117
16257TIP3    H170186   0.700   1.827  11.064  1.7932 -0.6268  0.3815
16257TIP3    H270187   0.637   1.690  11.070 -1.3923  0.7021 -0.4018
16258TIP3   OH270188   5.331   2.918  16.707 -0.1550  0.3894 -0.4324
16258TIP3    H170189   5.376   2.975  16.769 -0.4128 -0.2818  0.3965
16258TIP3    H270190   5.294   2.848  16.761 -2.6746  1.1772 -0.9815
16259TIP3   OH270191   5.491   1.587   6.760  0.7851  0.3740  0.1210
16259TIP3    H170192   5.515   1.633   6.679 -0.0399 -1.4237 -1.2102
16259TIP3    H270193   5.574   1.554   6.794  0.9286 -0.6546 -1.1628
16260TIP3   OH270194   0.830   3.941   0.742  0.2459 -0.2450 -0.1118
16260TIP3    H170195   0.883   3.864   0.723  0.1049  0.0218 -1.7594
16260TIP3    H270196   0.750   3.907   0.781 -0.1543 -1.0366 -1.5506
16261TIP3   OH270197   1.750   2.847  16.920 -0.3108  0.4372  0.0925
16261TIP3    H170198   1.838   2.880  16.939  0.3164 -2.0686  2.1544
16261TIP3    H270199   1.765   2.767  16.869 -1.4175  0.1598  0.1780
16262TIP3   OH270200   2.158   4.020   3.124  0.0535  0.0866  0.8259
16262TIP3    H170201   2.086   3.962   3.100  0.1943  0.6605 -1.1501
16262TIP3    H270202   2.237   3.967   3.108  0.1385  0.3331  0.4155
16263TIP3   OH270203   4.945   3.246   3.314 -0.3583  0.1737  0.4254
16263TIP3    H170204   4.913   3.295   3.389 -0.5119 -0.5841  0.8627
16263TIP3    H270205   5.004   3.180   3.351  0.4373  0.4994 -0.2232
16264TIP3   OH270206   3.724   3.142  13.768  0.0586  0.5998 -0.2240
16264TIP3    H170207   3.733   3.158  13.862  0.3409 -1.7277  0.2095
16264TIP3    H270208   3.814   3.139  13.735  0.2079 -2.0497  0.1708
16265TIP3   OH270209   3.462   1.349  15.750  0.0965  0.2245  0.0648
16265TIP3    H170210   3.425   1.438  15.753 -0.4014  0.0029  0.8615
16265TIP3    H270211   3.534   1.355  15.688 -0.8978  0.8186 -1.0637
16266TIP3   OH270212   5.036   5.680   5.386  0.0460 -0.0800 -0.3237
16266TIP3    H170213   5.028   5.600   5.438  1.8846 -0.3956 -0.4905
16266TIP3    H270214   5.106   5.729   5.428  1.9391 -0.5676 -2.7435
16267TIP3   OH270215   3.236   5.058   2.118 -0.5619  0.4696  0.2534
16267TIP3    H170216   3.308   5.086   2.175  0.2785  1.3795 -1.2002
16267TIP3    H270217   3.270   4.979   2.076  0.8026  2.3718 -2.5059
16268TIP3   OH270218   3.321   5.878   1.455 -0.7850 -0.2443  0.3103
16268TIP3    H170219   3.273   5.943   1.505  0.5441 -0.1659  1.5567
16268TIP3    H270220   3.257   5.808   1.438 -1.6776  0.4544  0.7219
16269TIP3   OH270221   1.953   0.207  13.240  0.3180  0.0249 -0.3351
16269TIP3    H170222   2.013   0.282  13.247 -0.1162  0.2123  2.0590
16269TIP3    H270223   1.867   0.247  13.228  0.3093 -0.1762 -0.9944
16270TIP3   OH270224   3.965   0.417   0.927  0.4995 -0.7767  0.0977
16270TIP3    H170225   3.887   0.464   0.897  0.2025 -0.4671  1.3196
16270TIP3    H270226   4.033   0.441   0.864  0.1442  0.6468  0.2220
16271TIP3   OH270227   6.117   3.512   5.397  0.3028 -0.2985  0.2354
16271TIP3    H170228   6.173   3.443   5.362  2.7972  1.7133  0.0475
16271TIP3    H270229   6.170   3.556   5.463 -1.9260  0.2455  1.7747
16272TIP3   OH270230   4.072   5.935  15.851 -0.4849 -0.0781 -0.1359
16272TIP3    H170231   4.091   5.854  15.802 -1.0704  0.1190 -0.7013
16272TIP3    H270232   4.148   5.990  15.835 -0.3965 -0.2506 -0.3183
16273TIP3   OH270233   3.220   5.237  11.310  0.0069  0.0578  0.4107
16273TIP3    H170234   3.214   5.272  11.399 -0.7165 -0.2559  0.4956
16273TIP3    H270235   3.201   5.311  11.253  1.0869  0.4051  0.4911
16274TIP3   OH270236   3.044   6.402   3.008 -0.2730  0.0027  0.0443
16274TIP3    H170237   2.968   6.401   3.066  0.1782 -0.3721  0.6362
16274TIP3    H270238   3.098   6.329   3.038 -1.0372 -1.6143 -2.2069
16275TIP3   OH270239   1.435   3.008  12.083 -0.3342 -0.2574  0.3633
16275TIP3    H170240   1.340   3.001  12.083 -0.3892  0.2783  1.3086
16275TIP3    H270241   1.463   2.965  12.002 -1.2916 -1.5717  0.6954
16276TIP3   OH270242   6.758   1.281   0.825  0.1834 -0.7170 -0.2927
16276TIP3    H170243   6.690   1.345   0.801  1.8581  1.3368  0.1213
16276TIP3    H270244   6.783   1.240   0.742 -1.2449 -1.2207 -0.5040
16277TIP3   OH270245   2.104   6.380   0.321  0.1553 -0.4311 -0.0417
16277TIP3    H170246   2.104   6.383   0.417 -0.0317 -0.1449 -0.0471
16277TIP3    H270247   2.186   6.336   0.298 -0.2014 -1.2784  0.2673
16278TIP3   OH270248   4.946   1.733  15.684  0.3309  0.8131  0.0957
16278TIP3    H170249   4.956   1.644  15.717  1.9379  0.2475 -1.7162
16278TIP3    H270250   4.977   1.789  15.755 -0.8661 -0.0002  1.3293
16279TIP3   OH270251   3.303   0.703  14.963  0.5227 -0.0781 -0.2131
16279TIP3    H170252   3.354   0.783  14.957 -0.3978  0.6679  1.2376
16279TIP3    H270253   3.213   0.731  14.945  0.3647 -1.0496 -1.0404
16280TIP3   OH270254   4.341   1.577  11.869 -0.1939 -0.5671  0.6175
16280TIP3    H170255   4.272   1.637  11.897  0.5156  0.2094  0.7107
16280TIP3    H270256   4.381   1.620  11.794  1.5898  0.0267  1.8504
16281TIP3   OH270257   1.920   4.213  10.492 -0.1789 -0.2634 -0.2424
16281TIP3    H170258   1.915   4.291  10.436 -1.2986  0.7579  1.1960
16281TIP3    H270259   1.836   4.169  10.479  0.5517 -1.4254 -1.2507
16282TIP3   OH270260   5.850   6.285  16.666  0.1783  0.1849  0.7573
16282TIP3    H170261   5.793   6.213  16.638 -1.3964  1.7514 -0.2460
16282TIP3    H270262   5.938   6.251  16.655 -0.5111 -1.3487 -0.4154
16283TIP3   OH270263   1.978   5.543  10.351  0.0722 -0.1764 -0.2408
16283TIP3    H170264   1.887   5.573  10.344  0.0391 -0.5443 -1.9508
16283TIP3    H270265   2.003   5.561  10.441 -0.9801  1.9622 -0.3235
16284TIP3   OH270266   4.577   0.629  11.734 -0.1456 -0.5877  0.0875
16284TIP3    H170267   4.553   0.538  11.718  0.9071 -0.7882 -0.4496
16284TIP3    H270268   4.668   0.625  11.763 -0.2671  0.2543  0.6251
16285TIP3   OH270269   3.528   0.051  14.248 -0.0566  0.3271 -0.3918
16285TIP3    H170270   3.440   0.037  14.283  0.0628  0.3263 -0.0840
16285TIP3    H270271   3.517   0.120  14.182 -0.4474 -0.3695 -1.0695
16286TIP3   OH270272   6.663   1.829   5.441 -0.0123  0.0822  0.1045
16286TIP3    H170273   6.588   1.781   5.475 -1.6629  3.0669  1.0645
16286TIP3    H270274   6.630   1.873   5.362  0.0762  2.8345  1.4851
16287TIP3   OH270275   2.088   2.222   1.521 -0.8494 -0.2231 -0.4790
16287TIP3    H170276   2.062   2.155   1.458 -0.6930 -0.0470 -0.7311
16287TIP3    H270277   2.159   2.270   1.478  0.5078 -1.2427  0.5275
16288TIP3   OH270278   5.128   5.743  15.794  0.1703  0.3650  0.2933
16288TIP3    H170279   5.128   5.835  15.767  0.6156  0.0179 -0.9677
16288TIP3    H270280   5.107   5.694  15.714 -4.0585 -0.4964  1.6626
16289TIP3   OH270281   4.874   4.602  16.833 -0.4214  0.0989  0.1726
16289TIP3    H170282   4.825   4.681  16.857  1.4027  1.0327  1.0517
16289TIP3    H270283   4.855   4.540  16.903 -0.9668  0.1530  0.0800
16290TIP3   OH270284   1.055   4.780   0.524 -1.1429 -0.5021  0.4834
16290TIP3    H170285   1.082   4.700   0.568  1.0360 -1.1456 -1.8048
16290TIP3    H270286   1.006   4.750   0.447 -0.9516  0.4024 -0.0050
16291TIP3   OH270287   2.033   1.364   4.850  0.3366 -0.1181  0.3364
16291TIP3    H170288   2.094   1.438   4.849  1.6860 -1.1929  0.7623
16291TIP3    H270289   1.951   1.401   4.817  1.3438  1.2455 -0.7792
16292TIP3   OH270290   1.016   6.065   4.539 -0.3973 -0.9641  0.8517
16292TIP3    H170291   1.010   5.982   4.586 -0.7710 -1.3463  0.1386
16292TIP3    H270292   1.085   6.113   4.585 -1.9732 -0.5514  2.9561
16293TIP3   OH270293   0.904   5.528   5.050 -0.0364  0.4692 -0.1339
16293TIP3    H170294   0.928   5.601   4.992 -2.6087  2.2716  0.8752
16293TIP3    H270295   0.927   5.450   5.000  2.6829  1.9004 -1.3520
16294TIP3   OH270296   3.428   4.340   3.275 -0.1569 -0.2699 -0.4882
16294TIP3    H170297   3.410   4.247   3.287 -2.6774  0.1404 -0.6073
16294TIP3    H270298   3.342   4.382   3.275  0.9231  2.1449  0.0825
16295TIP3   OH270299   2.224   2.221   2.441  0.1300 -0.3016  0.8560
16295TIP3    H170300   2.308   2.213   2.486  0.7004  0.9404  0.0668
16295TIP3    H270301   2.197   2.311   2.456  0.2668  0.1076 -1.1196
16296TIP3   OH270302   2.640   5.715  16.307  0.2248  0.1518 -0.4956
16296TIP3    H170303   2.548   5.689  16.307  0.6761 -1.6523 -2.2453
16296TIP3    H270304   2.683   5.656  16.369  0.1766  1.3164  0.7014
16297TIP3   OH270305   0.443   5.379  12.459 -0.1117 -0.3953  0.4535
16297TIP3    H170306   0.510   5.447  12.447 -0.2299 -0.0163  1.7353
16297TIP3    H270307   0.445   5.328  12.378  2.0587 -0.6708  0.6297
16298TIP3   OH270308   0.069   0.540   5.526  0.3266  0.4032  0.1113
16298TIP3    H170309   0.124   0.598   5.472  0.5845  0.1690  0.1187
16298TIP3    H270310   0.131   0.476   5.562 -0.1028 -0.4575 -0.6604
16299TIP3   OH270311   0.327   2.877  16.915 -0.2853 -0.0812  0.6276
16299TIP3    H170312   0.331   2.824  16.835  2.9976 -0.5887  0.9813
16299TIP3    H270313   0.372   2.958  16.892  3.6427 -1.4546  2.6233
16300TIP3   OH270314   3.535   0.396   0.937  0.3624  0.0939  0.3358
16300TIP3    H170315   3.551   0.323   0.879  1.5566  1.5910 -1.3327
16300TIP3    H270316   3.479   0.456   0.886  2.5156  2.0442  0.1008
16301TIP3   OH270317   3.368   3.385   2.962  0.6885 -0.4101  0.4324
16301TIP3    H170318   3.385   3.430   2.880  0.8430 -0.0047  0.6816
16301TIP3    H270319   3.371   3.292   2.940  0.9886 -0.3057  0.0307
16302TIP3   OH270320   3.159   3.797   3.195  0.2078  0.1865 -0.3349
16302TIP3    H170321   3.175   3.711   3.155  0.9047  0.2570 -0.2191
16302TIP3    H270322   3.193   3.860   3.132  0.2110  0.3521 -0.1700
16303TIP3   OH270323   1.855   0.395   4.878  0.6445  0.2466  0.0178
16303TIP3    H170324   1.927   0.441   4.834  0.0889 -0.8652 -2.1792
16303TIP3    H270325   1.777   0.418   4.827 -0.0994 -0.8404  0.6181
16304TIP3   OH270326   5.950   6.135   4.639  0.0953 -0.6490  0.0678
16304TIP3    H170327   5.944   6.182   4.556  0.3687  0.4314  0.6479
16304TIP3    H270328   5.952   6.203   4.706 -0.0419 -1.5004  0.9667
16305TIP3   OH270329   3.744   5.154  11.132 -0.0214 -0.3201 -0.2414
16305TIP3    H170330   3.821   5.103  11.160  1.5991  1.7906 -0.5698
16305TIP3    H270331   3.779   5.217  11.069 -2.1182  0.5295 -0.6359
16306TIP3   OH270332   0.744   5.800  15.166  0.1700  0.3812 -0.2158
16306TIP3    H170333   0.750   5.719  15.217 -1.3154 -0.1124 -0.7769
16306TIP3    H270334   0.774   5.775  15.079  1.8474  1.0082  0.1440
16307TIP3   OH270335   3.778   5.368  14.212 -0.1535 -0.1806 -0.3996
16307TIP3    H170336   3.811   5.458  14.208 -1.7205  0.3857 -1.6673
16307TIP3    H270337   3.791   5.341  14.303  1.6400  0.7942 -0.3161
16308TIP3   OH270338   4.621   2.963  14.774 -0.3309 -0.4332  0.4346
16308TIP3    H170339   4.710   2.997  14.785 -0.4697  1.2729 -2.5475
16308TIP3    H270340   4.582   2.967  14.861  2.6644 -1.8999  1.9629
16309TIP3   OH270341   3.568   3.715  12.495  0.1114 -0.3105  0.0360
16309TIP3    H170342   3.520   3.712  12.578 -0.6899  2.2514 -0.2424
16309TIP3    H270343   3.514   3.665  12.434 -1.4486  1.1338  0.1414
16310TIP3   OH270344   0.324   6.252  15.483  0.2719  0.2188 -0.2648
16310TIP3    H170345   0.317   6.170  15.532  0.7352 -0.4698 -1.2999
16310TIP3    H270346   0.300   6.320  15.546  0.3290 -0.6666  0.7494
16311TIP3   OH270347   4.150   3.057   1.672  0.0305  0.1355  0.1517
16311TIP3    H170348   4.077   3.117   1.654 -1.4672 -1.8599 -0.8471
16311TIP3    H270349   4.216   3.079   1.606 -0.8947  0.0818 -0.8212
16312TIP3   OH270350   1.952   0.255   2.015 -0.0904  0.0673 -0.3816
16312TIP3    H170351   2.007   0.314   2.066  0.0377 -0.3454 -0.0389
16312TIP3    H270352   1.897   0.313   1.962 -1.2428  0.5163  1.2659
16313TIP3   OH270353   5.769   3.405   1.069  0.3429 -0.0847  0.4108
16313TIP3    H170354   5.801   3.416   1.158  3.0453 -2.0521 -0.1742
16313TIP3    H270355   5.819   3.470   1.018 -0.0557 -0.0118  0.1045
16314TIP3   OH270356   3.874   0.772  15.614 -1.4192  0.1749 -0.1570
16314TIP3    H170357   3.864   0.797  15.706  0.2213 -1.6876  0.6064
16314TIP3    H270358   3.815   0.697  15.603 -1.0864 -0.0551 -0.4159
16315TIP3   OH270359   6.445   1.663   4.895  0.6653 -0.9654 -0.0002
16315TIP3    H170360   6.463   1.721   4.822 -0.4205 -0.6903 -0.0717
16315TIP3    H270361   6.349   1.653   4.895  0.4021  0.6496  2.5846
16316TIP3   OH270362   2.545   2.454  15.355  0.1609 -0.0957 -0.2781
16316TIP3    H170363   2.597   2.533  15.339 -0.4763  0.3666 -0.1104
16316TIP3    H270364   2.513   2.429  15.268  1.6455 -1.0970 -0.5719
16317TIP3   OH270365   2.877   4.869   4.779  0.3702 -0.3575 -0.4973
16317TIP3    H170366   2.835   4.933   4.723 -1.3513 -1.5401 -0.6406
16317TIP3    H270367   2.811   4.846   4.844  1.2900 -1.2406  0.1730
16318TIP3   OH270368   6.267   0.489  15.920 -0.7143 -0.1353 -0.1689
16318TIP3    H170369   6.301   0.403  15.893  2.0240  0.7556  0.0906
16318TIP3    H270370   6.181   0.470  15.956 -0.6696 -2.6152 -1.1273
16319TIP3   OH270371   4.088   2.647  11.170  0.5237  0.4531 -0.0344
16319TIP3    H170372   4.083   2.734  11.208 -3.0558 -0.7715  2.9438
16319TIP3    H270373   4.063   2.660  11.078 -3.0157  2.3853  1.0118
16320TIP3   OH270374   6.435   0.331   3.218 -0.2130 -0.0795  0.3222
16320TIP3    H170375   6.407   0.366   3.134 -0.1674 -0.9948 -0.0940
16320TIP3    H270376   6.357   0.288   3.254  0.0323 -0.5825  0.2621
16321TIP3   OH270377   0.951   0.761   1.753  0.6077 -0.2582  0.2236
16321TIP3    H170378   1.038   0.786   1.723  0.6322 -0.7860 -0.1499
16321TIP3    H270379   0.945   0.667   1.736 -0.7874  0.1186 -1.6635
16322TIP3   OH270380   6.007   6.598  15.178 -0.0525  0.6661  0.3691
16322TIP3    H170381   5.989   6.511  15.143  1.2965  0.3567  0.4006
16322TIP3    H270382   5.993   6.589  15.273 -0.1499  0.5458  0.3426
16323TIP3   OH270383   2.410   3.012   4.202 -0.0497 -0.3961 -0.0901
16323TIP3    H170384   2.357   2.968   4.269  0.6557 -1.6589 -0.3342
16323TIP3    H270385   2.346   3.040   4.136 -0.5906 -0.4908  0.3858
16324TIP3   OH270386   2.505   1.766   4.494 -0.0386  0.0394  0.3056
16324TIP3    H170387   2.518   1.832   4.561 -0.2411  0.4329 -0.0411
16324TIP3    H270388   2.410   1.763   4.481 -0.1199 -1.0175  1.0146
16325TIP3   OH270389   4.787   5.213   1.173 -0.0820 -0.4973  0.2074
16325TIP3    H170390   4.875   5.223   1.210  0.5668  0.9429 -1.5667
16325TIP3    H270391   4.792   5.136   1.117  0.7944  0.8350 -1.6681
16326TIP3   OH270392   2.969   5.799   2.413 -0.4645 -0.2385 -0.3675
16326TIP3    H170393   3.044   5.851   2.441 -0.8335 -0.0424  0.2594
16326TIP3    H270394   2.959   5.733   2.482 -1.7559  0.6208  0.2824
16327TIP3   OH270395   3.733   3.350  17.119  0.0976  0.0091 -0.0933
16327TIP3    H170396   3.753   3.325  17.209 -0.9413  0.0761  0.1695
16327TIP3    H270397   3.682   3.277  17.084  1.4912 -0.5638 -1.0349
16328TIP3   OH270398   5.509   0.852  15.320 -0.0987 -0.4041  0.4145
16328TIP3    H170399   5.457   0.885  15.393  0.3027  0.6861  0.2113
16328TIP3    H270400   5.465   0.885  15.242 -0.1152 -0.9671  0.1798
16329TIP3   OH270401   4.249   6.315  11.323 -0.5114  0.2158 -0.0893
16329TIP3    H170402   4.194   6.352  11.254 -0.1082  1.0431  0.0184
16329TIP3    H270403   4.332   6.364  11.317 -0.8664  1.1323  1.7115
16330TIP3   OH270404   3.774   1.898   0.641  0.0144 -0.3103 -0.5572
16330TIP3    H170405   3.736   1.836   0.704  0.5288 -0.0342  0.0355
16330TIP3    H270406   3.859   1.860   0.619  0.7073  0.5942  0.4612
16331TIP3   OH270407   6.509   6.066   5.585  0.3081  0.1301  0.1904
16331TIP3    H170408   6.466   6.152   5.590  0.0248 -0.0436  0.8538
16331TIP3    H270409   6.451   6.013   5.530 -0.8381 -0.3767  1.8093
16332TIP3   OH270410   2.562   3.233  14.144  0.2122  0.0445  0.2066
16332TIP3    H170411   2.523   3.179  14.213  1.3447 -0.1969  0.6852
16332TIP3    H270412   2.567   3.321  14.182 -0.7371  0.2895 -0.2145
16333TIP3   OH270413   2.348   6.716   3.880 -0.4778 -0.0987  0.3355
16333TIP3    H170414   2.400   6.768   3.941 -0.5029  1.0925 -0.6049
16333TIP3    H270415   2.269   6.693   3.928 -1.5881  2.7930  0.0973
16334TIP3   OH270416   6.338   4.953   0.020 -0.3076  0.0157 -0.0671
16334TIP3    H170417   6.387   5.033   0.038 -0.8021  0.3781 -0.3084
16334TIP3    H270418   6.375   4.888   0.080 -1.1484  0.8896  1.4648
16335TIP3   OH270419   2.688   6.461  12.497  0.2403 -0.3944  0.1992
16335TIP3    H170420   2.740   6.536  12.526 -1.3253  1.2607 -1.0224
16335TIP3    H270421   2.613   6.460  12.556  0.7539 -1.7105  0.8774
16336TIP3   OH270422   2.044   5.222  12.575 -0.0373 -0.3960 -0.3410
16336TIP3    H170423   2.102   5.294  12.599 -1.1782  0.3892  0.1283
16336TIP3    H270424   2.030   5.174  12.656 -1.4747  0.4839 -0.0437
16337TIP3   OH270425   2.203   2.729  11.520 -0.0201  0.4774 -0.2887
16337TIP3    H170426   2.146   2.784  11.573 -1.9405 -0.9833 -0.7470
16337TIP3    H270427   2.222   2.781  11.442  0.1736  1.3916  0.3573
16338TIP3   OH270428   2.946   2.768   0.588 -0.0851 -0.4022  0.0587
16338TIP3    H170429   2.920   2.720   0.510  0.1962  0.9967 -0.9316
16338TIP3    H270430   2.863   2.804   0.622 -0.0938 -0.2845 -0.0892
16339TIP3   OH270431   5.242   2.034  11.322  0.4769  0.2628  0.0650
16339TIP3    H170432   5.303   2.011  11.251  0.4936 -2.6004  0.8645
16339TIP3    H270433   5.212   2.122  11.300  3.7651  1.2430 -1.1370
16340TIP3   OH270434   0.489   0.515  12.243  0.2277 -0.2013 -0.3669
16340TIP3    H170435   0.446   0.482  12.163 -0.6061 -0.6264  0.2340
16340TIP3    H270436   0.492   0.609  12.231 -0.9418 -0.1552 -0.4165
16341TIP3   OH270437   1.057   5.653  15.111 -0.3933 -0.0920 -0.2473
16341TIP3    H170438   1.009   5.719  15.061 -1.1995  0.0642  0.6956
16341TIP3    H270439   0.993   5.621  15.176  0.5626 -0.4027  0.5669
16342TIP3   OH270440   2.427   3.149   5.645  0.1342  0.3632  0.3613
16342TIP3    H170441   2.473   3.115   5.722  0.1884 -3.6236 -1.1553
16342TIP3    H270442   2.340   3.111   5.651  0.2727 -0.4149 -1.6702
16343TIP3   OH270443   2.311   0.496   5.939 -0.2542 -0.7706 -0.1430
16343TIP3    H170444   2.365   0.438   5.993 -0.0831  0.3359  0.9118
16343TIP3    H270445   2.222   0.465   5.952  0.0549 -2.3648 -1.5840
16344TIP3   OH270446   1.361   3.923   6.990  0.0644 -0.1364  0.5765
16344TIP3    H170447   1.282   3.970   6.962  1.4686  1.5862 -0.7356
16344TIP3    H270448   1.402   3.982   7.053  1.0261 -0.3412  0.1536
16345TIP3   OH270449   6.190   0.821   3.445  0.1714  0.9617  0.1271
16345TIP3    H170450   6.240   0.741   3.463 -0.5763 -0.4157 -3.1463
16345TIP3    H270451   6.256   0.883   3.413  0.1955 -0.0190 -1.8434
16346TIP3   OH270452   2.422   1.725  11.372  0.4715  0.1951  0.2898
16346TIP3    H170453   2.493   1.774  11.413  0.2782  0.6956  0.0247
16346TIP3    H270454   2.449   1.716  11.280  0.9448 -0.9935  0.5292
16347TIP3   OH270455   6.694   6.085  15.427  0.7914 -0.3690 -0.8640
16347TIP3    H170456   6.680   6.172  15.390  1.8336  0.3711  0.3823
16347TIP3    H270457   6.655   6.089  15.514 -1.1506 -1.9003 -1.5959
16348TIP3   OH270458   2.989   4.981  12.981 -0.1137  0.2513 -0.6532
16348TIP3    H170459   2.954   4.912  13.037  0.7551 -0.0249 -0.4437
16348TIP3    H270460   3.079   4.992  13.009  0.0192  0.8545 -1.2838
16349TIP3   OH270461   1.469   4.600  15.055  0.0759  0.1881 -0.2430
16349TIP3    H170462   1.512   4.593  14.971 -1.7080 -1.1870 -1.1137
16349TIP3    H270463   1.495   4.686  15.088  3.2681 -0.4732 -0.7148
16350TIP3   OH270464   5.468   1.055  14.322 -0.6080 -0.3774  0.3379
16350TIP3    H170465   5.430   1.142  14.324 -0.4856 -0.3277  0.4686
16350TIP3    H270466   5.541   1.062  14.261 -1.6169 -0.8021 -0.9693
16351TIP3   OH270467   1.407   5.214  15.263  1.2054 -0.4805 -0.7557
16351TIP3    H170468   1.326   5.255  15.293  2.3792  0.6210  1.0868
16351TIP3    H270469   1.415   5.134  15.315  0.6245 -1.3490 -1.9526
16352TIP3   OH270470   4.586   5.307  13.180  0.3588  0.2093 -0.0168
16352TIP3    H170471   4.554   5.236  13.124  0.0556  0.0895  0.3012
16352TIP3    H270472   4.673   5.278  13.208 -0.0376 -0.3680  0.6636
16353TIP3   OH270473   0.626   0.323  13.731 -0.3252  0.1646  0.3596
16353TIP3    H170474   0.638   0.417  13.744  1.3678 -0.2687  2.7296
16353TIP3    H270475   0.542   0.303  13.773 -1.2086  0.7280 -1.0797
16354TIP3   OH270476   0.517   2.453  13.619  0.1867 -0.1098 -0.2807
16354TIP3    H170477   0.443   2.474  13.562 -0.1861  0.8272  0.5041
16354TIP3    H270478   0.491   2.371  13.662 -0.3856  0.1944 -0.0377
16355TIP3   OH270479   2.319   4.438  13.930  0.3307 -0.0558 -0.8757
16355TIP3    H170480   2.245   4.412  13.875  0.3567  0.4564 -1.1670
16355TIP3    H270481   2.396   4.405  13.885  0.2787 -0.6619 -0.5302
16356TIP3   OH270482   3.263   0.550   2.505 -0.6074  0.1200 -0.0293
16356TIP3    H170483   3.268   0.591   2.591 -2.6841 -2.2772  1.3356
16356TIP3    H270484   3.314   0.470   2.513 -0.3382  0.1370 -1.2515
16357TIP3   OH270485   0.462   1.964   0.727 -0.7133  0.1642  0.2344
16357TIP3    H170486   0.413   2.039   0.760 -2.2815 -0.6218 -0.1961
16357TIP3    H270487   0.423   1.888   0.771 -0.3982 -0.5478 -0.6706
16358TIP3   OH270488   5.341   3.454  13.660 -0.3532 -0.0831  0.4134
16358TIP3    H170489   5.419   3.422  13.615 -1.5478 -2.4243 -0.1598
16358TIP3    H270490   5.276   3.465  13.591 -1.1488 -0.2242  1.1168
16359TIP3   OH270491   2.466   2.061  15.944 -0.4650 -0.2701 -0.3259
16359TIP3    H170492   2.494   2.052  15.853  2.2257 -0.2848  0.4185
16359TIP3    H270493   2.433   1.974  15.968  0.9466 -0.9218 -0.6575
16360TIP3   OH270494   2.243   4.979  15.949  0.6833  0.5655  0.4350
16360TIP3    H170495   2.190   4.908  15.913  0.6903  0.9381 -0.3351
16360TIP3    H270496   2.291   4.939  16.021  0.5606 -0.1681  0.1168
16361TIP3   OH270497   5.765   4.111   4.159  0.3696 -0.2552  0.0825
16361TIP3    H170498   5.802   4.143   4.241  1.6345 -0.8307 -0.2437
16361TIP3    H270499   5.739   4.191   4.112  1.9394  0.2330 -0.0044
16362TIP3   OH270500   2.234   5.950  13.047  0.4267  0.1171  0.0425
16362TIP3    H170501   2.233   5.966  12.953 -1.2724  0.6453  0.1022
16362TIP3    H270502   2.168   5.881  13.060  0.2449  0.4328  0.8871
16363TIP3   OH270503   6.522   4.293  13.135  0.0584 -0.3852 -0.3817
16363TIP3    H170504   6.465   4.253  13.069 -1.3883 -1.5634  1.4745
16363TIP3    H270505   6.606   4.302  13.092 -0.8370 -1.0865 -2.3861
16364TIP3   OH270506   2.467   6.197  14.598 -0.2534 -0.2575  0.2644
16364TIP3    H170507   2.397   6.222  14.659  0.8214  1.3516  0.9034
16364TIP3    H270508   2.481   6.274  14.544  0.7192 -0.7069 -0.1484
16365TIP3   OH270509   1.389   2.927   2.773 -0.6401  0.2340  0.3189
16365TIP3    H170510   1.357   2.838   2.767  0.0832 -0.1053  1.1464
16365TIP3    H270511   1.476   2.919   2.814  0.1250  1.1749 -1.0206
16366TIP3   OH270512   2.857   1.099  11.171  0.4973  0.1238  0.0728
16366TIP3    H170513   2.914   1.021  11.171 -0.8445 -0.9037 -0.7772
16366TIP3    H270514   2.917   1.173  11.171  1.8217 -0.9083  0.4828
16367TIP3   OH270515   1.866   0.585  16.546  0.3160  0.5126  0.1890
16367TIP3    H170516   1.857   0.561  16.638  1.1323 -1.1776 -0.1346
16367TIP3    H270517   1.845   0.506  16.497  0.4733  1.2055 -1.0724
16368TIP3   OH270518   1.584   6.628  11.883 -0.2255 -0.3330  0.5331
16368TIP3    H170519   1.627   6.658  11.963 -0.3742 -1.4447  1.0543
16368TIP3    H270520   1.490   6.642  11.899 -0.2684 -0.7100  0.6362
16369TIP3   OH270521   2.356   4.743   5.572  0.1534  0.1398  0.0401
16369TIP3    H170522   2.270   4.785   5.570 -0.6928 -1.5255 -0.2850
16369TIP3    H270523   2.340   4.655   5.539  1.2343 -1.5898  3.7015
16370TIP3   OH270524   4.385   2.006  17.034  0.1860 -0.6171 -0.5418
16370TIP3    H170525   4.388   2.018  17.129  1.1038 -2.5231 -0.2863
16370TIP3    H270526   4.295   1.975  17.017 -0.6848  1.7636 -0.6317
16371TIP3   OH270527   6.466   1.406   1.566 -0.1040 -0.9875  0.3637
16371TIP3    H170528   6.424   1.326   1.596  0.0065 -0.6347  1.4876
16371TIP3    H270529   6.505   1.445   1.644 -1.5587  1.0107  0.1895
16372TIP3   OH270530   6.684   5.898   0.392 -0.0341 -0.2733 -0.7716
16372TIP3    H170531   6.636   5.917   0.473 -0.9903 -0.8681 -1.1868
16372TIP3    H270532   6.717   5.809   0.404  0.0127 -0.2808 -0.9489
16373TIP3   OH270533   3.382   0.669  16.737 -0.1212  0.2357  0.3728
16373TIP3    H170534   3.419   0.755  16.755  0.0949  0.1882  0.1610
16373TIP3    H270535   3.419   0.612  16.804 -1.9599  0.7243  1.9115
16374TIP3   OH270536   1.365   1.998  13.139  0.1123  0.1595 -0.2405
16374TIP3    H170537   1.453   2.027  13.160 -0.4950  0.3696  2.3010
16374TIP3    H270538   1.373   1.903  13.128  0.6576  0.1887 -0.1238
16375TIP3   OH270539   5.669   5.681   6.287  0.4659  0.5109 -0.6850
16375TIP3    H170540   5.642   5.700   6.377 -0.8010  0.2988 -1.0018
16375TIP3    H270541   5.764   5.690   6.288  0.2976  2.6879  0.1701
16376TIP3   OH270542   4.300   6.761   5.941 -0.1828  0.5803  0.0393
16376TIP3    H170543   4.349   6.716   6.010  0.6609  3.7985  1.7909
16376TIP3    H270544   4.211   6.768   5.975 -0.0443  1.1312  0.3131
16377TIP3   OH270545   0.750   0.545  16.589 -0.2063  0.4855  0.9948
16377TIP3    H170546   0.681   0.485  16.619 -0.9764  0.9539  0.2008
16377TIP3    H270547   0.716   0.632  16.609  0.4125  0.7048  1.1110
16378TIP3   OH270548   4.229   0.431  12.954 -0.1450  0.2941 -0.3162
16378TIP3    H170549   4.289   0.504  12.967  0.8710 -0.3205 -1.3407
16378TIP3    H270550   4.286   0.356  12.938 -1.1896 -0.3253 -1.2885
16379TIP3   OH270551   2.424   2.501   4.627  0.2262  0.2196  0.6344
16379TIP3    H170552   2.368   2.573   4.600  0.3811  0.5829  1.2432
16379TIP3    H270553   2.502   2.544   4.662  1.5033 -0.2812 -1.4260
16380TIP3   OH270554   2.010   4.791   1.992 -0.2431  0.1187  0.1660
16380TIP3    H170555   2.040   4.795   1.901 -2.1988  0.8730 -0.4991
16380TIP3    H270556   2.001   4.882   2.019 -0.0674 -0.1006  0.9909
16381TIP3   OH270557   6.142   3.750   1.688 -0.3165 -0.4833  0.5211
16381TIP3    H170558   6.193   3.774   1.610 -1.7165 -1.0745 -0.6196
16381TIP3    H270559   6.159   3.656   1.699 -0.1223 -0.3997  0.9280
16382TIP3   OH270560   1.549   4.851  14.437 -0.3089  0.1592  0.2599
16382TIP3    H170561   1.472   4.795  14.426 -1.0373  1.1936 -0.0687
16382TIP3    H270562   1.589   4.854  14.350  0.4265 -0.8092  0.5506
16383TIP3   OH270563   3.838   4.896   4.532  0.2713 -0.7246 -0.0830
16383TIP3    H170564   3.891   4.820   4.555  2.5067  0.7739  0.0377
16383TIP3    H270565   3.858   4.913   4.440 -1.9661 -1.5634 -0.7880
16384TIP3   OH270566   2.141   3.924  11.471 -0.1408  0.1538  0.1115
16384TIP3    H170567   2.126   4.017  11.460 -0.3561  0.2607  1.1594
16384TIP3    H270568   2.195   3.918  11.550  0.3609 -0.5699 -0.2798
16385TIP3   OH270569   5.492   3.335  14.762  0.0685  0.4354 -0.2419
16385TIP3    H170570   5.548   3.328  14.840  0.7929  0.2304 -0.7676
16385TIP3    H270571   5.529   3.409  14.713 -1.7019  1.9760  0.6405
16386TIP3   OH270572   3.080   3.167  16.329  0.2176 -0.3039  0.4162
16386TIP3    H170573   3.043   3.130  16.409  0.1257 -2.3528 -0.5192
16386TIP3    H270574   3.020   3.238  16.306 -2.6831 -2.7999 -0.4558
16387TIP3   OH270575   4.407   5.002   0.844 -0.3885  0.3800  0.7286
16387TIP3    H170576   4.498   4.996   0.871 -0.0406 -0.4527 -0.5344
16387TIP3    H270577   4.408   4.979   0.751 -2.0343 -0.9054  0.9830
16388TIP3   OH270578   1.962   2.736  12.705  0.2051  0.1356  0.5244
16388TIP3    H170579   2.052   2.754  12.732  0.4989 -1.5785  0.8016
16388TIP3    H270580   1.959   2.641  12.693 -1.0597  0.3491 -1.3428
16389TIP3   OH270581   0.126   2.044   1.014 -0.0351  0.2619 -0.2078
16389TIP3    H170582   0.056   1.992   0.974 -1.6053  1.4673  0.8151
16389TIP3    H270583   0.174   2.081   0.940 -0.0966 -1.0561 -0.9395
16390TIP3   OH270584   0.329   6.159   6.057  0.0040 -0.4425 -0.1287
16390TIP3    H170585   0.345   6.199   5.972  0.4429 -0.3151  0.0154
16390TIP3    H270586   0.324   6.233   6.118  0.5246 -0.5904  0.0902
16391TIP3   OH270587   6.032   4.319  15.843 -0.4517 -0.2375  0.0900
16391TIP3    H170588   6.111   4.356  15.883  0.2266 -0.6912 -0.7750
16391TIP3    H270589   5.980   4.287  15.916 -0.0368  0.4759  0.7050
16392TIP3   OH270590   1.211   4.357   3.939 -0.6253  0.0947  0.1165
16392TIP3    H170591   1.301   4.362   3.970 -1.2867 -0.6328  2.3340
16392TIP3    H270592   1.176   4.446   3.951 -0.4608  0.1613  0.1008
16393TIP3   OH270593   3.496   0.987  13.234  0.1215 -0.6060  0.0995
16393TIP3    H170594   3.542   1.046  13.294 -1.1912 -0.2361  0.7781
16393TIP3    H270595   3.550   0.988  13.154  0.0387  1.7120 -0.0167
16394TIP3   OH270596   0.639   6.162   0.760  0.1422  0.4724  0.7056
16394TIP3    H170597   0.660   6.143   0.852  0.0544  0.0954  0.6496
16394TIP3    H270598   0.571   6.229   0.765  0.2741  0.5947  0.9116
16395TIP3   OH270599   2.793   5.324  11.041 -0.5020 -0.3246  0.4503
16395TIP3    H170600   2.715   5.276  11.012  0.1283 -1.4374  0.5374
16395TIP3    H270601   2.847   5.258  11.083  0.3861  0.4878  0.6149
16396TIP3   OH270602   0.210   2.181   5.576 -0.2735 -0.0483  0.3552
16396TIP3    H170603   0.149   2.238   5.530 -1.3333 -0.7069  0.8937
16396TIP3    H270604   0.167   2.095   5.576 -0.4129 -0.0539  2.6290
16397TIP3   OH270605   0.953   0.399  12.487  0.6005 -0.1806 -0.1381
16397TIP3    H170606   0.979   0.449  12.409  1.2022 -1.3723 -0.7374
16397TIP3    H270607   1.002   0.440  12.558 -1.4261  2.1873  0.0283
16398TIP3   OH270608   6.362   3.421  14.553  0.0273 -0.1787 -0.2983
16398TIP3    H170609   6.347   3.511  14.583 -1.1234  0.4880 -2.6248
16398TIP3    H270610   6.275   3.380  14.558  0.6552 -1.3927  1.3101
16399TIP3   OH270611   1.941   6.354   0.646 -0.2393  0.4563 -0.2103
16399TIP3    H170612   1.852   6.321   0.649 -0.0640 -0.1654 -1.2370
16399TIP3    H270613   1.931   6.450   0.646 -0.8516  0.3996  0.5850
16400TIP3   OH270614   4.547   2.419  12.708 -0.3276  0.2265 -0.1580
16400TIP3    H170615   4.490   2.496  12.705  1.3945  1.6988  1.7885
16400TIP3    H270616   4.629   2.450  12.670  0.6639 -0.3339  1.4282
16401TIP3   OH270617   5.679   1.926   2.785  0.3993  0.2391 -0.0888
16401TIP3    H170618   5.724   1.875   2.852 -0.0507 -0.7688 -0.5257
16401TIP3    H270619   5.656   2.008   2.828  0.2494 -0.3296  0.9388
16402TIP3   OH270620   6.751   2.573  17.000  0.4541  0.1454 -0.5417
16402TIP3    H170621   6.820   2.528  16.950  0.3348  1.2849 -1.7764
16402TIP3    H270622   6.735   2.515  17.075  1.6984 -0.8759 -1.0185
16403TIP3   OH270623   5.727   0.973   5.504  0.0275  0.7167 -0.8660
16403TIP3    H170624   5.805   0.985   5.560 -0.0297 -1.1991 -0.3218
16403TIP3    H270625   5.656   1.011   5.555 -0.5129 -3.2970  1.7587
16404TIP3   OH270626   6.611   5.908  11.762  0.1389  0.0650 -0.2450
16404TIP3    H170627   6.649   5.822  11.778  1.1128  0.6457  0.6572
16404TIP3    H270628   6.682   5.969  11.780 -1.1341  1.1718  1.2412
16405TIP3   OH270629   3.614   4.169  15.520 -0.6568  0.3170 -0.0513
16405TIP3    H170630   3.609   4.263  15.507 -0.4131  0.4886  0.9949
16405TIP3    H270631   3.659   4.136  15.442 -0.2524  1.1330 -0.1716
16406TIP3   OH270632   2.523   5.336   6.518  0.2671 -0.2274  0.2458
16406TIP3    H170633   2.493   5.256   6.560 -2.3126 -1.2497 -3.1213
16406TIP3    H270634   2.594   5.307   6.460  1.6388  0.5976  1.4497
16407TIP3   OH270635   2.505   1.570   0.665  0.0446  0.8889  0.2908
16407TIP3    H170636   2.499   1.505   0.735 -1.2774  0.7597  0.0841
16407TIP3    H270637   2.491   1.520   0.585  0.4942  1.2048  0.0106
16408TIP3   OH270638   4.659   3.422   2.521  0.2548  0.0965  0.5712
16408TIP3    H170639   4.706   3.341   2.499 -1.8603 -1.1415  0.3282
16408TIP3    H270640   4.672   3.478   2.444 -1.0765 -1.3810 -0.8069
16409TIP3   OH270641   2.560   4.549   5.807  0.0862  0.4224 -0.0452
16409TIP3    H170642   2.487   4.583   5.859 -1.5012  0.3544 -2.1071
16409TIP3    H270643   2.568   4.458   5.835  0.2285  0.7495  1.0594
16410TIP3   OH270644   2.599   3.689  13.031  0.0574 -0.4532 -0.2810
16410TIP3    H170645   2.551   3.772  13.035 -0.5484 -0.7195 -1.3460
16410TIP3    H270646   2.691   3.715  13.026  0.0097  0.0869  1.2350
16411TIP3   OH270647   6.745   6.304   5.190  0.0659 -0.3041 -0.4045
16411TIP3    H170648   6.821   6.256   5.223 -0.9231 -1.0186  0.9413
16411TIP3    H270649   6.670   6.248   5.213 -1.0221  1.3278  0.1650
16412TIP3   OH270650   2.093   1.715   0.023 -1.2746  0.0046  0.0281
16412TIP3    H170651   2.177   1.761   0.021 -0.6434 -0.8981  2.4230
16412TIP3    H270652   2.114   1.628  -0.011 -1.1109 -0.3371  0.9597
16413TIP3   OH270653   5.586   6.618  14.983 -0.0739  0.6963 -0.9614
16413TIP3    H170654   5.596   6.652  14.894 -1.5031  1.0331 -1.0092
16413TIP3    H270655   5.565   6.695  15.036 -1.0257  0.2384 -0.6589
16414TIP3   OH270656   5.721   5.534   2.645  1.0691  0.4904  0.3895
16414TIP3    H170657   5.760   5.586   2.575  0.3204  0.9022  0.2683
16414TIP3    H270658   5.775   5.553   2.722  1.0143  1.1951  0.2669
16415TIP3   OH270659   5.113   6.603  11.622  1.0079  0.0295 -0.0881
16415TIP3    H170660   5.206   6.592  11.639  0.7388 -0.0722  1.5174
16415TIP3    H270661   5.070   6.535  11.675  0.0970 -1.6224 -2.7662
16416TIP3   OH270662   1.102   4.909  10.747  0.1185 -0.3996  0.1126
16416TIP3    H170663   1.190   4.947  10.752 -0.5605  1.0995  2.0272
16416TIP3    H270664   1.059   4.957  10.676 -0.0902  1.1730  1.2251
16417TIP3   OH270665   0.209   2.748  14.554  0.1321  0.2188 -0.6821
16417TIP3    H170666   0.116   2.765  14.539  0.2025  1.0565 -0.1906
16417TIP3    H270667   0.213   2.708  14.640  0.1996 -0.1633 -0.8587
16418TIP3   OH270668   6.593   0.894  16.162 -0.3163 -0.0076 -0.3110
16418TIP3    H170669   6.685   0.870  16.151 -0.3718 -0.5836  0.3762
16418TIP3    H270670   6.573   0.952  16.088  0.7110  0.4575 -0.2271
16419TIP3   OH270671   5.421   0.258   3.363 -0.7645 -0.4902 -0.2073
16419TIP3    H170672   5.335   0.217   3.374 -0.4948 -1.1919 -0.6454
16419TIP3    H270673   5.444   0.241   3.272 -0.2394 -0.1497 -0.1416
16420TIP3   OH270674   0.444   4.352   3.463 -0.4346 -0.0322  0.2968
16420TIP3    H170675   0.446   4.323   3.554  1.8169 -0.4041  0.1895
16420TIP3    H270676   0.451   4.448   3.469 -2.0170  0.0939  0.5174
16421TIP3   OH270677   0.978   0.652  14.274  0.5786 -0.0153  0.4608
16421TIP3    H170678   1.025   0.572  14.297  1.2976  0.2148 -0.1579
16421TIP3    H270679   1.025   0.687  14.199 -0.6658  0.1679 -0.2642
16422TIP3   OH270680   1.754   6.134  10.799  0.7421  0.5636 -0.6121
16422TIP3    H170681   1.749   6.041  10.776 -0.4988  0.8380 -1.5800
16422TIP3    H270682   1.676   6.172  10.759  0.1449  1.6789  1.4895
16423TIP3   OH270683   0.938   0.710  11.361  0.1624  0.8554 -0.0831
16423TIP3    H170684   0.908   0.754  11.282  1.8415  1.1407 -0.6083
16423TIP3    H270685   1.027   0.680  11.340 -0.7323 -2.5951  0.3149
16424TIP3   OH270686   2.862   0.187   4.384  0.2502 -0.2270  0.1446
16424TIP3    H170687   2.915   0.108   4.394  3.0812  1.2639 -1.8457
16424TIP3    H270688   2.810   0.171   4.305 -0.6371 -0.7915  0.8206
16425TIP3   OH270689   3.194   1.683   3.793 -0.1276 -0.0612  0.3622
16425TIP3    H170690   3.186   1.647   3.704  1.6141  1.9966 -0.7328
16425TIP3    H270691   3.143   1.764   3.790 -0.3541 -0.1620  1.3619
16426TIP3   OH270692   5.621   5.166  13.520  0.1637 -0.2765  0.2981
16426TIP3    H170693   5.681   5.139  13.590  0.4900  1.6304  0.8160
16426TIP3    H270694   5.678   5.201  13.452 -0.2825  1.3386  0.6949
16427TIP3   OH270695   4.963   3.360  12.436  0.3002 -0.4995 -0.5206
16427TIP3    H170696   4.987   3.366  12.344 -1.2519 -2.4979 -1.1126
16427TIP3    H270697   4.994   3.274  12.464  2.3530  0.7546  1.3841
16428TIP3   OH270698   2.600   2.318   1.026  0.0831 -0.9201  0.0275
16428TIP3    H170699   2.542   2.355   0.959 -0.2090 -3.3119 -1.1347
16428TIP3    H270700   2.546   2.254   1.072  1.4588 -2.3850 -0.3296
16429TIP3   OH270701   5.965   5.918  16.963  0.1377  0.3667 -0.6444
16429TIP3    H170702   5.966   5.857  17.037 -0.3019  0.9566 -0.1371
16429TIP3    H270703   6.057   5.927  16.938  0.1620 -0.8750 -1.0493
16430TIP3   OH270704   5.333   0.345  16.542 -0.2633  0.0816 -0.4390
16430TIP3    H170705   5.364   0.321  16.454 -0.5668  0.5672 -0.6790
16430TIP3    H270706   5.269   0.414  16.527 -1.4945 -0.9196  0.0513
16431TIP3   OH270707   5.479   6.726   3.413 -0.8933  0.3384  0.3340
16431TIP3    H170708   5.513   6.781   3.342  0.8726 -0.2835  0.6493
16431TIP3    H270709   5.483   6.782   3.490 -1.4991  0.5729  0.1965
16432TIP3   OH270710   0.659   2.015  13.387 -0.2613 -0.0461 -0.5861
16432TIP3    H170711   0.641   1.986  13.297 -0.2461  0.1194 -0.6437
16432TIP3    H270712   0.587   2.074  13.408 -0.3194 -0.1645 -0.4518
16433TIP3   OH270713   5.793   6.715   5.170  0.0391  0.1500  0.9328
16433TIP3    H170714   5.854   6.642   5.177 -0.1777  0.0914  2.8686
16433TIP3    H270715   5.848   6.793   5.180  0.4554  0.3936 -2.3978
16434TIP3   OH270716   2.509   5.225  14.515 -0.2347 -0.0308 -0.1118
16434TIP3    H170717   2.471   5.283  14.449  1.1049  1.0554  0.0382
16434TIP3    H270718   2.457   5.241  14.594 -1.0873 -0.4732 -0.5669
16435TIP3   OH270719   2.479   4.688   6.223 -0.3103  0.1561  0.4214
16435TIP3    H170720   2.523   4.720   6.302 -0.6136 -0.5592  0.8955
16435TIP3    H270721   2.397   4.651   6.256 -0.3108 -0.4087 -0.2001
16436TIP3   OH270722   5.945   5.808  15.174 -0.3173  0.1231 -0.2301
16436TIP3    H170723   5.898   5.884  15.141 -1.8681  0.4833  2.4620
16436TIP3    H270724   5.982   5.837  15.258 -0.8823 -1.9947  0.8293
16437TIP3   OH270725   1.800   3.098   5.850  0.0119 -0.1962 -0.0136
16437TIP3    H170726   1.724   3.045   5.875  0.8510  0.1977  4.0355
16437TIP3    H270727   1.785   3.182   5.892  1.1757  1.0388 -1.9541
16438TIP3   OH270728   5.384   2.549  13.453 -0.0729 -0.3960  0.2340
16438TIP3    H170729   5.347   2.494  13.523 -0.9153 -1.6232 -1.1047
16438TIP3    H270730   5.350   2.510  13.372  0.5505  1.2142 -0.8517
16439TIP3   OH270731   5.998   0.711  16.753 -0.2774 -0.0287  0.3851
16439TIP3    H170732   5.908   0.684  16.736  0.3604 -1.6966 -0.5840
16439TIP3    H270733   6.033   0.644  16.811  0.4672  0.3984  0.4482
16440TIP3   OH270734   4.856   1.443  13.488  0.1144  0.0011 -0.0961
16440TIP3    H170735   4.952   1.447  13.491  0.0677  0.6157  2.4585
16440TIP3    H270736   4.838   1.364  13.436  2.0129 -0.8328  0.4019
16441TIP3   OH270737   6.520   5.244   0.759 -0.5552 -0.2432 -0.7295
16441TIP3    H170738   6.429   5.215   0.769 -0.9633  0.8665 -1.0464
16441TIP3    H270739   6.572   5.175   0.800 -1.5217 -1.0306 -0.7901
16442TIP3   OH270740   0.471   5.653  12.096  0.3214  0.4273 -0.0773
16442TIP3    H170741   0.439   5.706  12.023  3.4336  0.4629 -1.5540
16442TIP3    H270742   0.440   5.564  12.076  0.9150  0.4850 -1.3267
16443TIP3   OH270743   5.763   0.011  15.422  0.6523  0.0630  0.8041
16443TIP3    H170744   5.823  -0.007  15.494  2.1307 -2.6188 -0.8921
16443TIP3    H270745   5.820   0.028  15.347 -0.8157  2.6267  0.1412
16444TIP3   OH270746   3.918   4.656  16.230  0.0195 -0.3282 -0.0570
16444TIP3    H170747   3.948   4.568  16.205 -1.4166 -1.2430  1.2175
16444TIP3    H270748   3.859   4.683  16.160  0.9064 -0.1148 -0.7367
16445TIP3   OH270749   2.922   3.887   1.661 -0.1711  0.0228  0.1421
16445TIP3    H170750   2.947   3.795   1.670 -2.6012 -0.8344 -0.8348
16445TIP3    H270751   2.964   3.915   1.579 -1.1527 -0.9351 -0.7318
16446TIP3   OH270752   6.000   6.174   5.152 -0.3564 -0.4035 -0.0751
16446TIP3    H170753   6.063   6.120   5.201  0.3968  0.4084 -0.1104
16446TIP3    H270754   6.040   6.184   5.065 -0.9924 -0.6463 -0.4001
16447TIP3   OH270755   5.042   5.966   0.836  0.6306  0.2421 -0.0291
16447TIP3    H170756   5.010   5.877   0.850 -0.1735  0.0887 -2.4284
16447TIP3    H270757   4.976   6.022   0.875 -1.5148 -0.1509 -2.7666
16448TIP3   OH270758   5.719   3.399  16.692  0.1110  0.3798  0.8182
16448TIP3    H170759   5.659   3.436  16.628  1.2330  0.6725 -0.1026
16448TIP3    H270760   5.714   3.458  16.767 -0.5342  0.5525  0.6422
16449TIP3   OH270761   5.256   6.421  11.777  0.1091  0.7188 -0.1312
16449TIP3    H170762   5.163   6.401  11.761  0.4129 -1.1238  0.2331
16449TIP3    H270763   5.255   6.486  11.847 -0.9401  1.9521 -1.2362
16450TIP3   OH270764   5.715   1.705  15.432 -0.0309 -0.0135 -0.1112
16450TIP3    H170765   5.744   1.700  15.523 -0.9594 -0.4024  0.1805
16450TIP3    H270766   5.795   1.697  15.380  0.3392 -1.5421  0.6443
16451TIP3   OH270767   6.675   6.301  15.277  0.1820  0.0330 -0.2088
16451TIP3    H170768   6.647   6.268  15.191 -1.7546  1.2354 -0.0971
16451TIP3    H270769   6.729   6.378  15.256  1.0765 -0.6199 -0.3608
16452TIP3   OH270770   5.097   0.621  12.429  0.0488 -0.2694  0.5027
16452TIP3    H170771   5.160   0.670  12.375 -0.4877 -0.3902 -0.2481
16452TIP3    H270772   5.092   0.670  12.511  0.6702  0.0699  0.3439
16453TIP3   OH270773   0.768   3.002   5.527 -0.1815  0.2287  0.3721
16453TIP3    H170774   0.844   3.048   5.493  0.6013 -1.1091  0.2727
16453TIP3    H270775   0.750   3.045   5.611  1.6918 -0.4606  1.1803
16454TIP3   OH270776   1.938   3.181  15.431  0.4924 -0.7065 -0.0592
16454TIP3    H170777   1.867   3.214  15.377 -1.4424 -1.8576  1.6069
16454TIP3    H270778   1.986   3.121  15.374 -1.8672 -2.3879 -0.4460
16455TIP3   OH270779   1.359   5.434  10.739  0.7353  0.2989 -0.1906
16455TIP3    H170780   1.368   5.349  10.782  1.4053 -1.1105 -2.9004
16455TIP3    H270781   1.423   5.432  10.668  2.8688  4.2558  1.2929
16456TIP3   OH270782   4.031   5.410   4.785 -0.1187 -0.3072  0.6981
16456TIP3    H170783   4.096   5.480   4.796  1.0139 -1.2468  0.3002
16456TIP3    H270784   4.034   5.361   4.867  0.5716 -1.0490  0.2510
16457TIP3   OH270785   3.101   1.173  12.215 -0.6927 -0.0406  0.4669
16457TIP3    H170786   3.046   1.225  12.157  1.1009  0.6933 -0.6394
16457TIP3    H270787   3.091   1.083  12.184  0.6687  0.3965 -1.4463
16458TIP3   OH270788   4.908   5.424   4.201 -0.2111  0.0098  0.2331
16458TIP3    H170789   5.002   5.434   4.183 -0.4707  3.2426  0.0322
16458TIP3    H270790   4.898   5.459   4.290 -1.3516  0.8270 -0.2002
16459TIP3   OH270791   1.115   3.953   0.891  0.2351  0.2117  0.0086
16459TIP3    H170792   1.147   3.888   0.954 -0.2632  1.2273  1.3491
16459TIP3    H270793   1.060   3.903   0.830  1.0960 -0.8651  0.0894
16460TIP3   OH270794   5.061   3.397   4.764  0.2545  0.1198  0.6733
16460TIP3    H170795   5.003   3.391   4.840 -0.4322 -0.1797  0.1406
16460TIP3    H270796   5.002   3.396   4.689  0.9533 -0.3062  0.1095
16461TIP3   OH270797   4.057   0.969   4.524 -0.8850 -0.5538  0.0076
16461TIP3    H170798   4.104   1.010   4.451 -0.7652 -0.7830 -0.0462
16461TIP3    H270799   4.124   0.959   4.592 -0.6084 -1.7439 -0.4061
16462TIP3   OH270800   6.266   3.858   0.656 -0.0098  0.2767  0.3070
16462TIP3    H170801   6.279   3.774   0.614 -0.7784  0.0774  0.4614
16462TIP3    H270802   6.334   3.914   0.619 -0.6836  0.1262 -1.2267
16463TIP3   OH270803   4.442   2.229  12.506  0.4257  0.2302 -0.0546
16463TIP3    H170804   4.473   2.302  12.559  1.1948  0.2411 -0.5092
16463TIP3    H270805   4.520   2.179  12.484 -0.0130 -0.3791 -0.2809
16464TIP3   OH270806   4.917   5.200  11.992 -0.3046 -0.5559  0.4140
16464TIP3    H170807   5.008   5.187  12.021 -0.2587  1.1122  1.1019
16464TIP3    H270808   4.866   5.204  12.073 -0.6857  0.5756  0.1386
16465TIP3   OH270809   0.780   5.442  16.204  0.2059  0.4288  0.4811
16465TIP3    H170810   0.720   5.498  16.253  1.9723  0.3421  2.9614
16465TIP3    H270811   0.846   5.415  16.269  1.3410 -1.7503 -1.4184
16466TIP3   OH270812   6.504   2.454   0.466 -0.1740  0.0126  0.1433
16466TIP3    H170813   6.483   2.400   0.542 -1.0176  0.8845  0.5548
16466TIP3    H270814   6.445   2.423   0.397  0.0406 -0.2551  0.0810
16467TIP3   OH270815   1.050   4.989   3.131 -0.3645 -0.2626 -0.0035
16467TIP3    H170816   1.090   5.069   3.097  2.1120 -0.3978  2.2517
16467TIP3    H270817   1.054   4.927   3.058  0.9318  0.6216 -0.7197
16468TIP3   OH270818   1.849   5.005   1.620 -0.6534  0.3485  0.3412
16468TIP3    H170819   1.808   5.086   1.591  0.5153  0.8719  0.0976
16468TIP3    H270820   1.819   4.993   1.710 -1.2141  0.7922  0.2145
16469TIP3   OH270821   5.103   5.360  15.466 -0.0467 -0.0440  0.0979
16469TIP3    H170822   5.016   5.346  15.504 -0.3245 -1.5642 -1.0237
16469TIP3    H270823   5.132   5.273  15.438 -0.1129  0.9583 -3.6286
16470TIP3   OH270824   4.261   5.472   4.017 -0.8062 -0.1776  0.0543
16470TIP3    H170825   4.347   5.496   3.984 -1.0851  0.0292 -0.5437
16470TIP3    H270826   4.210   5.553   4.012 -0.2357  0.4941  3.2126
16471TIP3   OH270827   0.972   4.463   5.000  0.2344  0.2736 -0.1350
16471TIP3    H170828   0.927   4.397   5.053 -0.6289  1.6440  0.9073
16471TIP3    H270829   0.980   4.422   4.914  0.0723 -1.3328  0.5682
16472TIP3   OH270830   4.601   0.619  16.836 -0.0617  0.1611 -0.0162
16472TIP3    H170831   4.510   0.588  16.841 -0.3409  0.8286 -0.6808
16472TIP3    H270832   4.598   0.705  16.877  0.0180  0.6775 -1.0496
16473TIP3   OH270833   4.305   1.389  11.458 -0.2115  0.2687 -0.8735
16473TIP3    H170834   4.228   1.413  11.406 -0.1868  2.0701 -0.1582
16473TIP3    H270835   4.291   1.296  11.480 -0.7651 -0.2255 -3.0768
16474TIP3   OH270836   6.507   4.570   0.395 -0.1032 -0.1959 -0.5999
16474TIP3    H170837   6.434   4.549   0.453 -1.5319 -0.0429 -2.2404
16474TIP3    H270838   6.545   4.485   0.372  1.3978 -0.1867  1.5950
16475TIP3   OH270839   2.747   1.074  13.768 -0.2946  0.0193  0.2352
16475TIP3    H170840   2.832   1.099  13.805  0.0784 -0.9334  0.0573
16475TIP3    H270841   2.766   1.048  13.678 -0.8137  0.0509  0.1147
16476TIP3   OH270842   0.789   1.154  11.933  0.0822  0.0321  0.5638
16476TIP3    H170843   0.745   1.239  11.931 -0.0462 -0.0166  1.0749
16476TIP3    H270844   0.852   1.161  12.005  0.5329 -0.0813  0.1806
16477TIP3   OH270845   2.738   2.697  10.976 -0.4454  0.0432 -0.0877
16477TIP3    H170846   2.663   2.756  10.976 -2.1465 -1.9403  2.0164
16477TIP3    H270847   2.707   2.618  10.931  1.1937  0.0277 -1.2834
16478TIP3   OH270848   1.260   0.964   1.021 -0.5895 -0.0353  0.1074
16478TIP3    H170849   1.349   0.928   1.026 -0.6947 -0.1942  0.9485
16478TIP3    H270850   1.236   0.981   1.112 -1.1078  0.7886 -0.1729
16479TIP3   OH270851   1.511   1.854  15.359  0.4935  0.1350  0.0993
16479TIP3    H170852   1.532   1.770  15.319 -0.5701 -0.1893  0.2018
16479TIP3    H270853   1.448   1.833  15.428  0.8537  0.9163  0.6837
16480TIP3   OH270854   5.922   3.432  15.632  0.3501 -0.5115 -0.6884
16480TIP3    H170855   5.853   3.495  15.610  2.0689  1.7613  0.1189
16480TIP3    H270856   5.988   3.444  15.564  1.2787 -0.5203  0.1969
16481TIP3   OH270857   0.902   5.455  14.299 -0.4536  0.0151  0.0206
16481TIP3    H170858   0.824   5.412  14.333  0.3748 -0.4846  1.4010
16481TIP3    H270859   0.925   5.405  14.221 -1.2627 -0.0979 -0.1516
16482TIP3   OH270860   5.402   0.318  14.979  0.0444  0.3655 -0.3537
16482TIP3    H170861   5.351   0.386  14.933  2.3945  1.5021 -1.4520
16482TIP3    H270862   5.390   0.239  14.927  0.8475  1.0820 -1.6573
16483TIP3   OH270863   4.990   4.293   3.892  0.5047 -0.2666  0.0792
16483TIP3    H170864   5.074   4.316   3.931  1.0763 -1.8442 -0.1623
16483TIP3    H270865   4.986   4.198   3.897 -1.0088 -0.2596 -0.4599
16484TIP3   OH270866   4.195   0.076  13.407 -0.0527 -0.0556 -0.1099
16484TIP3    H170867   4.162   0.139  13.343 -1.0204  0.8964  1.2640
16484TIP3    H270868   4.163  -0.009  13.376 -1.9290  0.5745 -0.0575
16485TIP3   OH270869   0.952   0.040  16.859  1.0091  0.0829 -0.0587
16485TIP3    H170870   0.996   0.124  16.847 -0.0186  0.5898 -0.3821
16485TIP3    H270871   1.016  -0.015  16.904  1.6229  1.0981  0.3285
16486TIP3   OH270872   1.318   1.540   4.803 -0.1241 -0.1635 -0.3150
16486TIP3    H170873   1.248   1.546   4.738  0.7639  0.0530 -1.2872
16486TIP3    H270874   1.389   1.494   4.757  0.5109 -0.0367  0.5161
16487TIP3   OH270875   1.930   0.991   2.973  0.1348  0.6789 -0.0108
16487TIP3    H170876   1.865   0.937   2.928  1.2951  0.4876 -1.5792
16487TIP3    H270877   1.967   0.933   3.040  1.6249 -0.7172 -1.9070
16488TIP3   OH270878   0.330   6.515   2.475 -0.6261  0.2012  0.0406
16488TIP3    H170879   0.339   6.520   2.570 -1.0361  0.8371  0.0566
16488TIP3    H270880   0.420   6.518   2.442 -0.4151 -1.1173  0.4335
16489TIP3   OH270881   3.268   3.553   2.083 -0.2301  0.0003  0.7928
16489TIP3    H170882   3.287   3.531   1.992 -0.4067  0.9032  0.5289
16489TIP3    H270883   3.194   3.497   2.106  0.7001 -1.2684  0.8440
16490TIP3   OH270884   4.773   0.279  12.159 -0.3138  0.1364 -0.2474
16490TIP3    H170885   4.715   0.270  12.083 -0.6529  0.3139 -0.0140
16490TIP3    H270886   4.749   0.364  12.197 -1.4322 -0.7313  1.1028
16491TIP3   OH270887   3.474   5.853   6.096  0.0055  0.4168 -0.0283
16491TIP3    H170888   3.388   5.824   6.126 -0.0445 -0.0964 -0.6267
16491TIP3    H270889   3.472   5.836   6.001  1.0646 -0.3882  0.0794
16492TIP3   OH270890   0.614   5.809   5.474  0.2413  0.4683  0.5006
16492TIP3    H170891   0.687   5.787   5.531  0.6355  0.9625  0.1947
16492TIP3    H270892   0.551   5.852   5.532  0.2085  0.0746  0.7575
16493TIP3   OH270893   1.460   5.682   5.558 -0.6904 -0.3278 -0.0436
16493TIP3    H170894   1.460   5.603   5.612  0.1601 -0.9016 -0.8765
16493TIP3    H270895   1.551   5.712   5.559 -0.9310  0.4304 -0.0552
16494TIP3   OH270896   3.750   5.917  11.767 -0.5540 -0.1651 -0.4326
16494TIP3    H170897   3.694   5.954  11.835 -0.1317 -0.2424 -0.0386
16494TIP3    H270898   3.802   5.992  11.736  0.9549 -0.5632  1.0016
16495TIP3   OH270899   5.591   4.700  14.517  0.2940 -0.5777  0.0086
16495TIP3    H170900   5.650   4.625  14.513  0.8053 -0.2054  0.3020
16495TIP3    H270901   5.649   4.775  14.533  0.0760  0.2488 -2.6388
16496TIP3   OH270902   1.293   2.858   3.050 -0.5278 -0.1558  0.4408
16496TIP3    H170903   1.375   2.907   3.056  0.5431 -1.9114  0.9089
16496TIP3    H270904   1.229   2.922   3.018  0.8735  1.4147  0.6382
16497TIP3   OH270905   3.343   2.156  12.828  0.4408 -0.3921  0.0847
16497TIP3    H170906   3.287   2.163  12.751  0.2502 -1.9540  0.0382
16497TIP3    H270907   3.286   2.179  12.901  0.0456 -0.8878 -0.0641
16498TIP3   OH270908   5.921   1.756  12.001  0.4712  0.2001 -0.5961
16498TIP3    H170909   5.994   1.765  12.062 -0.1519  1.7829 -0.0116
16498TIP3    H270910   5.854   1.815  12.036  0.4391  1.9626 -3.3050
16499TIP3   OH270911   6.108   3.665  14.159  0.0126  0.0175  0.6858
16499TIP3    H170912   6.129   3.572  14.147 -1.4375 -0.3448  0.7142
16499TIP3    H270913   6.016   3.672  14.133  0.2846  1.5986  0.0048
16500TIP3   OH270914   4.578   0.054  15.244  0.0377 -0.3543  0.2370
16500TIP3    H170915   4.508   0.100  15.197 -0.0056  0.0624  0.6996
16500TIP3    H270916   4.658   0.082  15.201 -0.0594 -0.6789 -0.1667
16501TIP3   OH270917   2.000   2.975  16.939  0.2283 -0.0326  0.2586
16501TIP3    H170918   1.988   3.062  16.976 -0.9621  0.0141 -0.1866
16501TIP3    H270919   2.090   2.952  16.960  0.7469  1.5484 -0.1397
16502TIP3   OH270920   1.332   6.425  12.229 -0.6457  0.2998  0.1295
16502TIP3    H170921   1.357   6.368  12.302  0.4305  0.6371  0.0538
16502TIP3    H270922   1.409   6.481  12.217 -0.9988  0.5571 -0.9601
16503TIP3   OH270923   4.651   2.412   4.623 -0.3436  0.5882  0.7358
16503TIP3    H170924   4.577   2.442   4.676  0.9812  1.0532  2.4168
16503TIP3    H270925   4.691   2.493   4.590 -1.4451  0.2936 -1.4930
16504TIP3   OH270926   3.417   5.207   3.409 -0.2158 -0.6356 -0.3392
16504TIP3    H170927   3.375   5.137   3.458  0.2616 -0.9020 -0.2966
16504TIP3    H270928   3.351   5.276   3.403 -0.0000 -0.2199  1.4672
16505TIP3   OH270929   0.489   0.935  15.128  0.0637 -0.1342 -0.0075
16505TIP3    H170930   0.445   0.865  15.177  1.1494 -2.2140 -1.8191
16505TIP3    H270931   0.419   0.998  15.110 -1.5035 -1.7906 -0.0970
16506TIP3   OH270932   3.026   4.249  15.165 -0.2881  0.4051 -0.3157
16506TIP3    H170933   2.973   4.224  15.240 -0.7270  1.0787 -0.3906
16506TIP3    H270934   3.027   4.171  15.109  0.7473 -0.3843  0.7650
16507TIP3   OH270935   1.124   0.961  11.967 -0.2369  0.0731  0.2398
16507TIP3    H170936   1.113   0.872  11.999 -0.2092  0.0902  0.2954
16507TIP3    H270937   1.161   1.010  12.041  3.0942 -0.6288 -0.7834
16508TIP3   OH270938   1.448   1.385   5.157  0.0360 -0.0325 -0.1512
16508TIP3    H170939   1.364   1.381   5.111  0.1049 -0.1278 -0.2708
16508TIP3    H270940   1.427   1.363   5.248 -0.7313  3.6665  0.7357
16509TIP3   OH270941   5.780   4.156  12.653 -0.8770 -0.1782  0.3180
16509TIP3    H170942   5.772   4.135  12.746  0.3531 -1.4181  0.1875
16509TIP3    H270943   5.717   4.097  12.610 -0.5478 -0.5000  0.2751
16510TIP3   OH270944   3.137   1.954   1.076  0.2074 -0.1476  0.1864
16510TIP3    H170945   3.079   1.881   1.059  0.2128  0.2611 -1.8332
16510TIP3    H270946   3.225   1.917   1.068  0.2132 -0.0733 -0.0949
16511TIP3   OH270947   3.888   0.502   1.264 -0.3166 -1.3008 -0.2284
16511TIP3    H170948   3.916   0.533   1.178 -0.3343 -1.5377 -0.3202
16511TIP3    H270949   3.905   0.407   1.262  2.4045 -0.9313  1.0350
16512TIP3   OH270950   5.141   0.018   2.321 -0.5427 -0.8697 -0.0340
16512TIP3    H170951   5.234   0.031   2.305 -0.4245 -0.7966  0.6496
16512TIP3    H270952   5.097   0.068   2.253 -0.0916 -2.1672 -1.3307
16513TIP3   OH270953   0.819   3.976  14.920 -0.0976  0.0029  0.5184
16513TIP3    H170954   0.850   3.911  14.984 -3.0614 -2.1212  0.0235
16513TIP3    H270955   0.825   3.931  14.836  1.4623  1.8823 -0.4401
16514TIP3   OH270956   4.908   6.575   4.846 -0.2120  0.7380  1.0431
16514TIP3    H170957   4.870   6.538   4.765  0.3833  0.0512  1.0686
16514TIP3    H270958   4.985   6.623   4.816 -1.5200  2.8557  0.8915
16515TIP3   OH270959   3.992   1.447   5.570  0.0113 -0.3165 -0.0305
16515TIP3    H170960   3.972   1.385   5.640 -1.9728 -0.4082 -0.6165
16515TIP3    H270961   4.016   1.392   5.496 -1.6298 -0.4553 -0.5135
16516TIP3   OH270962   1.245   0.129   3.411  0.8289 -0.1021  0.3238
16516TIP3    H170963   1.211   0.058   3.466 -0.8038  0.7866  0.5203
16516TIP3    H270964   1.289   0.084   3.339  0.4910 -1.3097  0.8441
16517TIP3   OH270965   0.944   3.349   0.692 -0.2150  0.6696 -0.0614
16517TIP3    H170966   0.920   3.423   0.747 -0.6681  0.6286 -0.1981
16517TIP3    H270967   0.922   3.272   0.745 -0.3252  0.6335 -0.1572
16518TIP3   OH270968   3.596   4.930  13.014 -0.3898 -0.1634 -0.5983
16518TIP3    H170969   3.587   5.014  13.060  0.4756 -0.2387 -0.2771
16518TIP3    H270970   3.626   4.869  13.081 -2.3803 -1.0966 -0.4917
16519TIP3   OH270971   4.231   0.276   0.603  0.1679  0.3955 -0.1053
16519TIP3    H170972   4.241   0.364   0.565 -0.5756  0.4305 -0.2423
16519TIP3    H270973   4.142   0.251   0.581  0.4906 -0.5514 -0.3826
16520TIP3   OH270974   4.032   5.734  12.037  0.1441  0.0781 -0.7257
16520TIP3    H170975   4.093   5.717  12.109 -2.0334 -1.2062  0.9536
16520TIP3    H270976   3.980   5.808  12.068 -0.4846 -0.1598 -1.2023
16521TIP3   OH270977   6.633   1.926  14.340  0.0336 -0.7214 -0.6796
16521TIP3    H170978   6.602   1.864  14.406  2.6968 -1.2990  0.1305
16521TIP3    H270979   6.718   1.892  14.312  1.4779  2.3382 -0.4486
16522TIP3   OH270980   5.102   4.880   2.418 -0.1775 -1.3682  0.4069
16522TIP3    H170981   5.115   4.798   2.370  1.6157 -1.2863  0.6499
16522TIP3    H270982   5.176   4.883   2.479 -0.7070  0.0110  1.0165
16523TIP3   OH270983   0.679   1.363  15.276  0.0810  0.7086  0.0242
16523TIP3    H170984   0.686   1.268  15.267 -2.3389  0.3828  0.9701
16523TIP3    H270985   0.640   1.392  15.194 -1.0253  0.5898  0.4848
16524TIP3   OH270986   1.621   5.472  13.867  0.3639  0.0563 -0.6039
16524TIP3    H170987   1.710   5.461  13.900  0.7478  1.0612 -1.2684
16524TIP3    H270988   1.571   5.403  13.910  1.2603  0.0793  0.5296
16525TIP3   OH270989   5.087   2.148  12.340 -0.2930  0.3915  0.1231
16525TIP3    H170990   5.105   2.233  12.301  2.2687  0.2963  0.8730
16525TIP3    H270991   5.134   2.086  12.283  1.8955  0.0609  2.1222
16526TIP3   OH270992   5.125   0.005   4.160  0.5992 -0.6185  0.1224
16526TIP3    H170993   5.159   0.000   4.070  1.5548  0.8370  0.3631
16526TIP3    H270994   5.201  -0.016   4.215  0.5299  0.3729  0.6203
16527TIP3   OH270995   1.659   6.453   0.165 -0.3970 -0.2801  0.2548
16527TIP3    H170996   1.732   6.421   0.219  0.9646  3.1059  0.6463
16527TIP3    H270997   1.584   6.456   0.225  0.0922 -0.3009  0.8806
16528TIP3   OH270998   0.938   6.569  10.927 -0.4087  0.1695  0.9922
16528TIP3    H170999   0.873   6.553  10.859  1.2634 -0.6601 -0.4983
16528TIP3    H271000   0.904   6.524  11.004 -1.0886 -1.2208 -0.0668
16529TIP3   OH271001   5.383   1.663  13.073 -0.0443 -0.3536 -0.1296
16529TIP3    H171002   5.345   1.747  13.100  0.4348 -0.3100  0.4172
16529TIP3    H271003   5.336   1.598  13.125  0.6172 -0.3004  0.5406
16530TIP3   OH271004   3.049   2.392   1.251  0.1542 -0.2032 -1.1671
16530TIP3    H171005   3.040   2.450   1.176  1.6868 -0.1447 -1.3179
16530TIP3    H271006   3.038   2.450   1.327  0.1840  0.0184 -1.3310
16531TIP3   OH271007   2.508   4.007   3.572  0.2999 -0.1924  0.6220
16531TIP3    H171008   2.597   3.973   3.573 -0.4042 -2.2304  2.3832
16531TIP3    H271009   2.461   3.953   3.636 -1.4004  3.0783  2.3881
16532TIP3   OH271010   6.090   0.679  14.532  0.0699  0.0198 -0.6309
16532TIP3    H171011   6.148   0.605  14.513 -1.6588 -0.8286 -3.1394
16532TIP3    H271012   6.070   0.669  14.625  0.8233 -1.9932 -0.6245
16533TIP3   OH271013   1.068   6.485   1.731  0.3042 -0.1035  0.5822
16533TIP3    H171014   1.162   6.474   1.744  0.6380  0.5916 -1.0405
16533TIP3    H271015   1.038   6.400   1.698  0.9387  0.4956 -1.7141
16534TIP3   OH271016   5.721   6.030   4.827 -0.0315 -0.0449 -0.4900
16534TIP3    H171017   5.769   6.112   4.816 -1.2262  0.9250  1.0972
16534TIP3    H271018   5.643   6.040   4.772  1.1442 -1.3285 -2.5086
16535TIP3   OH271019   4.102   4.385  16.147  0.1657 -0.4125  0.2336
16535TIP3    H171020   4.012   4.354  16.153  0.1162 -0.1723  0.7955
16535TIP3    H271021   4.150   4.311  16.111 -0.5247 -0.0135 -1.6037
16536TIP3   OH271022   2.756   2.173   4.870 -0.0537 -0.6986 -0.4464
16536TIP3    H171023   2.837   2.125   4.886  0.0724  0.1674  1.8555
16536TIP3    H271024   2.761   2.249   4.928 -3.0475 -1.2734  0.7601
16537TIP3   OH271025   0.743   6.095   6.087 -0.2436  0.4472 -0.0121
16537TIP3    H171026   0.726   6.149   6.164  1.4813 -0.8412  1.3583
16537TIP3    H271027   0.837   6.078   6.090 -0.6614 -2.4494 -0.4331
16538TIP3   OH271028   3.940   5.091   5.806 -0.4542 -0.1766 -0.0796
16538TIP3    H171029   3.849   5.064   5.797 -0.1216 -1.7950  1.1056
16538TIP3    H271030   3.968   5.109   5.716 -1.1489 -2.4316 -0.8181
16539TIP3   OH271031   3.017   1.808   1.664  0.1346 -0.4656  0.0320
16539TIP3    H171032   3.031   1.880   1.725 -1.4491 -0.4732  0.4331
16539TIP3    H271033   3.094   1.751   1.676  0.9800  0.7075  0.3129
16540TIP3   OH271034   3.620   3.111  12.125 -0.1454  0.0709 -0.5998
16540TIP3    H171035   3.674   3.058  12.067  1.3667 -0.1705  0.9398
16540TIP3    H271036   3.605   3.193  12.076 -0.2149 -0.6980 -1.9026
16541TIP3   OH271037   3.300   1.276  13.958  0.0537 -0.4039 -0.8047
16541TIP3    H171038   3.363   1.318  14.016  0.0514 -0.0516 -1.0519
16541TIP3    H271039   3.283   1.342  13.890 -1.3437 -0.0826 -0.1968
16542TIP3   OH271040   4.070   4.184   0.986 -0.2152  0.0477  0.6709
16542TIP3    H171041   4.033   4.255   0.934 -0.6340 -1.0872 -0.6461
16542TIP3    H271042   4.157   4.169   0.949  0.1584  0.3318  1.4117
16543TIP3   OH271043   0.318   2.021   1.487 -0.0623  0.6168  0.4348
16543TIP3    H171044   0.257   2.000   1.416  1.5643  0.5256 -0.9961
16543TIP3    H271045   0.309   1.948   1.549 -1.3400  0.5773  0.2281
16544TIP3   OH271046   3.575   1.807  10.892 -0.2212  0.3717  0.9900
16544TIP3    H171047   3.570   1.888  10.943 -1.2826  0.0181  1.4659
16544TIP3    H271048   3.658   1.814  10.845 -2.3210  4.0145 -2.8529
16545TIP3   OH271049   1.542   6.790  10.699  0.5230  0.4976  0.0981
16545TIP3    H171050   1.629   6.797  10.738  2.2452 -1.2312 -2.9949
16545TIP3    H271051   1.534   6.869  10.645 -0.9190  1.8089  2.1060
16546TIP3   OH271052   2.295   3.929  11.730 -0.2941  0.3493  0.9210
16546TIP3    H171053   2.280   4.022  11.748  0.1103  0.1908  2.2183
16546TIP3    H271054   2.363   3.903  11.793 -2.8390 -1.6408  3.0634
16547TIP3   OH271055   5.010   5.662   5.100  0.2527 -0.4002  0.6913
16547TIP3    H171056   4.975   5.573   5.109  2.0282 -1.2899 -0.6270
16547TIP3    H271057   5.036   5.686   5.189 -1.5748 -0.5845  1.3162
16548TIP3   OH271058   6.371   2.848  12.002  0.0058 -0.4396 -0.0337
16548TIP3    H171059   6.378   2.939  11.973  1.0180  0.3666  2.4885
16548TIP3    H271060   6.459   2.825  12.032 -0.6128 -1.6706  0.9261
16549TIP3   OH271061   2.944   6.365   1.147 -0.4741  0.2457 -0.0076
16549TIP3    H171062   2.876   6.298   1.154 -1.6555  1.5231  1.7883
16549TIP3    H271063   2.979   6.373   1.236  2.5139 -0.7654 -0.9695
16550TIP3   OH271064   0.870   0.649   5.242  0.5361  0.4820 -0.4104
16550TIP3    H171065   0.843   0.667   5.151 -1.3755  1.1532  0.2354
16550TIP3    H271066   0.869   0.735   5.284  0.2372  0.0382  0.5181
16551TIP3   OH271067   2.196   2.486   6.630  0.0307 -0.6804 -0.3568
16551TIP3    H171068   2.167   2.395   6.634 -0.6586 -0.4913 -0.9079
16551TIP3    H271069   2.290   2.482   6.649  0.0835 -1.5428 -0.7365
16552TIP3   OH271070   4.930   0.125   3.139  0.4635  0.1744  0.7480
16552TIP3    H171071   5.016   0.165   3.146  1.5470 -1.9027  0.0543
16552TIP3    H271072   4.905   0.137   3.048  0.2856  0.2019  0.7987
16553TIP3   OH271073   6.543   3.201   2.373  0.5146 -0.1299  0.6061
16553TIP3    H171074   6.468   3.261   2.377  1.7809  1.5136  0.5748
16553TIP3    H271075   6.548   3.176   2.280  0.8001  0.8340  0.3502
16554TIP3   OH271076   0.366   1.187   5.526 -0.1587 -0.0793  0.4630
16554TIP3    H171077   0.383   1.228   5.441 -0.3843  0.5005  0.6914
16554TIP3    H271078   0.292   1.129   5.510 -1.2433  1.2169  0.6036
16555TIP3   OH271079   1.567   0.171  16.025 -0.0948  0.1023  0.0403
16555TIP3    H171080   1.553   0.236  15.956 -0.4191 -1.9545 -1.9351
16555TIP3    H271081   1.658   0.145  16.016  0.2110  0.6671  1.2353
16556TIP3   OH271082   5.607   2.639  14.787 -0.2465  0.4589  0.4058
16556TIP3    H171083   5.540   2.649  14.854  0.5849  1.9466  1.0682
16556TIP3    H271084   5.688   2.670  14.828  0.1460  2.1359 -1.4627
16557TIP3   OH271085   3.577   6.469  12.205  0.4966  0.1893 -0.2562
16557TIP3    H171086   3.611   6.380  12.194 -1.1616 -0.4612 -0.3471
16557TIP3    H271087   3.598   6.513  12.123  3.3632  0.6634  0.5984
16558TIP3   OH271088   1.122   6.418   0.846 -0.4123  0.0209  0.5008
16558TIP3    H171089   1.075   6.342   0.879 -0.1539 -0.6666 -0.6662
16558TIP3    H271090   1.057   6.489   0.847 -1.7332 -1.0666 -1.7616
16559TIP3   OH271091   5.193   1.581  14.897  0.3778  0.1492  0.1804
16559TIP3    H171092   5.246   1.501  14.890 -2.5831 -1.9638 -0.0860
16559TIP3    H271093   5.186   1.596  14.991  0.1452 -0.5462  0.2860
16560TIP3   OH271094   2.723   2.165  14.754 -0.0666  0.4065 -0.1026
16560TIP3    H171095   2.632   2.148  14.729 -0.0008  0.0743 -0.1309
16560TIP3    H271096   2.744   2.095  14.816 -0.7211  2.1023  2.1361
16561TIP3   OH271097   5.530   0.547  15.066  0.1179 -0.1337  0.3592
16561TIP3    H171098   5.517   0.453  15.048  2.1620 -0.6604  1.2704
16561TIP3    H271099   5.548   0.585  14.980  0.5621 -0.8454  0.1208
16562TIP3   OH271100   6.391   5.791  11.952  0.3724  0.6452 -0.9587
16562TIP3    H171101   6.408   5.811  12.044 -1.1611  1.1399 -0.7490
16562TIP3    H271102   6.441   5.857  11.903 -0.1754  1.4845 -0.4193
16563TIP3   OH271103   5.118   4.426   5.869  0.6632 -0.1003 -0.3557
16563TIP3    H171104   5.140   4.343   5.826 -0.2278 -0.5346 -0.0091
16563TIP3    H271105   5.048   4.403   5.930 -0.1476  1.0479 -0.8250
16564TIP3   OH271106   2.304   6.233  17.054 -0.0165 -0.0210 -0.4302
16564TIP3    H171107   2.377   6.228  17.116 -0.8709  2.8369  1.0216
16564TIP3    H271108   2.229   6.202  17.104 -0.3778  0.3295 -0.7563
16565TIP3   OH271109   6.774   4.136   1.656  0.2485  0.2435 -0.7181
16565TIP3    H171110   6.777   4.186   1.737  2.8489  1.1095 -1.2441
16565TIP3    H271111   6.681   4.129   1.635 -0.3825  1.6276  1.3285
16566TIP3   OH271112   4.656   4.265   6.197  0.4932  0.1379  0.0149
16566TIP3    H171113   4.679   4.348   6.155  0.4431 -0.4314 -1.1771
16566TIP3    H271114   4.625   4.290   6.284 -0.2480  1.4306 -0.5972
16567TIP3   OH271115   1.058   0.546  12.247 -0.0141 -0.2607  0.3091
16567TIP3    H171116   1.098   0.577  12.166  0.5284  0.6696  0.9213
16567TIP3    H271117   1.132   0.524  12.304 -0.3871 -1.6573  0.2920
16568TIP3   OH271118   4.034   3.247   2.175  0.2005 -0.2526  0.7265
16568TIP3    H171119   4.102   3.188   2.205  1.3628  0.2195 -0.8288
16568TIP3    H271120   3.978   3.193   2.119  1.0762  0.0132 -0.4345
16569TIP3   OH271121   1.714   4.451  16.346 -0.0385 -0.1854  0.3354
16569TIP3    H171122   1.637   4.437  16.401  0.6731  0.3538  1.5260
16569TIP3    H271123   1.785   4.467  16.409  0.3711  2.7676 -0.7353
16570TIP3   OH271124   3.261   1.012   3.005 -0.7076  0.1789  0.4861
16570TIP3    H171125   3.311   1.010   3.086 -1.3527  0.9408  0.9238
16570TIP3    H271126   3.244   1.105   2.990 -1.3720 -0.0167 -0.0318
16571TIP3   OH271127   1.550   2.096  11.300 -0.5240 -0.4372 -0.4523
16571TIP3    H171128   1.631   2.076  11.253  0.4109 -0.3849  1.0435
16571TIP3    H271129   1.488   2.120  11.232  0.1855 -2.1763 -1.8034
16572TIP3   OH271130   6.723   5.957   5.253 -0.0182 -0.1243  0.2522
16572TIP3    H171131   6.693   5.876   5.296 -0.4181  0.5091  1.2019
16572TIP3    H271132   6.817   5.945   5.243  0.3037  0.1518  2.3801
16573TIP3   OH271133   4.638   4.753  11.390  0.6633 -0.0524  0.5178
16573TIP3    H171134   4.725   4.724  11.416  0.8739 -0.3877 -0.4893
16573TIP3    H271135   4.644   4.761  11.295 -0.6760 -1.0134  0.3306
16574TIP3   OH271136   1.113   2.323  16.702  0.1507 -0.5969 -0.3727
16574TIP3    H171137   1.116   2.398  16.643  0.8312 -0.7137 -0.4982
16574TIP3    H271138   1.192   2.332  16.756  0.2253 -1.2028 -0.3720
16575TIP3   OH271139   0.401   0.468  10.988  0.4392 -0.6438 -0.3279
16575TIP3    H171140   0.407   0.564  10.988  0.8058 -0.6451  0.8459
16575TIP3    H271141   0.316   0.449  11.028  0.5719 -0.8093 -0.1211
16576TIP3   OH271142   1.980   3.542   4.838 -0.0454 -0.2739 -0.3618
16576TIP3    H171143   1.929   3.481   4.785 -0.6464  0.1055 -0.2337
16576TIP3    H271144   1.932   3.547   4.921  0.0321  0.3279 -0.3534
16577TIP3   OH271145   3.136   1.526   4.227  0.0218 -0.0368  0.0560
16577TIP3    H171146   3.111   1.514   4.135 -0.7229  0.6548  0.1538
16577TIP3    H271147   3.064   1.486   4.276 -0.8668  1.7959  0.3402
16578TIP3   OH271148   3.066   4.991   6.635 -0.0190 -0.1484  0.1092
16578TIP3    H171149   3.061   4.921   6.701 -0.0714  0.6864  1.0079
16578TIP3    H271150   3.152   5.031   6.649  0.9897 -1.4440 -1.8969
16579TIP3   OH271151   3.963   3.740  15.501 -0.1567 -0.6011 -0.4826
16579TIP3    H171152   4.029   3.739  15.571  0.5586 -0.7887 -1.1504
16579TIP3    H271153   3.916   3.823  15.514 -0.7248 -1.0956  0.8343
16580TIP3   OH271154   5.305   5.991  11.916 -0.6041  0.2880 -0.0072
16580TIP3    H171155   5.277   6.076  11.950 -0.4285  0.4278 -0.2156
16580TIP3    H271156   5.399   5.999  11.904 -0.3121 -0.4795  1.5488
16581TIP3   OH271157   5.078   4.515   2.898 -0.6504  0.0520  0.2930
16581TIP3    H171158   5.145   4.452   2.928  0.2986  0.5254 -0.7678
16581TIP3    H271159   5.102   4.534   2.808 -0.6900  2.2261  0.6939
16582TIP3   OH271160   2.918   1.377  14.244  0.5448  0.1811  0.6116
16582TIP3    H171161   2.981   1.415  14.182  0.4199  0.1952  0.4919
16582TIP3    H271162   2.948   1.287  14.256  0.2575  0.0161  0.1092
16583TIP3   OH271163   2.988   3.141   3.311 -0.3507  0.3444 -0.6372
16583TIP3    H171164   2.989   3.061   3.364  0.5658  1.4443  1.0919
16583TIP3    H271165   3.049   3.122   3.239  1.4284  0.1353  0.8439
16584TIP3   OH271166   2.241   5.443   0.007 -0.3347 -0.0134  0.2908
16584TIP3    H171167   2.228   5.523  -0.044  0.4250 -0.7724 -1.1697
16584TIP3    H271168   2.336   5.432   0.010 -0.4368 -1.0244  0.1907
16585TIP3   OH271169   4.972   6.420  11.752 -0.1482 -0.5585 -0.3224
16585TIP3    H171170   4.937   6.331  11.746  1.0595 -1.0434 -0.4528
16585TIP3    H271171   4.909   6.466  11.807 -1.2702 -1.2389 -0.9803
16586TIP3   OH271172   6.109   2.569  15.837  0.0532  0.2632 -0.4673
16586TIP3    H171173   6.042   2.628  15.871  0.3747  0.6819 -0.5441
16586TIP3    H271174   6.140   2.611  15.757 -0.5287 -0.5958 -1.1550
16587TIP3   OH271175   4.395   4.275  16.718 -0.3998 -0.2678  0.2262
16587TIP3    H171176   4.488   4.290  16.730 -0.5249  1.2011 -0.4970
16587TIP3    H271177   4.355   4.304  16.801 -0.1346 -2.2395  1.1100
16588TIP3   OH271178   1.711   6.594   3.791  0.2006  0.6138 -0.0623
16588TIP3    H171179   1.627   6.565   3.756  1.0998 -1.5378 -0.6398
16588TIP3    H271180   1.723   6.541   3.871  0.7191  1.3769  0.3748
16589TIP3   OH271181   6.583   3.349  14.383 -0.5224  0.1997  0.7809
16589TIP3    H171182   6.637   3.352  14.462 -0.6579  2.1145  0.8527
16589TIP3    H271183   6.498   3.385  14.411 -0.9713 -0.2692  0.0478
16590TIP3   OH271184   5.161   1.497  11.368  0.4081 -0.5536 -0.3122
16590TIP3    H171185   5.145   1.581  11.325 -0.0118  0.3433  1.4965
16590TIP3    H271186   5.156   1.433  11.297  0.0017  0.8525 -1.6253
16591TIP3   OH271187   6.120   4.095   5.484  0.1857 -0.6847  0.1715
16591TIP3    H171188   6.193   4.097   5.422  0.4856 -0.6758  0.5197
16591TIP3    H271189   6.049   4.053   5.436  0.7363 -1.6309  0.1611
16592TIP3   OH271190   2.648   4.911   0.369 -0.8150  0.5174  0.0579
16592TIP3    H171191   2.586   4.965   0.419 -2.0707  0.3637 -1.2456
16592TIP3    H271192   2.629   4.933   0.278  0.4213 -0.2605 -0.4024
16593TIP3   OH271193   1.195   0.361  14.875 -0.5943  0.0060  0.0091
16593TIP3    H171194   1.168   0.345  14.965  0.8541 -2.0458  0.1235
16593TIP3    H271195   1.269   0.303  14.860 -0.7253  0.3499 -2.4894
16594TIP3   OH271196   2.483   6.545   5.702  0.6200  0.6753 -0.2061
16594TIP3    H171197   2.487   6.543   5.798 -0.3365 -0.3158 -0.1695
16594TIP3    H271198   2.477   6.638   5.680  0.2325  0.8769  0.7244
16595TIP3   OH271199   5.403   2.113   2.169  0.0783 -0.2488 -0.3988
16595TIP3    H171200   5.399   2.166   2.089 -0.5365 -0.8458 -0.7680
16595TIP3    H271201   5.353   2.163   2.233  1.1585  0.5785 -0.1647
16596TIP3   OH271202   2.822   4.975  15.236  0.3653  0.0308  0.3019
16596TIP3    H171203   2.838   4.886  15.203 -0.8304 -0.3252  0.6292
16596TIP3    H271204   2.775   5.018  15.165 -1.3135 -0.4185  1.1057
16597TIP3   OH271205   3.604   6.466  13.563  0.7918  0.0891  0.0732
16597TIP3    H171206   3.522   6.432  13.596  0.6280  0.5437  0.1419
16597TIP3    H271207   3.584   6.557  13.537  0.9153 -0.2269 -1.2222
16598TIP3   OH271208   5.737   5.236   2.727 -1.0927  0.5414 -0.2094
16598TIP3    H171209   5.751   5.329   2.711  1.2411  0.0504 -1.4332
16598TIP3    H271210   5.750   5.194   2.642 -0.9556 -0.9903  0.5238
16599TIP3   OH271211   3.123   3.643  15.457 -0.3027 -0.2842 -0.0839
16599TIP3    H171212   3.149   3.722  15.506  0.6119  0.7783 -2.1702
16599TIP3    H271213   3.034   3.626  15.487 -0.9268  2.1743 -0.2815
16600TIP3   OH271214   6.063   0.273   2.063 -0.1396 -0.2191 -0.3047
16600TIP3    H171215   6.070   0.191   2.014 -3.8909  0.6293 -2.6799
16600TIP3    H271216   6.043   0.246   2.153  0.0265 -1.8638 -0.7290
16601TIP3   OH271217   6.624   0.359  13.807  0.0306  0.2122 -0.0474
16601TIP3    H171218   6.588   0.294  13.867 -2.5083  1.4230 -0.1177
16601TIP3    H271219   6.664   0.425  13.863 -0.6158  0.3765  0.2294
16602TIP3   OH271220   3.173   6.493  11.096 -0.0860  0.2911 -0.7332
16602TIP3    H171221   3.155   6.505  11.189 -1.4451  0.9527 -1.0599
16602TIP3    H271222   3.123   6.415  11.072 -0.1314  0.4074 -1.0157
16603TIP3   OH271223   4.385   1.979  14.076 -0.0356 -0.2575  0.1382
16603TIP3    H171224   4.394   1.992  13.982  1.6353  0.4253  0.3686
16603TIP3    H271225   4.468   1.940  14.103  0.4831  1.8096  1.6977
16604TIP3   OH271226   6.065   1.504  11.777  0.3572  0.3335 -0.1381
16604TIP3    H171227   5.979   1.461  11.780  0.7711 -0.4551  0.8428
16604TIP3    H271228   6.114   1.454  11.711 -0.5600  2.0685 -2.2792
16605TIP3   OH271229   2.436   1.748  16.081 -0.2985  0.1121 -0.1534
16605TIP3    H171230   2.511   1.691  16.097  0.6546  1.2372 -0.4853
16605TIP3    H271231   2.429   1.753  15.986 -1.2220 -0.5074 -0.1300
16606TIP3   OH271232   3.045   4.755  11.427  0.2326 -0.4957  0.1201
16606TIP3    H171233   3.091   4.837  11.407 -0.2005 -0.3964 -0.4674
16606TIP3    H271234   3.100   4.686  11.389  0.4882 -0.4682  0.4320
16607TIP3   OH271235   1.609   5.020  11.416 -0.1804  0.3810  0.5424
16607TIP3    H171236   1.529   4.968  11.417  1.2385 -2.0052  0.0925
16607TIP3    H271237   1.588   5.098  11.366 -1.7806 -0.9860 -1.0240
16608TIP3   OH271238   4.124   2.843  14.364  0.2137 -0.7214  0.4250
16608TIP3    H171239   4.208   2.821  14.404  0.2387 -0.3488  0.5888
16608TIP3    H271240   4.100   2.766  14.312 -0.3034 -1.6500  1.9441
16609TIP3   OH271241   3.605   0.913   0.082 -0.0202  0.5550  0.5301
16609TIP3    H171242   3.682   0.855   0.087  0.0129  0.5654  0.1229
16609TIP3    H271243   3.637   0.997   0.114  0.3638  0.7867 -0.4372
16610TIP3   OH271244   5.967   2.865  13.214 -0.2044 -0.1127 -0.8876
16610TIP3    H171245   6.058   2.838  13.202 -0.6845 -2.4066  0.1151
16610TIP3    H271246   5.918   2.810  13.153 -0.8104  2.8360 -3.2917
16611TIP3   OH271247   3.614   4.548   5.057 -0.1286  0.2929 -0.3110
16611TIP3    H171248   3.566   4.561   4.976 -0.8592 -2.2492 -0.3743
16611TIP3    H271249   3.702   4.523   5.029 -0.1223  0.2914 -0.2898
16612TIP3   OH271250   2.849   1.240  13.145 -0.3506 -0.6833 -0.1424
16612TIP3    H171251   2.864   1.229  13.239 -0.1015 -0.5830 -0.1672
16612TIP3    H271252   2.838   1.151  13.111 -1.7714 -0.6602  0.1844
16613TIP3   OH271253   0.029   0.789  14.121  0.1529  0.7840  0.3792
16613TIP3    H171254   0.091   0.730  14.164 -0.2333 -0.3633 -0.5811
16613TIP3    H271255   0.057   0.791  14.029  1.5415  3.9414  0.7353
16614TIP3   OH271256   0.679   0.508  14.142 -0.2529  0.1780 -0.1117
16614TIP3    H171257   0.651   0.416  14.145 -1.1464  0.4453  0.2629
16614TIP3    H271258   0.701   0.529  14.233  2.5633 -0.3969 -0.5522
16615TIP3   OH271259   5.779   3.612   2.815 -0.6109  0.0533  0.3790
16615TIP3    H171260   5.841   3.674   2.778  0.7099 -0.6729  1.3054
16615TIP3    H271261   5.704   3.666   2.840 -0.3018  0.9746 -0.5815
16616TIP3   OH271262   3.361   6.651  15.550 -0.4347 -0.1170 -0.3997
16616TIP3    H171263   3.436   6.657  15.609 -0.5251  0.9653 -0.3762
16616TIP3    H271264   3.298   6.714  15.585 -0.8288 -0.0728 -1.1670
16617TIP3   OH271265   0.247   6.212   0.382 -0.2711  0.7794  0.1179
16617TIP3    H171266   0.337   6.207   0.415 -0.3183  0.1905  0.1633
16617TIP3    H271267   0.257   6.209   0.286 -0.3786 -2.4861  0.0996
16618TIP3   OH271268   5.694   2.342  16.211 -0.1827 -0.5495  0.1328
16618TIP3    H171269   5.612   2.295  16.223 -0.2519 -1.0419 -1.8763
16618TIP3    H271270   5.685   2.421  16.264 -0.7215 -1.9737  2.3007
16619TIP3   OH271271   0.432   2.632   0.165  0.0485  0.0263 -0.0531
16619TIP3    H171272   0.464   2.547   0.134  2.0767  0.7464 -0.1178
16619TIP3    H271273   0.507   2.670   0.212 -1.4069  0.9842  1.6507
16620TIP3   OH271274   2.018   5.400   1.563 -0.1374 -0.4131 -0.3240
16620TIP3    H171275   2.095   5.344   1.548 -0.3793 -0.6617 -0.6339
16620TIP3    H271276   2.050   5.468   1.622  0.1790 -0.8325 -0.0087
16621TIP3   OH271277   2.445   4.324   0.334  0.5306 -0.5504 -0.4854
16621TIP3    H171278   2.501   4.255   0.371  1.4665  0.1424 -0.5627
16621TIP3    H271279   2.494   4.356   0.258 -0.8916 -1.2611 -1.7678
16622TIP3   OH271280   6.790   2.159   6.548  0.2664  0.4473  0.2196
16622TIP3    H171281   6.700   2.137   6.575 -1.3244  1.4353 -3.5944
16622TIP3    H271282   6.802   2.249   6.575  0.6972 -0.1078  1.9659
16623TIP3   OH271283   0.417   3.920   0.869  0.0386 -0.3167 -0.1025
16623TIP3    H171284   0.416   4.016   0.863  0.5470 -0.3229 -0.3922
16623TIP3    H271285   0.333   3.897   0.910 -0.9886  0.1276 -1.8609
16624TIP3   OH271286   4.117   1.231  16.684  0.1952  0.1455 -0.5029
16624TIP3    H171287   4.176   1.290  16.730  0.8859 -0.6342 -0.3605
16624TIP3    H271288   4.112   1.266  16.595  0.2470  0.6610 -0.3061
16625TIP3   OH271289   1.305   3.816   2.470 -0.6874  0.1533 -0.5091
16625TIP3    H171290   1.234   3.754   2.456 -0.9250  0.1903  0.4851
16625TIP3    H271291   1.281   3.863   2.549 -0.5331  1.5666 -1.2724
16626TIP3   OH271292   3.087   0.573   5.244  0.0525  0.0185 -0.2852
16626TIP3    H171293   3.056   0.664   5.239 -0.1077 -0.0742 -1.3090
16626TIP3    H271294   3.151   0.573   5.315 -1.0658  0.5877  0.7644
16627TIP3   OH271295   3.637   3.845   3.528  0.6603  0.0281 -0.5064
16627TIP3    H171296   3.619   3.790   3.603  1.6824  0.6048  0.1841
16627TIP3    H271297   3.577   3.814   3.460 -0.9033  0.0676  0.8015
16628TIP3   OH271298   2.048   4.028  15.590 -1.0508 -0.0578  0.8948
16628TIP3    H171299   2.075   4.119  15.577  0.7054 -0.8967 -2.6429
16628TIP3    H271300   2.126   3.977  15.568 -2.8341 -2.4543 -0.3057
16629TIP3   OH271301   5.174   1.357   3.614  0.5328  0.2705 -0.2541
16629TIP3    H171302   5.247   1.416   3.632 -0.5750  1.5693  0.1138
16629TIP3    H271303   5.096   1.409   3.630 -0.4988 -1.2391 -0.1414
16630TIP3   OH271304   4.211   4.541   2.260 -0.3997 -0.2324 -0.6595
16630TIP3    H171305   4.247   4.463   2.302 -1.0206 -0.1206  0.1212
16630TIP3    H271306   4.117   4.523   2.254 -0.4892  0.2851 -0.8484
16631TIP3   OH271307   0.229   2.886  16.058 -0.1640  0.1253 -0.2260
16631TIP3    H171308   0.190   2.920  16.139 -1.6784 -0.1430 -0.8056
16631TIP3    H271309   0.197   2.796  16.051  1.1699 -0.3668 -0.3783
16632TIP3   OH271310   4.045   2.083   6.403 -0.2637  0.4244 -0.1843
16632TIP3    H171311   4.134   2.051   6.386 -0.4580 -0.3909  0.2928
16632TIP3    H271312   4.055   2.178   6.413  0.2155  0.6439 -2.3466
16633TIP3   OH271313   6.763   0.264   5.686 -0.2418  0.1861 -0.0163
16633TIP3    H171314   6.843   0.290   5.641 -0.1154 -1.3381 -0.7535
16633TIP3    H271315   6.788   0.258   5.778  0.2626  0.5546 -0.1264
16634TIP3   OH271316   5.370   6.332  10.587 -0.4000  0.3187 -0.1697
16634TIP3    H171317   5.433   6.268  10.621  0.2258  1.0975  0.1590
16634TIP3    H271318   5.417   6.378  10.517 -0.0469  1.9214  1.0535
16635TIP3   OH271319   6.397   4.221   0.106 -0.4666  0.4435 -0.5701
16635TIP3    H171320   6.419   4.133   0.138 -1.2884  1.2258  2.4450
16635TIP3    H271321   6.420   4.218   0.013  1.7110 -2.2237 -0.1138
16636TIP3   OH271322   2.414   4.542  11.373  0.0094 -0.2173 -0.0992
16636TIP3    H171323   2.343   4.534  11.436  0.6683 -1.1772  0.5506
16636TIP3    H271324   2.490   4.567  11.426  0.1865  0.7131 -0.7728
16637TIP3   OH271325   0.194   4.692   5.203  0.1208 -0.7904  0.1850
16637TIP3    H171326   0.101   4.673   5.188  0.1707  0.0483 -1.3254
16637TIP3    H271327   0.194   4.742   5.285 -0.5657 -2.1384  1.0652
16638TIP3   OH271328   6.479   2.792  12.545 -0.0608  0.1115 -0.7029
16638TIP3    H171329   6.459   2.740  12.467  1.3974 -0.1323 -0.9450
16638TIP3    H271330   6.560   2.754  12.578 -0.2476  0.7221  0.4932
16639TIP3   OH271331   3.430   1.499   3.871 -0.3289  0.2749 -0.8386
16639TIP3    H171332   3.367   1.570   3.881 -0.4755  0.2360 -1.4525
16639TIP3    H271333   3.394   1.428   3.925 -0.2524  0.6108 -0.3357
16640TIP3   OH271334   6.695   6.738   0.819 -0.7139  0.0295 -0.2182
16640TIP3    H171335   6.729   6.699   0.738 -1.0493 -0.5436 -0.0919
16640TIP3    H271336   6.611   6.776   0.795 -1.0373 -0.5533 -0.0534
16641TIP3   OH271337   1.279   3.704  12.759  0.4062 -0.2784  0.0752
16641TIP3    H171338   1.191   3.686  12.794 -0.5623  1.6258 -1.1972
16641TIP3    H271339   1.315   3.768  12.821 -0.2101  0.9698 -0.8036
16642TIP3   OH271340   2.103   0.618   2.982 -0.5082 -0.1777  0.3616
16642TIP3    H171341   2.012   0.647   2.985 -0.1354  1.0466  0.4992
16642TIP3    H271342   2.101   0.534   2.935 -1.6685 -0.0287  0.1368
16643TIP3   OH271343   1.293   4.668   6.409 -0.4480  0.5057  0.1304
16643TIP3    H171344   1.199   4.661   6.427  0.0257 -0.3984  2.7510
16643TIP3    H271345   1.302   4.645   6.317 -2.8114  0.7983 -0.2271
16644TIP3   OH271346   1.924   6.630  11.198 -0.3685 -0.3731  0.3189
16644TIP3    H171347   1.873   6.710  11.191  1.9469  1.0403 -2.6986
16644TIP3    H271348   1.909   6.584  11.115  2.1310 -0.5217 -0.1435
16645TIP3   OH271349   5.522   5.994  14.862  0.2586  0.1868  0.5514
16645TIP3    H171350   5.532   6.067  14.801 -0.2528 -0.0175  0.2145
16645TIP3    H271351   5.511   5.917  14.805 -0.3583  0.0119  0.8948
16646TIP3   OH271352   6.569   5.306   4.914 -0.2167  0.0620  0.6502
16646TIP3    H171353   6.523   5.390   4.925  1.5241  0.9897  1.3411
16646TIP3    H271354   6.596   5.305   4.823  1.0613  1.0100  0.9890
16647TIP3   OH271355   5.768   2.298   3.814 -0.5066  0.5829  0.6174
16647TIP3    H171356   5.685   2.263   3.847 -1.4725 -0.7907 -2.8525
16647TIP3    H271357   5.834   2.236   3.846 -1.6378 -1.8705 -1.3992
16648TIP3   OH271358   1.156   0.258  12.822  0.3948 -0.4005  0.1210
16648TIP3    H171359   1.152   0.287  12.913 -0.9040  1.2743 -0.4166
16648TIP3    H271360   1.173   0.337  12.772 -0.3768 -1.0344 -1.2067
16649TIP3   OH271361   3.089   5.066  13.735  0.1622 -0.1229 -0.2160
16649TIP3    H171362   3.090   5.157  13.764  0.6351 -0.5082  1.0916
16649TIP3    H271363   3.175   5.032  13.759  0.5377 -0.5462 -2.0205
16650TIP3   OH271364   0.162   3.226  15.614  0.0957 -0.0169 -0.3411
16650TIP3    H171365   0.165   3.194  15.704  0.2362  0.9375  0.0053
16650TIP3    H271366   0.079   3.273  15.608  0.7288  1.1513 -0.2656
16651TIP3   OH271367   5.789   1.919  14.500  0.0743 -0.1564  0.3969
16651TIP3    H171368   5.884   1.935  14.501 -0.0559  1.2228 -1.6112
16651TIP3    H271369   5.756   1.966  14.576  0.8743  0.6887  0.2455
16652TIP3   OH271370   6.153   2.944  14.472  0.1728 -0.0688 -0.0644
16652TIP3    H171371   6.244   2.915  14.468 -0.4209 -2.0315 -0.1213
16652TIP3    H271372   6.103   2.866  14.494 -1.7620  0.4301 -2.2964
16653TIP3   OH271373   3.669   1.221   3.887  0.1503 -0.6810 -0.5851
16653TIP3    H171374   3.622   1.138   3.887 -0.4505 -0.3636  0.4426
16653TIP3    H271375   3.671   1.247   3.979  1.2532 -0.0693 -0.7617
16654TIP3   OH271376   0.950   3.171   2.485  0.2596  0.2758  0.0556
16654TIP3    H171377   1.014   3.126   2.540  0.0202  0.6449  0.6445
16654TIP3    H271378   0.923   3.247   2.536 -0.4853  0.2488 -0.2771
16655TIP3   OH271379   0.064   0.956  11.334 -0.0215  0.0772  0.0975
16655TIP3    H171380   0.012   0.908  11.270  0.0528 -0.7608  0.6526
16655TIP3    H271381   0.000   0.988  11.398  0.0734 -0.4902  0.4852
16656TIP3   OH271382   4.940   5.616  13.693  0.6164 -0.1668  0.0841
16656TIP3    H171383   5.025   5.652  13.719  0.4351  0.5159 -0.2573
16656TIP3    H271384   4.957   5.522  13.678  2.6391  0.6738 -5.1666
16657TIP3   OH271385   2.966   0.018   4.630  0.2209  0.4624 -0.7803
16657TIP3    H171386   3.046   0.050   4.588  0.0188  0.9683 -0.7852
16657TIP3    H271387   2.947   0.081   4.698  1.0725 -0.8561  0.7412
16658TIP3   OH271388   6.644   4.785  16.922  0.2096 -0.2674  0.2332
16658TIP3    H171389   6.669   4.851  16.987  1.7544 -0.6066  0.0256
16658TIP3    H271390   6.657   4.828  16.838 -0.3216 -0.3339  0.1103
16659TIP3   OH271391   6.699   4.626  15.819  0.4270 -0.0002 -0.2910
16659TIP3    H171392   6.741   4.712  15.812 -1.1557  0.8577  0.3309
16659TIP3    H271393   6.701   4.606  15.912 -1.7643  0.7322 -0.0436
16660TIP3   OH271394   2.974   0.449  16.644  0.8937  0.4026 -0.5717
16660TIP3    H171395   3.054   0.497  16.621  0.4805  2.1310  1.2723
16660TIP3    H271396   2.903   0.509  16.620  0.1739 -0.6456 -1.1451
16661TIP3   OH271397   0.176   6.227   4.077 -0.5413  0.5159  0.4190
16661TIP3    H171398   0.159   6.269   4.162 -1.4041 -1.2186  1.1454
16661TIP3    H271399   0.240   6.284   4.035  1.3624  0.4664  3.0250
16662TIP3   OH271400   0.617   4.587  16.801  0.4779  0.2037 -0.2177
16662TIP3    H171401   0.607   4.639  16.721 -0.8899 -0.3650 -0.4377
16662TIP3    H271402   0.534   4.541  16.811  1.6003 -1.9579 -0.0412
16663TIP3   OH271403   0.630   1.751  15.123 -0.6609 -0.2402 -0.3058
16663TIP3    H171404   0.647   1.844  15.109 -0.3035 -0.1777  0.4600
16663TIP3    H271405   0.704   1.721  15.176 -0.7606 -0.9689 -0.5606
16664TIP3   OH271406   0.081   4.367  10.597  0.3668  0.0487  0.6635
16664TIP3    H171407   0.039   4.413  10.670  1.0583  1.3128  0.3095
16664TIP3    H271408   0.122   4.437  10.546 -0.2666 -0.7877 -1.0641
16665TIP3   OH271409   6.161   6.042   4.771 -0.0140 -0.5097 -0.2214
16665TIP3    H171410   6.083   6.062   4.719 -0.3796 -1.1947  0.0437
16665TIP3    H271411   6.217   6.118   4.761 -0.5895 -0.1360 -0.6655
16666TIP3   OH271412   3.525   1.782  11.850 -0.7400  0.2067  0.7059
16666TIP3    H171413   3.614   1.814  11.844 -0.1178 -1.0089  2.5244
16666TIP3    H271414   3.473   1.858  11.877  0.1387  0.4767  1.7185
16667TIP3   OH271415   4.647   3.261   5.806 -0.0563 -0.8065 -0.5498
16667TIP3    H171416   4.630   3.249   5.713 -1.1617 -0.0954 -0.4499
16667TIP3    H271417   4.742   3.270   5.812  0.1266 -1.8563 -1.4800
16668TIP3   OH271418   4.270   6.627   1.491 -0.2159 -0.8471  0.3002
16668TIP3    H171419   4.259   6.722   1.496 -1.3822 -0.9310 -0.4826
16668TIP3    H271420   4.265   6.598   1.582  1.7664 -0.0213  0.7266
16669TIP3   OH271421   4.182   5.617  11.122  0.0241  0.3495 -0.1377
16669TIP3    H171422   4.239   5.659  11.058 -1.2176  0.1064 -1.4617
16669TIP3    H271423   4.107   5.676  11.131 -0.1520  0.0354  0.5611
16670TIP3   OH271424   1.677   2.542   4.975 -0.5920  0.1614 -0.1020
16670TIP3    H171425   1.599   2.490   4.954  0.1961 -1.0100 -0.2546
16670TIP3    H271426   1.719   2.557   4.890 -0.9197  1.2350 -0.0800
16671TIP3   OH271427   2.709   5.952  13.941 -0.0467  0.3084 -0.4636
16671TIP3    H171428   2.776   5.992  13.886  1.0926  0.6574  1.0985
16671TIP3    H271429   2.637   6.015  13.941  1.1805  1.8026  0.8669
16672TIP3   OH271430   0.667   5.457  16.588 -0.0421  0.6166 -0.4678
16672TIP3    H171431   0.752   5.476  16.626  2.0231 -2.1493 -3.1935
16672TIP3    H271432   0.619   5.410  16.656  0.2656  2.7004  1.2948
16673TIP3   OH271433   1.310   0.921  14.272 -0.5094  0.3661  0.3284
16673TIP3    H171434   1.362   0.992  14.309 -0.6931  0.2098  0.9004
16673TIP3    H271435   1.315   0.851  14.337  1.0379 -0.7849 -0.9453
16674TIP3   OH271436   4.462   4.361   1.994  0.4741  0.2065  0.4900
16674TIP3    H171437   4.466   4.451   1.962  2.5452 -0.2807 -0.8153
16674TIP3    H271438   4.478   4.369   2.088  0.3961  1.2215  0.4351
16675TIP3   OH271439   5.511   2.012   4.176 -0.3512  0.2116 -0.2054
16675TIP3    H171440   5.475   1.945   4.118  0.7376 -0.7731  0.2287
16675TIP3    H271441   5.603   1.988   4.187 -0.1592  1.2717  0.6798
16676TIP3   OH271442   2.583   5.492  11.094  0.1115 -0.0482  0.7272
16676TIP3    H171443   2.661   5.445  11.063 -1.6191 -2.4425 -0.2560
16676TIP3    H271444   2.562   5.553  11.024  0.4643 -0.1758  0.5089
16677TIP3   OH271445   1.603   3.899   0.853  0.9648  0.6767  0.1997
16677TIP3    H171446   1.532   3.960   0.832 -0.6641 -1.8190 -2.3752
16677TIP3    H271447   1.558   3.820   0.883  2.9584  0.4634  2.9019
16678TIP3   OH271448   2.769   5.612  13.273  0.2808  0.0088 -0.9604
16678TIP3    H171449   2.775   5.520  13.301  1.6995  0.5322  0.6187
16678TIP3    H271450   2.753   5.661  13.354 -1.9028  1.0695 -1.9638
16679TIP3   OH271451   5.317   0.877   3.867  0.5030 -0.2417 -0.1571
16679TIP3    H171452   5.385   0.932   3.907 -0.9049  0.3771  1.5291
16679TIP3    H271453   5.255   0.940   3.829  0.3663 -0.7750 -0.8426
16680TIP3   OH271454   0.891   2.542  10.550 -0.1423  0.4323 -0.0032
16680TIP3    H171455   0.825   2.605  10.578  1.2704  2.0932 -0.2061
16680TIP3    H271456   0.853   2.499  10.474 -0.7127  1.8707 -0.5666
16681TIP3   OH271457   0.835   2.657  12.970 -0.1670 -0.4704  0.5807
16681TIP3    H171458   0.813   2.694  13.055  0.7271  1.3095  0.0901
16681TIP3    H271459   0.774   2.700  12.909 -0.4947 -1.3863  0.2365
16682TIP3   OH271460   5.490   4.152   4.716 -0.3643  0.1375 -0.1249
16682TIP3    H171461   5.469   4.245   4.720  0.9742  0.4431  0.5575
16682TIP3    H271462   5.582   4.147   4.744 -0.6971 -1.4841  0.8193
16683TIP3   OH271463   4.209   2.733   3.634 -0.0515  0.2498 -0.6719
16683TIP3    H171464   4.271   2.671   3.673 -0.6380  0.4154  0.5701
16683TIP3    H271465   4.263   2.805   3.604  0.7296 -1.1079 -2.7517
16684TIP3   OH271466   0.786   4.295   3.620 -0.9826  0.2517  0.2347
16684TIP3    H171467   0.737   4.377   3.611 -0.0477  0.9638  1.3142
16684TIP3    H271468   0.827   4.301   3.707  1.9663  0.2549 -1.0150
16685TIP3   OH271469   1.534   3.242  11.064  0.2282 -0.5626  0.3098
16685TIP3    H171470   1.461   3.303  11.061  1.2652  0.7045  0.2868
16685TIP3    H271471   1.551   3.220  10.973  0.1511 -0.5392  0.2900
16686TIP3   OH271472   3.728   5.701  11.282  0.0508 -0.5545 -0.0365
16686TIP3    H171473   3.765   5.623  11.322 -1.6878 -0.7430  1.3293
16686TIP3    H271474   3.739   5.769  11.348  1.0421  0.2380 -0.9894
16687TIP3   OH271475   0.077   1.787  14.799 -0.3579  0.1060 -0.3443
16687TIP3    H171476   0.008   1.755  14.858  0.1860  0.1124  0.3157
16687TIP3    H271477   0.070   1.882  14.803 -0.8256  0.1017 -0.9128
16688TIP3   OH271478   1.503   6.539  16.015  0.0218 -0.3726 -0.0887
16688TIP3    H171479   1.501   6.604  16.086  0.1738  3.0380 -2.8987
16688TIP3    H271480   1.595   6.514  16.008  0.1695  0.0505  0.2787
16689TIP3   OH271481   4.603   0.570   3.686  0.1917  0.2229 -0.0776
16689TIP3    H171482   4.589   0.604   3.598 -1.8350  0.6109  0.3588
16689TIP3    H271483   4.634   0.480   3.672  0.3970  0.4538 -1.1768
16690TIP3   OH271484   0.775   3.479   2.368  0.0150  0.1933  0.8378
16690TIP3    H171485   0.687   3.458   2.401  0.4267 -0.8425  1.2972
16690TIP3    H271486   0.835   3.434   2.427  0.9192  1.7946  1.2018
16691TIP3   OH271487   1.220   0.267   3.875 -0.0358 -0.1257 -0.5247
16691TIP3    H171488   1.166   0.320   3.816  1.3726 -0.2869 -2.0391
16691TIP3    H271489   1.200   0.300   3.962 -1.7231  0.5669 -1.1382
16692TIP3   OH271490   3.252   2.244   4.467 -0.1750 -0.5660 -0.0700
16692TIP3    H171491   3.327   2.272   4.519  1.0990  2.0762 -2.9623
16692TIP3    H271492   3.277   2.159   4.432  0.2227 -0.9869  1.2050
16693TIP3   OH271493   1.685   5.844   4.336  0.3222  0.1035 -0.5940
16693TIP3    H171494   1.723   5.931   4.351 -0.6054  0.6975 -1.5884
16693TIP3    H271495   1.759   5.784   4.345  1.0362  1.0109 -0.1907
16694TIP3   OH271496   4.423   2.102   0.177 -0.0615 -0.0206 -0.0924
16694TIP3    H171497   4.516   2.079   0.180 -0.2953 -0.9924 -0.1390
16694TIP3    H271498   4.410   2.158   0.254 -0.2478 -2.9876  2.1839
16695TIP3   OH271499   4.887   2.415  11.154  0.0326 -0.1083  0.0341
16695TIP3    H171500   4.840   2.488  11.114  0.2876  1.0339  1.7194
16695TIP3    H271501   4.948   2.386  11.086  0.6051  1.8969 -0.3896
16696TIP3   OH271502   0.458   4.785   6.060 -0.0812 -0.6523  0.2071
16696TIP3    H171503   0.547   4.782   6.026  0.5806  2.7053  1.3192
16696TIP3    H271504   0.464   4.749   6.148  0.5370  0.8991  0.8261
16697TIP3   OH271505   4.160   3.247  13.409 -0.3911  0.3100  0.1680
16697TIP3    H171506   4.118   3.165  13.435 -0.3409  0.5126  0.9123
16697TIP3    H271507   4.152   3.303  13.486 -0.6259  1.0857 -0.4133
16698TIP3   OH271508   6.646   3.178   2.625 -0.0366  0.0789  0.0134
16698TIP3    H171509   6.617   3.176   2.534  1.5021  0.9274 -0.5332
16698TIP3    H271510   6.620   3.264   2.657  1.7340  0.8308 -0.4689
16699TIP3   OH271511   0.638   3.326   3.072 -0.3823  0.4817 -0.2909
16699TIP3    H171512   0.654   3.275   3.151 -0.2668 -0.5306 -0.9434
16699TIP3    H271513   0.549   3.301   3.045 -0.0883  0.1162 -0.9639
16700TIP3   OH271514   3.101   1.972  14.639 -0.2606 -0.1683  0.3939
16700TIP3    H171515   3.011   1.946  14.619  0.1803 -0.0713 -1.9820
16700TIP3    H271516   3.118   2.046  14.582  0.9398  0.6604  1.7512
16701TIP3   OH271517   3.108   1.574   6.041 -0.3096 -0.0669  0.2100
16701TIP3    H171518   3.021   1.534   6.050 -0.9043  0.2429 -2.9101
16701TIP3    H271519   3.101   1.658   6.086 -0.8411 -1.0232  2.0004
16702TIP3   OH271520   0.312   1.581  17.015  1.1729  0.2104  0.1819
16702TIP3    H171521   0.345   1.540  17.096 -0.4679  0.3087  0.9462
16702TIP3    H271522   0.232   1.532  16.995  1.0816  0.7784 -0.8797
16703TIP3   OH271523   2.802   5.971   4.775  0.3656 -0.7130 -0.0554
16703TIP3    H171524   2.713   5.949   4.801 -0.3993 -0.0678 -1.9273
16703TIP3    H271525   2.807   5.943   4.683  1.2862  1.3638 -0.6931
16704TIP3   OH271526   2.480   3.914  11.935 -0.3563 -0.2364  0.4837
16704TIP3    H171527   2.571   3.883  11.939 -0.0483  0.5603 -0.0211
16704TIP3    H271528   2.473   3.976  12.007  0.9137  3.1822 -2.0638
16705TIP3   OH271529   3.260   3.501   5.111 -0.7250 -0.7393 -0.3818
16705TIP3    H171530   3.301   3.545   5.036  1.0970 -0.0777  0.9409
16705TIP3    H271531   3.175   3.544   5.120  0.1087  1.0364 -0.4846
16706TIP3   OH271532   5.660   0.382   5.202 -0.4380  0.3615 -0.3653
16706TIP3    H171533   5.600   0.455   5.217 -1.9305 -1.0114  0.7482
16706TIP3    H271534   5.746   0.417   5.225 -0.5701  2.6218 -2.7206
16707TIP3   OH271535   3.905   0.220   2.612  0.5487  0.1960 -0.3405
16707TIP3    H171536   3.911   0.264   2.697  1.0904 -3.4112  1.7318
16707TIP3    H271537   3.995   0.217   2.580  0.5880  0.1884 -0.2296
16708TIP3   OH271538   3.144   1.575   5.775  0.1608  0.5222  0.8483
16708TIP3    H171539   3.074   1.620   5.728  0.7654  1.5487  0.8766
16708TIP3    H271540   3.114   1.571   5.866 -1.5093 -2.4792  0.2620
16709TIP3   OH271541   2.418   3.390   4.098 -0.0816  0.0916  0.0447
16709TIP3    H171542   2.451   3.331   4.166 -1.7640  0.7096  1.4817
16709TIP3    H271543   2.445   3.477   4.127  0.2874  0.2517 -0.7706
16710TIP3   OH271544   5.605   2.730  16.576  0.1428  0.2152 -0.0740
16710TIP3    H171545   5.585   2.823  16.574 -0.2380  0.1398  0.2636
16710TIP3    H271546   5.653   2.717  16.657  2.5110  0.5777 -1.3112
16711TIP3   OH271547   3.154   4.293  13.034 -0.2620  0.1421  0.1780
16711TIP3    H171548   3.116   4.375  13.063 -2.2744 -0.2118 -1.2484
16711TIP3    H271549   3.214   4.318  12.963 -0.4626  0.4296  0.1094
16712TIP3   OH271550   0.143   6.305   3.273 -0.6226 -0.3260  0.3247
16712TIP3    H171551   0.205   6.365   3.232 -0.2655 -1.0843 -0.2667
16712TIP3    H271552   0.135   6.336   3.363 -0.2867  0.4799  0.0793
16713TIP3   OH271553   3.911   4.014  15.507  0.3766 -0.3456 -0.0223
16713TIP3    H171554   3.887   4.046  15.420  1.1734 -2.3484 -1.0260
16713TIP3    H271555   3.969   4.082  15.542 -1.1952  1.2451 -0.3598
16714TIP3   OH271556   6.720   4.169  15.583 -0.0931 -0.4258 -0.4959
16714TIP3    H171557   6.659   4.105  15.547  1.5529 -1.4099 -1.6389
16714TIP3    H271558   6.674   4.205  15.659 -1.2572 -2.6014 -0.0860
16715TIP3   OH271559   0.829   2.497   3.203  0.0969  0.2848  0.2437
16715TIP3    H171560   0.884   2.494   3.281 -0.0364  1.8555  0.4369
16715TIP3    H271561   0.759   2.558   3.226 -0.4967  0.0070 -0.7712
16716TIP3   OH271562   6.666   3.656   5.212 -0.3394 -0.3144  0.2056
16716TIP3    H171563   6.671   3.562   5.234  0.7989 -0.3969 -0.3395
16716TIP3    H271564   6.729   3.697   5.271  0.5257 -0.1497 -0.8075
16717TIP3   OH271565   1.480   5.762   1.851  0.0442 -0.1785  0.1802
16717TIP3    H171566   1.461   5.669   1.845  0.0186 -0.1384 -0.4638
16717TIP3    H271567   1.422   5.803   1.786  2.2504 -0.0593 -1.8817
16718TIP3   OH271568   6.127   4.255   3.012 -0.4687 -0.2816 -0.0971
16718TIP3    H171569   6.211   4.228   2.975 -0.2783  1.2883 -0.9103
16718TIP3    H271570   6.128   4.221   3.101  0.9230 -0.5025 -0.1699
16719TIP3   OH271571   1.892   3.835   3.405 -0.2499 -0.1906  0.2215
16719TIP3    H171572   1.873   3.844   3.499 -0.7256 -1.9905  0.3436
16719TIP3    H271573   1.820   3.781   3.372 -0.1560  0.5353 -1.2235
16720TIP3   OH271574   2.919   5.482  15.819  0.2628  0.5050 -0.0533
16720TIP3    H171575   2.826   5.471  15.799  0.8046 -3.4502 -1.2098
16720TIP3    H271576   2.952   5.538  15.748 -0.8938  0.3688 -0.7347
16721TIP3   OH271577   2.491   2.759  13.474 -0.3277  0.0843 -0.3537
16721TIP3    H171578   2.558   2.692  13.459  1.6917  1.9406 -0.1037
16721TIP3    H271579   2.453   2.773  13.387 -0.2092 -0.7958 -0.5670
16722TIP3   OH271580   2.101   1.088   2.157  0.2299 -0.1856  0.2462
16722TIP3    H171581   2.036   1.129   2.215  0.3521  0.0591  0.2125
16722TIP3    H271582   2.178   1.145   2.163  0.0869  0.1061 -0.5131
16723TIP3   OH271583   4.609   1.844  14.126 -0.8241  0.0291  0.2867
16723TIP3    H171584   4.631   1.753  14.145 -0.7770 -0.2378 -0.9820
16723TIP3    H271585   4.688   1.880  14.085 -0.4979  0.9349  1.6555
16724TIP3   OH271586   0.431   3.000  11.167  0.1546  0.3350 -0.2059
16724TIP3    H171587   0.398   3.081  11.128  1.1535 -0.0594 -1.9999
16724TIP3    H271588   0.490   2.964  11.101  0.2178 -1.5565  0.8018
16725TIP3   OH271589   2.761   1.881   4.420  0.2039  0.2612  0.7974
16725TIP3    H171590   2.679   1.833   4.427 -0.5989  1.3502 -0.6029
16725TIP3    H271591   2.815   1.828   4.362 -0.4469  0.6966 -0.2391
16726TIP3   OH271592   4.136   3.807  14.289 -0.2187  0.4188 -0.1638
16726TIP3    H171593   4.153   3.722  14.331  1.3206  0.3919 -0.7848
16726TIP3    H271594   4.098   3.785  14.204  1.3665  0.2626 -0.8697
16727TIP3   OH271595   1.468   3.094  16.554  0.8765 -0.3710  0.0021
16727TIP3    H171596   1.382   3.066  16.587 -0.7832  2.0054 -1.8604
16727TIP3    H271597   1.491   3.029  16.488 -0.0541 -0.4985 -0.2156
16728TIP3   OH271598   5.002   5.101  13.131 -0.1271  0.0246  0.1276
16728TIP3    H171599   5.075   5.041  13.146  0.2544  0.3969 -0.2294
16728TIP3    H271600   5.014   5.132  13.041  0.5397  1.8038  0.7864
16729TIP3   OH271601   1.092   1.266  13.607 -0.5433 -0.0058 -0.3478
16729TIP3    H171602   1.002   1.261  13.573  0.0224 -0.5576 -1.8302
16729TIP3    H271603   1.129   1.180  13.590 -0.3345 -0.4992  2.1679
16730TIP3   OH271604   0.028   1.256   4.729 -0.2869  0.7611 -0.7350
16730TIP3    H171605   0.110   1.306   4.732 -0.6149  1.2550  0.9764
16730TIP3    H271606  -0.002   1.253   4.820 -0.7313 -1.8587 -0.9001
16731TIP3   OH271607   1.167   1.646  13.798 -0.6338  0.5272 -0.6161
16731TIP3    H171608   1.160   1.689  13.713 -0.4248 -0.7446 -1.3067
16731TIP3    H271609   1.109   1.570  13.792  1.0173 -0.8054 -0.4478
16732TIP3   OH271610   1.020   1.251   5.308  0.2688 -0.0559 -0.2516
16732TIP3    H171611   0.998   1.240   5.400  1.4227  1.2278  0.2252
16732TIP3    H271612   1.115   1.258   5.307  0.3237 -0.7012 -1.6282
16733TIP3   OH271613   2.292   4.353   5.850  0.4251 -0.0260  0.0382
16733TIP3    H171614   2.223   4.420   5.850  0.1946 -0.1464 -2.5604
16733TIP3    H271615   2.271   4.297   5.925 -0.9982  1.2072  0.6181
16734TIP3   OH271616   0.907   1.242   3.278 -0.1445 -0.3432 -0.3229
16734TIP3    H171617   0.888   1.333   3.255  0.1983 -0.0615  0.4783
16734TIP3    H271618   0.885   1.193   3.199 -0.2536  0.4397 -0.7957
16735TIP3   OH271619   2.925   0.324   0.098  0.5251 -0.0731  0.1563
16735TIP3    H171620   2.981   0.259   0.054 -0.6868 -1.9270  1.2298
16735TIP3    H271621   2.877   0.366   0.027  0.4662 -1.1991 -0.4852
16736TIP3   OH271622   4.266   1.044  13.836 -0.2146 -0.4436 -0.8684
16736TIP3    H171623   4.189   1.059  13.782  0.9146  0.1689 -2.4038
16736TIP3    H271624   4.321   1.122  13.821 -0.0668  0.0224  1.6249
16737TIP3   OH271625   4.620   0.765  13.451 -0.4384 -1.0258  0.6469
16737TIP3    H171626   4.697   0.820  13.437 -0.9621 -0.5835 -0.6589
16737TIP3    H271627   4.579   0.802  13.529  0.1245 -0.6267  0.7641
16738TIP3   OH271628   0.733   5.895   3.076  0.1480 -0.2830  0.5294
16738TIP3    H171629   0.774   5.959   3.017  0.8204 -1.2694 -0.1058
16738TIP3    H271630   0.666   5.853   3.022 -0.3274 -0.0968  0.9625
16739TIP3   OH271631   0.893   4.717   0.905  0.5140 -0.4537  0.4507
16739TIP3    H171632   0.965   4.772   0.934  0.4677 -0.3615  0.3924
16739TIP3    H271633   0.925   4.628   0.916  0.2642 -0.4365  1.3903
16740TIP3   OH271634   2.552   1.001   1.073 -0.2714  0.1056 -0.4169
16740TIP3    H171635   2.501   1.069   1.119  0.3820  1.5391 -1.7373
16740TIP3    H271636   2.528   1.010   0.981  1.9335  0.4874 -1.0224
16741TIP3   OH271637   3.541   3.485  15.425 -0.1417  0.0896 -0.2963
16741TIP3    H171638   3.579   3.504  15.511 -0.7617 -2.1301  0.5332
16741TIP3    H271639   3.614   3.450  15.374  0.2209  1.3844 -0.6912
16742TIP3   OH271640   1.161   3.764  17.003  0.4146  0.0275  0.0906
16742TIP3    H171641   1.112   3.827  17.056  0.7524 -1.6224  2.5312
16742TIP3    H271642   1.116   3.763  16.919 -1.0027  1.8018  0.7592
16743TIP3   OH271643   0.511   5.246  17.029 -0.2771  0.5539 -0.0404
16743TIP3    H171644   0.531   5.177  16.966 -0.2726  0.3807  0.1469
16743TIP3    H271645   0.566   5.319  17.004  0.7888  0.0035  0.6135
16744TIP3   OH271646   2.264   5.640   2.646  0.0133  0.4040 -0.0717
16744TIP3    H171647   2.285   5.574   2.580  2.4038  0.3858  0.6034
16744TIP3    H271648   2.343   5.646   2.699 -0.9128  2.2978  1.2009
16745TIP3   OH271649   2.843   2.603  12.695 -0.1308 -0.1898  0.4651
16745TIP3    H171650   2.791   2.525  12.710  0.1066 -0.5630 -0.6142
16745TIP3    H271651   2.926   2.571  12.660 -0.4882  0.5970 -1.1946
16746TIP3   OH271652   4.119   0.419   5.719  0.0889 -0.2584  0.5605
16746TIP3    H171653   4.185   0.402   5.786 -1.1331 -1.0758  1.6154
16746TIP3    H271654   4.127   0.346   5.658  1.6992  0.8679 -0.6524
16747TIP3   OH271655   4.848   6.053  14.818  0.4825 -0.3759  0.5759
16747TIP3    H171656   4.905   6.114  14.864 -0.8253  0.6486  0.9136
16747TIP3    H271657   4.907   5.992  14.774  1.8998  1.9164 -0.8544
16748TIP3   OH271658   3.372   0.970  13.674  0.4055 -0.2915  0.1150
16748TIP3    H171659   3.436   0.932  13.614  2.1047  1.0044  1.0277
16748TIP3    H271660   3.342   0.896  13.728  2.2532 -0.7043  0.6475
16749TIP3   OH271661   3.486   3.907   3.198  0.4832 -0.2198  0.4244
16749TIP3    H171662   3.442   3.866   3.123  1.5694 -0.9176  0.1445
16749TIP3    H271663   3.560   3.850   3.216  0.6322  0.3239  1.6026
16750TIP3   OH271664   1.636   2.946   4.398 -0.0646 -0.0531  0.8044
16750TIP3    H171665   1.692   2.994   4.459  0.6408 -0.5614  0.5676
16750TIP3    H271666   1.656   2.854   4.414  0.0136 -0.1998 -0.0737
16751TIP3   OH271667   1.878   6.167  11.746  0.1474 -0.4262  0.3475
16751TIP3    H171668   1.865   6.177  11.840 -0.7138  0.1920  0.1723
16751TIP3    H271669   1.870   6.073  11.730  2.3093 -0.8159  1.1615
16752TIP3   OH271670   4.379   1.243  14.856  0.1856  0.6239 -0.2896
16752TIP3    H171671   4.462   1.217  14.897  0.4944  1.8513 -0.1083
16752TIP3    H271672   4.405   1.290  14.777 -0.3071  1.7845  0.2288
16753TIP3   OH271673   3.266   0.113  12.101 -0.1376 -0.2938 -0.3681
16753TIP3    H171674   3.310   0.063  12.170  0.6770 -0.1181 -0.7520
16753TIP3    H271675   3.282   0.063  12.021  0.9057  0.6710 -0.8024
16754TIP3   OH271676   0.161   1.250  11.888  0.5695  0.6026  0.4353
16754TIP3    H171677   0.082   1.236  11.940  0.5764  1.5892  0.7299
16754TIP3    H271678   0.141   1.211  11.803  0.6338 -1.2353  1.2024
16755TIP3   OH271679   5.617   4.681  15.698 -0.2403  0.6260  0.3525
16755TIP3    H171680   5.537   4.634  15.722 -0.8888  1.5137 -0.0199
16755TIP3    H271681   5.664   4.619  15.641 -2.2850  1.2764 -2.2533
16756TIP3   OH271682   4.376   5.618   1.085  0.6042  0.0489 -0.1676
16756TIP3    H171683   4.372   5.601   0.991 -1.5302 -0.8146  0.0310
16756TIP3    H271684   4.289   5.594   1.117  0.7093  1.9792  1.7576
16757TIP3   OH271685   2.592   5.497  12.589  0.3336  0.0462  0.2923
16757TIP3    H171686   2.538   5.495  12.510  1.2130 -0.5887 -0.3112
16757TIP3    H271687   2.549   5.437  12.650 -0.6659  0.9719  0.5233
16758TIP3   OH271688   6.494   1.206   4.307 -0.4400  0.3227  0.1389
16758TIP3    H171689   6.422   1.267   4.288  0.6617  1.4115 -0.7217
16758TIP3    H271690   6.566   1.262   4.335 -0.2653 -0.8465  2.2004
16759TIP3   OH271691   3.663   0.733  11.012 -0.3897  0.2203  0.6266
16759TIP3    H171692   3.709   0.684  10.943 -0.9136 -0.3912  0.7023
16759TIP3    H271693   3.691   0.691  11.093 -1.0206 -0.1151  0.6773
16760TIP3   OH271694   2.466   4.248  12.744 -0.1321  0.6309  0.4444
16760TIP3    H171695   2.535   4.312  12.764  1.2875 -0.8351  0.3726
16760TIP3    H271696   2.401   4.299  12.694  0.8717  2.0484  0.5067
16761TIP3   OH271697   1.673   3.743  11.999 -0.0286  0.4655 -0.2117
16761TIP3    H171698   1.623   3.770  11.923 -1.3292  0.1759  0.5067
16761TIP3    H271699   1.704   3.655  11.978  0.7688  0.9014 -0.9242
16762TIP3   OH271700   4.498   3.516  13.960  0.0230  0.2659  0.3044
16762TIP3    H171701   4.563   3.456  13.997  0.1853  0.6488  0.6538
16762TIP3    H271702   4.544   3.600  13.955 -1.2848  1.2911  3.2746
16763TIP3   OH271703   3.131   3.511   6.513 -0.0872  0.4476  0.4671
16763TIP3    H171704   3.090   3.426   6.493  1.0206 -0.1031  0.4659
16763TIP3    H271705   3.074   3.575   6.471 -1.4115 -0.2208  1.1582
16764TIP3   OH271706   0.954   6.702  11.532  0.1650 -1.4997  0.2096
16764TIP3    H171707   0.959   6.789  11.490 -0.6329 -0.6716  1.7354
16764TIP3    H271708   0.873   6.664  11.498 -0.2839 -0.9878  0.6799
16765TIP3   OH271709   2.089   2.151  13.883  0.6715 -0.0539  0.0400
16765TIP3    H171710   2.166   2.200  13.854  0.1937  0.9838  0.4790
16765TIP3    H271711   2.081   2.171  13.976  1.0044 -1.7292  0.4609
16766TIP3   OH271712   5.108   0.762   5.930 -0.2258 -0.1768  0.3679
16766TIP3    H171713   5.125   0.674   5.964 -0.4983 -0.0726  0.7832
16766TIP3    H271714   5.187   0.811   5.951 -0.1927 -0.2432  0.4017
16767TIP3   OH271715   1.380   2.415  15.941 -0.1891  0.2987 -0.0109
16767TIP3    H171716   1.346   2.366  15.867 -0.6376 -0.4721  0.6867
16767TIP3    H271717   1.318   2.488  15.952 -0.0143  0.5276 -0.4962
16768TIP3   OH271718   0.317   3.462  14.541  0.1953  0.4912  0.4363
16768TIP3    H171719   0.340   3.462  14.449 -0.5572 -0.2202  0.2365
16768TIP3    H271720   0.251   3.393  14.550 -0.0831  0.8577  1.4150
16769TIP3   OH271721   3.129   6.290  11.365  0.3675 -0.0575 -0.4709
16769TIP3    H171722   3.212   6.300  11.412 -0.5058  1.3316  0.8448
16769TIP3    H271723   3.155   6.260  11.278  2.0671 -2.2081  0.6665
16770TIP3   OH271724   4.018   6.016   1.622  0.5857  0.2216  0.2498
16770TIP3    H171725   4.058   6.102   1.635 -1.1874  1.3650 -1.2347
16770TIP3    H271726   3.972   5.999   1.704  1.3554  0.4331  0.7415
16771TIP3   OH271727   6.598   5.207   2.806  0.0491 -1.1255 -0.2034
16771TIP3    H171728   6.527   5.145   2.788 -0.8184 -0.1453 -0.2349
16771TIP3    H271729   6.553   5.289   2.828  1.1706 -0.0902 -1.6295
16772TIP3   OH271730   3.816   3.265  11.506  0.4016  0.2169 -0.2806
16772TIP3    H171731   3.907   3.287  11.489  0.8036 -1.1507  0.0158
16772TIP3    H271732   3.812   3.170  11.498 -0.9902  0.2498 -0.2376
16773TIP3   OH271733   6.389   0.876   1.501  0.0227  0.5692  0.3544
16773TIP3    H171734   6.471   0.826   1.494  0.3425  1.2638 -1.7245
16773TIP3    H271735   6.323   0.811   1.526  0.5565 -0.8298 -1.5997
16774TIP3   OH271736   6.782   0.012  13.344 -0.5360  0.1696 -0.5203
16774TIP3    H171737   6.717  -0.023  13.405  0.8387 -1.4719  0.0877
16774TIP3    H271738   6.730   0.043  13.270 -1.9643 -2.6136 -0.8199
16775TIP3   OH271739   2.582   0.819  16.317 -0.1843 -0.6167 -0.4559
16775TIP3    H171740   2.652   0.851  16.261 -1.2113  1.5313 -0.6012
16775TIP3    H271741   2.592   0.867  16.399  0.6775 -2.9698  0.9449
16776TIP3   OH271742   5.354   2.430   1.274 -0.8795 -0.5591 -0.2096
16776TIP3    H171743   5.413   2.489   1.321 -2.5931  1.1677 -0.0720
16776TIP3    H271744   5.356   2.349   1.324 -0.3935  0.2399  1.1149
16777TIP3   OH271745   4.591   2.970   3.905 -0.1749 -0.2224  0.0824
16777TIP3    H171746   4.548   3.011   3.829 -1.2438 -1.8834 -0.2482
16777TIP3    H271747   4.540   2.999   3.980 -0.8544 -0.8114 -0.1390
16778TIP3   OH271748   5.951   2.311   4.748  0.4771  0.2406 -0.5424
16778TIP3    H171749   5.865   2.298   4.787  0.8526  0.1386  0.2538
16778TIP3    H271750   6.009   2.327   4.822  1.0290  0.9715 -1.1215
16779TIP3   OH271751   0.214   2.018  15.987 -0.2261  0.7100  0.0806
16779TIP3    H171752   0.300   2.057  16.002  1.0077 -2.1382  1.2911
16779TIP3    H271753   0.190   1.981  16.072 -2.5551  1.2183 -0.3088
16780TIP3   OH271754   2.723   6.358  14.769  0.1405 -0.0093 -0.1747
16780TIP3    H171755   2.797   6.308  14.735  0.2788  0.3504 -0.4070
16780TIP3    H271756   2.646   6.308  14.741  0.3040 -0.9188  0.9196
16781TIP3   OH271757   1.756   6.087   1.488 -0.1631  0.4666 -0.4348
16781TIP3    H171758   1.735   6.179   1.471 -1.3892  0.1286 -0.8932
16781TIP3    H271759   1.849   6.079   1.465 -0.5101  1.1768 -2.2598
16782TIP3   OH271760   2.278   2.518   0.624  0.1462  0.3418 -0.4754
16782TIP3    H171761   2.262   2.549   0.535  0.5965 -1.1332 -1.1123
16782TIP3    H271762   2.192   2.495   0.658  0.1411 -1.0786 -1.3456
16783TIP3   OH271763   6.811   3.722  16.288 -0.1458  0.5860  0.0725
16783TIP3    H171764   6.793   3.683  16.374 -1.6258  1.2199  0.0798
16783TIP3    H271765   6.897   3.688  16.264 -0.0942 -0.3095  1.4041
16784TIP3   OH271766   4.039   5.439  12.505  0.1213 -0.4633 -0.1275
16784TIP3    H171767   4.130   5.432  12.533  1.0959 -1.3039 -3.1026
16784TIP3    H271768   3.995   5.363  12.544  0.9875 -0.7665  0.2800
16785TIP3   OH271769   6.702   0.734  11.551  0.5920  0.0566 -0.1495
16785TIP3    H171770   6.635   0.759  11.489  2.1879  1.1697 -1.5198
16785TIP3    H271771   6.663   0.662  11.601 -1.4552  0.4456 -1.0890
16786TIP3   OH271772   0.516   3.615   5.103  0.4688  0.0861  0.1383
16786TIP3    H171773   0.556   3.702   5.101  0.3313  0.1559  0.3422
16786TIP3    H271774   0.431   3.629   5.146  0.4995 -0.1704  0.2849
16787TIP3   OH271775   5.311   0.528  12.025 -0.0845  0.0782 -0.3623
16787TIP3    H171776   5.229   0.555  11.984 -2.0493  2.6592  4.4140
16787TIP3    H271777   5.368   0.604  12.018  0.6444 -0.4854 -0.6941
16788TIP3   OH271778   2.439   4.816   3.228 -0.1686 -0.1151 -0.6095
16788TIP3    H171779   2.441   4.887   3.164  2.1237  0.6624  0.2287
16788TIP3    H271780   2.454   4.737   3.176 -1.3309  0.1303 -1.3696
16789TIP3   OH271781   1.900   1.028   1.976 -0.3207 -0.1521  0.0143
16789TIP3    H171782   1.958   1.059   2.045 -2.7639  4.5340  0.4042
16789TIP3    H271783   1.938   1.062   1.895  0.2929 -1.9240 -0.4831
16790TIP3   OH271784   0.369   4.472   0.707  0.5750 -0.3264 -0.6362
16790TIP3    H171785   0.394   4.534   0.775  1.6640 -0.3734 -0.9645
16790TIP3    H271786   0.429   4.491   0.634  1.1774 -1.9603 -0.6203
16791TIP3   OH271787   3.424   0.094   6.063 -0.1323 -0.0873 -0.3987
16791TIP3    H171788   3.412   0.163   5.999  1.1770 -0.4541 -1.0640
16791TIP3    H271789   3.473   0.135   6.134  0.1995 -0.2016 -0.5615
16792TIP3   OH271790   2.734   6.019  15.128  0.4578 -0.2691  0.3772
16792TIP3    H171791   2.748   5.930  15.096  0.7613  0.1870 -0.8092
16792TIP3    H271792   2.814   6.066  15.106  0.2018  0.3687  0.7645
16793TIP3   OH271793   1.483   0.900  11.104  1.2630  0.8070 -0.1650
16793TIP3    H171794   1.495   0.808  11.081 -0.4103  0.3428  0.6744
16793TIP3    H271795   1.560   0.922  11.156  0.6640 -0.7575  1.4646
16794TIP3   OH271796   0.034   2.919  16.978 -0.5632 -0.7709 -0.0359
16794TIP3    H171797   0.127   2.899  16.983 -0.3344  0.4241  3.9569
16794TIP3    H271798  -0.010   2.839  17.010 -0.8728 -0.9301 -0.8264
16795TIP3   OH271799   3.200   2.787   5.491  0.4376 -0.2923 -0.3195
16795TIP3    H171800   3.286   2.789   5.533  1.0315 -0.3674 -1.4995
16795TIP3    H271801   3.147   2.847   5.543  2.0924  2.2634 -1.3748
16796TIP3   OH271802   5.223   6.485   1.477  0.0372  0.0063 -0.3175
16796TIP3    H171803   5.135   6.481   1.439 -1.2551 -3.8844  2.4391
16796TIP3    H271804   5.225   6.568   1.525 -1.8515  0.5060 -0.9953
16797TIP3   OH271805   2.380   0.535   0.609  0.4604 -0.3568  0.1849
16797TIP3    H171806   2.382   0.550   0.704 -0.5276 -0.2631  0.2090
16797TIP3    H271807   2.288   0.549   0.585 -0.1334 -3.9914 -0.1803
16798TIP3   OH271808   0.402   4.722  16.535 -0.8727  0.5842  0.1834
16798TIP3    H171809   0.497   4.731  16.529 -0.6296 -0.9313  1.2811
16798TIP3    H271810   0.372   4.729  16.445  0.2594  1.2273 -0.1665
16799TIP3   OH271811   1.843   0.394   1.547  0.5573  0.1601  0.1928
16799TIP3    H171812   1.784   0.464   1.573 -0.3264 -0.9847  1.4069
16799TIP3    H271813   1.868   0.416   1.458 -0.7218  1.3297  0.0845
16800TIP3   OH271814   4.135   5.930  12.536 -0.1684  0.2995  0.2198
16800TIP3    H171815   4.070   5.874  12.494 -1.0893  2.0766 -0.8855
16800TIP3    H271816   4.219   5.900  12.500 -0.2084 -2.3308  2.0261
16801TIP3   OH271817   1.997   3.870   5.130  0.0768 -0.1905  0.5646
16801TIP3    H171818   2.033   3.845   5.044 -0.3532 -0.1449  0.3667
16801TIP3    H271819   2.068   3.854   5.191  0.1817 -0.8308  0.2869
16802TIP3   OH271820   1.537   4.496  11.403 -0.3843  0.1853 -0.5135
16802TIP3    H171821   1.606   4.552  11.368  0.1929  0.4218  0.9505
16802TIP3    H271822   1.497   4.547  11.473 -0.8773 -0.6344 -0.1750
16803TIP3   OH271823   3.507   5.128  15.502  0.4541  0.0589 -0.2415
16803TIP3    H171824   3.589   5.170  15.477  1.1008 -1.2997 -0.4747
16803TIP3    H271825   3.440   5.191  15.478  1.3358  0.5969 -1.3870
16804TIP3   OH271826   5.641   1.505   2.432  0.7788 -0.3489  1.0195
16804TIP3    H171827   5.601   1.420   2.416 -0.8066  0.1515  2.1182
16804TIP3    H271828   5.656   1.541   2.344  1.0563 -1.5441  0.5558
16805TIP3   OH271829   6.190   6.489  10.937  0.7573  0.0133 -0.2158
16805TIP3    H171830   6.142   6.567  10.962  0.1968 -0.6489  0.8470
16805TIP3    H271831   6.148   6.459  10.856 -0.7337 -0.6089  0.7396
16806TIP3   OH271832   4.732   6.112   3.117  0.0908 -0.0584 -0.0789
16806TIP3    H171833   4.660   6.104   3.054 -0.6690  0.5335  0.6821
16806TIP3    H271834   4.759   6.204   3.111 -0.4502  0.1813  0.9238
16807TIP3   OH271835   3.742   1.063  13.627  0.1432  0.2391 -0.4269
16807TIP3    H171836   3.690   1.027  13.698  1.1681  0.5715  0.5099
16807TIP3    H271837   3.798   1.129  13.668  1.9759 -0.7395 -1.1988
16808TIP3   OH271838   6.390   0.534  11.027 -0.4928  0.3185 -0.4048
16808TIP3    H171839   6.393   0.554  10.934 -1.7160  0.6752 -0.3796
16808TIP3    H271840   6.298   0.543  11.051 -0.5019 -1.5199  0.4571
16809TIP3   OH271841   2.457   6.811  11.988 -0.3352  0.2344 -0.3276
16809TIP3    H171842   2.544   6.812  11.947 -0.8597  0.3696 -1.4756
16809TIP3    H271843   2.466   6.751  12.062  0.6288 -0.0790 -0.6841
16810TIP3   OH271844   3.454   5.106   1.413 -0.7505 -0.3923 -0.3839
16810TIP3    H171845   3.525   5.165   1.436 -1.3820 -0.3634  1.8022
16810TIP3    H271846   3.439   5.120   1.320  2.3193 -0.6991 -1.0102
16811TIP3   OH271847   5.650   6.532  11.749  0.0345 -0.2697 -0.6586
16811TIP3    H171848   5.685   6.604  11.697 -0.1067 -1.7684 -2.9632
16811TIP3    H271849   5.715   6.517  11.817  1.1014  0.6303 -1.4497
16812TIP3   OH271850   6.355   4.854   4.123  0.5046  0.5980 -0.1451
16812TIP3    H171851   6.379   4.774   4.171 -0.5455  0.4171  0.0966
16812TIP3    H271852   6.332   4.823   4.035  2.8363  0.9730 -0.9650
16813TIP3   OH271853   4.764   3.856   4.823  0.4690 -0.4808 -0.1883
16813TIP3    H171854   4.673   3.885   4.830  0.9785  1.1672 -0.0520
16813TIP3    H271855   4.774   3.829   4.732 -0.2046 -0.8702 -0.1524
16814TIP3   OH271856   5.285   6.282  13.265 -0.8728  0.5237  1.0944
16814TIP3    H171857   5.226   6.265  13.339  1.1421 -1.2818  2.4439
16814TIP3    H271858   5.365   6.234  13.288 -0.5804 -1.2818 -2.9036
16815TIP3   OH271859   2.164   3.628   1.309 -0.8439  0.1772  0.3259
16815TIP3    H171860   2.115   3.614   1.390 -3.2159 -0.9372 -1.1645
16815TIP3    H271861   2.106   3.682   1.255  0.8822  1.3186 -0.5003
16816TIP3   OH271862   3.923   3.701  11.420  0.0056 -0.1699  0.1437
16816TIP3    H171863   3.897   3.621  11.375 -0.9329  0.2986 -0.1686
16816TIP3    H271864   3.855   3.715  11.486  0.9664 -0.4418  1.2291
16817TIP3   OH271865   6.083   4.405  17.047  0.3718 -0.4505  0.4242
16817TIP3    H171866   6.096   4.492  17.085  0.4456 -0.4612  0.4253
16817TIP3    H271867   6.014   4.417  16.983 -0.4130 -0.6314  1.2207
16818TIP3   OH271868   4.242   4.821   3.422  0.1556 -0.1241  0.0329
16818TIP3    H171869   4.257   4.731   3.452  1.2506  0.8210  2.6127
16818TIP3    H271870   4.159   4.817   3.375  0.4571 -2.5659 -0.4097
16819TIP3   OH271871   0.694   5.760  14.057  0.1850  0.2028 -0.5647
16819TIP3    H171872   0.625   5.805  14.007 -0.4624  0.1673  0.2780
16819TIP3    H271873   0.702   5.674  14.015 -0.7540 -0.0371 -0.2774
16820TIP3   OH271874   0.070   0.117  11.937  0.2560 -0.1886 -1.1391
16820TIP3    H171875   0.117   0.099  12.019  0.2034 -2.0864 -1.4796
16820TIP3    H271876   0.138   0.116  11.870  0.1149 -0.0015 -1.2841
16821TIP3   OH271877   1.769   3.784  13.461 -0.2823  0.9064 -0.1227
16821TIP3    H171878   1.787   3.810  13.551 -0.0547  0.8138 -0.1417
16821TIP3    H271879   1.733   3.863  13.420  1.1394  1.4406 -0.3945
16822TIP3   OH271880   1.544   0.475  16.905 -1.0138  0.2698  1.1734
16822TIP3    H171881   1.496   0.527  16.969 -2.3799 -0.7167  0.9833
16822TIP3    H271882   1.533   0.523  16.823 -1.5206  0.1472  1.1666
16823TIP3   OH271883   4.484   5.689   5.593  0.1980 -0.6784 -0.0132
16823TIP3    H171884   4.485   5.724   5.682 -1.1375 -0.2704 -0.1337
16823TIP3    H271885   4.465   5.596   5.604 -1.3908 -0.3719  0.0960
16824TIP3   OH271886   5.174   3.574   4.002 -0.2223  0.0579 -0.0009
16824TIP3    H171887   5.201   3.485   3.981  0.7202  0.1246  0.8866
16824TIP3    H271888   5.249   3.613   4.046 -0.8393  1.1015  0.1748
16825TIP3   OH271889   2.656   2.738  15.261  0.3177  0.8403  0.1115
16825TIP3    H171890   2.638   2.773  15.174  0.3204  1.3349  0.3101
16825TIP3    H271891   2.584   2.769  15.315  0.3644  0.6084  0.3121
16826TIP3   OH271892   2.783   0.844   2.184  0.4816  0.1190 -0.2173
16826TIP3    H171893   2.706   0.871   2.234  1.0449  0.3199  0.5644
16826TIP3    H271894   2.846   0.915   2.198  1.3366 -0.7299  0.3743
16827TIP3   OH271895   3.001   2.210  12.819  0.3815 -0.1118  0.2321
16827TIP3    H171896   3.045   2.193  12.902  0.6321 -1.6136 -0.1748
16827TIP3    H271897   3.026   2.300  12.796  1.8585 -0.3432  0.8470
16828TIP3   OH271898   3.042   4.758   5.827  0.5385  0.4038  0.3123
16828TIP3    H171899   2.953   4.733   5.804  0.4917  0.0740  0.8334
16828TIP3    H271900   3.036   4.788   5.918  0.7537  1.4862 -0.0095
16829TIP3   OH271901   6.491   6.244   5.323  0.0027  0.2958  0.1865
16829TIP3    H171902   6.425   6.175   5.328  0.1518  0.1169 -0.3089
16829TIP3    H271903   6.490   6.284   5.410  2.0818 -2.3300  1.5495
16830TIP3   OH271904   5.573   1.215   3.949  0.0602  0.2956  0.1919
16830TIP3    H171905   5.551   1.231   3.857  0.8424  0.2867 -0.0036
16830TIP3    H271906   5.660   1.175   3.946  0.1462  0.4175  0.9443
16831TIP3   OH271907   3.382   4.710  16.869  0.2543  0.1342  0.4601
16831TIP3    H171908   3.474   4.687  16.855  0.0784 -1.3371  1.4796
16831TIP3    H271909   3.337   4.680  16.790  0.2743 -1.7910  1.1170
16832TIP3   OH271910   2.868   3.159  13.867 -0.1103 -0.0339  0.0434
16832TIP3    H171911   2.813   3.236  13.882 -0.2874 -0.3986  1.3692
16832TIP3    H271912   2.806   3.086  13.861  0.1933 -0.4059  1.2555
16833TIP3   OH271913   0.313   3.289   5.307  0.1753 -0.3600  0.5870
16833TIP3    H171914   0.310   3.272   5.213  0.9618 -0.2697  0.5391
16833TIP3    H271915   0.236   3.343   5.324 -0.9087 -1.7493  0.2923
16834TIP3   OH271916   1.422   2.975   2.331 -0.6302 -0.4956 -0.3141
16834TIP3    H171917   1.489   2.913   2.361 -0.6945 -0.0807  0.7346
16834TIP3    H271918   1.339   2.933   2.355 -0.6654  0.1759  0.8346
16835TIP3   OH271919   1.175   5.135   1.425  0.2250 -0.0868 -0.3517
16835TIP3    H171920   1.116   5.095   1.489  0.0866 -1.0665 -1.0741
16835TIP3    H271921   1.134   5.118   1.340 -0.4197  2.5708 -0.6469
16836TIP3   OH271922   1.928   3.832  10.535  0.8966 -0.2091 -0.3261
16836TIP3    H171923   1.876   3.763  10.494  1.9645 -0.9453 -0.4859
16836TIP3    H271924   1.879   3.913  10.518 -0.2641 -0.8872 -0.3285
16837TIP3   OH271925   3.118   0.363   1.866 -0.6735  0.1018 -0.2053
16837TIP3    H171926   3.135   0.437   1.924  1.4771 -0.9129  0.6030
16837TIP3    H271927   3.080   0.296   1.923  1.0581 -0.7497  0.0432
16838TIP3   OH271928   3.957   3.462  13.028 -0.6439 -0.0989  0.4570
16838TIP3    H171929   4.001   3.456  12.943 -1.2378  0.9266  0.0621
16838TIP3    H271930   4.017   3.513  13.083 -0.8296  0.3282  0.2640
16839TIP3   OH271931   2.142   2.799   0.097 -0.1150  0.9294  0.7135
16839TIP3    H171932   2.050   2.772   0.090  0.3321 -0.4859 -0.1527
16839TIP3    H271933   2.154   2.862   0.027 -0.2138  0.4553  0.2661
16840TIP3   OH271934   4.506   3.794  15.914  0.2298  0.2121 -0.3459
16840TIP3    H171935   4.561   3.731  15.961  1.0158  0.6383 -0.6682
16840TIP3    H271936   4.513   3.769  15.822  0.4477  0.6864 -0.4619
16841TIP3   OH271937   3.275   2.019   0.452 -0.0286 -0.1556 -0.5848
16841TIP3    H171938   3.227   1.977   0.523  0.8554 -1.0560 -0.4974
16841TIP3    H271939   3.317   2.094   0.494  0.7681 -0.8754 -0.0564
16842TIP3   OH271940   4.765   5.461   6.090 -0.3503 -0.4458 -0.2243
16842TIP3    H171941   4.693   5.471   6.028  1.2421  1.0235 -1.9630
16842TIP3    H271942   4.839   5.433   6.037  0.7209 -0.6171  1.2867
16843TIP3   OH271943   5.704   6.401   5.449  0.2921  0.7264  0.2095
16843TIP3    H171944   5.699   6.376   5.357 -1.2639  1.4165  0.0843
16843TIP3    H271945   5.632   6.463   5.462 -0.6164 -0.6306  2.3058
16844TIP3   OH271946   4.024   6.256   6.086 -0.0551  0.5048  0.3508
16844TIP3    H171947   4.103   6.308   6.100  0.8310 -0.9877  1.1634
16844TIP3    H271948   4.057   6.169   6.061 -1.4452 -0.0441  0.3221
16845TIP3   OH271949   5.005   0.411   2.945 -0.3965 -0.2318 -0.0011
16845TIP3    H171950   4.952   0.335   2.918 -1.5473 -0.1177  1.7263
16845TIP3    H271951   5.074   0.374   2.999 -0.0564 -0.1708 -0.3891
16846TIP3   OH271952   0.209   2.025  16.564  0.2398 -0.5928  0.4789
16846TIP3    H171953   0.210   1.929  16.559  0.2087 -0.6374  1.2246
16846TIP3    H271954   0.250   2.044  16.648 -0.6213  0.0198  0.7667
16847TIP3   OH271955   2.643   1.210  11.968 -0.8838  0.9109 -0.6218
16847TIP3    H171956   2.713   1.147  11.952 -0.7160  1.3150 -1.5259
16847TIP3    H271957   2.563   1.161  11.951 -0.9901 -0.0986  2.1502
16848TIP3   OH271958   5.957   6.539  14.140  0.2012  0.2826 -0.2404
16848TIP3    H171959   6.029   6.502  14.089 -1.5087  0.4624 -3.0122
16848TIP3    H271960   5.995   6.557  14.226  3.2517 -0.2341 -1.3460
16849TIP3   OH271961   1.285   5.748  14.880 -0.6049 -0.5605 -0.3780
16849TIP3    H171962   1.252   5.782  14.964 -2.1212 -2.2820 -0.2257
16849TIP3    H271963   1.321   5.662  14.902  0.2924 -0.4284 -1.2789
16850TIP3   OH271964   0.817   5.200   0.870 -0.1924  0.2174  0.2576
16850TIP3    H171965   0.899   5.178   0.915 -0.6172  0.6215  1.2580
16850TIP3    H271966   0.820   5.295   0.860 -1.3529  0.4948  2.0156
16851TIP3   OH271967   4.211   0.690  15.800 -0.3785  0.2760  0.4148
16851TIP3    H171968   4.156   0.767  15.788  0.1924  0.3953 -1.9926
16851TIP3    H271969   4.286   0.721  15.852  0.5614  1.7824 -1.7216
16852TIP3   OH271970   5.160   1.826   0.001 -0.3197  0.4830  0.1157
16852TIP3    H171971   5.235   1.829  -0.059 -0.5464  1.9514 -0.1522
16852TIP3    H271972   5.186   1.766   0.070  0.0291 -1.1476 -1.3399
16853TIP3   OH271973   5.136   3.819   2.171 -0.6910 -0.1917 -0.3414
16853TIP3    H171974   5.187   3.900   2.179  1.8487 -1.5091 -1.7233
16853TIP3    H271975   5.110   3.817   2.079  1.3259 -1.9846 -0.9398
16854TIP3   OH271976   4.807   2.868  14.045  0.8637  0.6554 -0.7172
16854TIP3    H171977   4.877   2.877  13.980  1.4094  0.2926 -0.1857
16854TIP3    H271978   4.790   2.774  14.049  2.0458  0.4671  0.8992
16855TIP3   OH271979   3.496   1.018   0.908 -0.2959 -0.0599  0.4576
16855TIP3    H171980   3.572   1.010   0.965  0.4747  0.9974 -0.3767
16855TIP3    H271981   3.531   1.012   0.820 -0.9974  1.5467  0.0280
16856TIP3   OH271982   5.750   2.664  16.818 -0.5054 -0.0636 -0.2626
16856TIP3    H171983   5.693   2.690  16.891  0.7310  2.2959 -0.0120
16856TIP3    H271984   5.792   2.584  16.847 -1.9200 -0.5551  0.5270
16857TIP3   OH271985   0.654   4.366  13.220 -0.2570 -0.2601 -0.4954
16857TIP3    H171986   0.685   4.403  13.303 -0.8991 -1.9599  0.5595
16857TIP3    H271987   0.657   4.271  13.234 -1.0919 -0.5640 -2.1660
16858TIP3   OH271988   0.661   2.403  15.511  0.1075  0.2296  0.0129
16858TIP3    H171989   0.688   2.364  15.594 -0.7787 -0.2039  0.1009
16858TIP3    H271990   0.701   2.491  15.512 -0.3027  0.4112  1.1121
16859TIP3   OH271991   4.974   2.474   3.657  0.2472 -0.3586  0.2469
16859TIP3    H171992   4.930   2.526   3.725 -1.7809 -1.0652 -0.4615
16859TIP3    H271993   4.998   2.393   3.701 -2.2878 -1.3857 -0.1281
16860TIP3   OH271994   1.846   3.981   5.737  0.1196 -0.1924  0.1388
16860TIP3    H171995   1.868   4.056   5.792 -0.6879  0.8186 -0.8625
16860TIP3    H271996   1.775   3.937   5.783 -1.6390  1.5330 -0.7493
16861TIP3   OH271997   1.296   4.984   1.216  0.1246 -0.2241  0.1761
16861TIP3    H171998   1.348   4.912   1.180  1.6769 -0.0133  1.9084
16861TIP3    H271999   1.342   5.063   1.189  0.0613  0.0070  0.7334
16862TIP3   OH272000   0.307   3.621   5.280  0.5189  0.0419 -0.1664
16862TIP3    H172001   0.337   3.692   5.336  1.0270 -0.9645  0.8878
16862TIP3    H272002   0.272   3.556   5.340  0.8832 -0.9792 -1.0185
16863TIP3   OH272003   5.546   6.548  16.675  0.5695 -0.2006 -0.7849
16863TIP3    H172004   5.559   6.640  16.699  2.0932 -0.6387  0.2603
16863TIP3    H272005   5.531   6.504  16.759 -0.1156 -0.9069 -1.2736
16864TIP3   OH272006   3.487   0.912  16.505 -0.3405 -0.0988  0.0207
16864TIP3    H172007   3.500   0.892  16.597 -0.4939 -1.3500 -0.2204
16864TIP3    H272008   3.398   0.946  16.500  0.5165  2.5425  0.7039
16865TIP3   OH272009   2.687   0.514  12.810  0.0920 -0.0034  0.0726
16865TIP3    H172010   2.595   0.491  12.796 -0.3142  0.9157  1.1415
16865TIP3    H272011   2.690   0.608  12.795  1.1990 -0.2622 -1.5477
16866TIP3   OH272012   4.076   6.304  12.197  0.0400  0.3402  0.2506
16866TIP3    H172013   4.049   6.231  12.253  1.0771  0.7611  1.3382
16866TIP3    H272014   4.000   6.361  12.193 -0.4368 -0.2844  0.2320
16867TIP3   OH272015   4.764   2.584   1.845  0.3422  0.4501 -0.4723
16867TIP3    H172016   4.842   2.551   1.889  1.8205  2.9374 -1.0492
16867TIP3    H272017   4.757   2.530   1.766 -1.5016 -3.0711  1.8052
16868TIP3   OH272018   2.416   3.719  13.538  0.0657  0.0711 -0.7581
16868TIP3    H172019   2.392   3.660  13.609  0.5924 -1.3380 -1.7149
16868TIP3    H272020   2.334   3.737  13.493  0.1797 -1.8388 -1.8464
16869TIP3   OH272021   0.524   0.358   2.425 -0.2078  0.2149 -0.0977
16869TIP3    H172022   0.597   0.301   2.403 -0.0260  0.8952 -1.4024
16869TIP3    H272023   0.494   0.328   2.511  0.3137 -1.3707 -0.4374
16870TIP3   OH272024   3.711   5.858  15.676  0.0454 -0.1867  0.3150
16870TIP3    H172025   3.802   5.857  15.644  0.1009 -1.2733  0.4660
16870TIP3    H272026   3.704   5.778  15.728 -0.5528  0.6686  1.5967
16871TIP3   OH272027   5.372   1.014  16.012  0.2544  0.0722 -0.0600
16871TIP3    H172028   5.427   1.068  15.955  0.8668  0.5166  0.9324
16871TIP3    H272029   5.350   1.071  16.086 -3.1251  0.5625 -1.2620
16872TIP3   OH272030   4.874   4.459   1.275  0.1645  0.1509 -0.0834
16872TIP3    H172031   4.795   4.408   1.257  0.2121 -0.3637  1.1400
16872TIP3    H272032   4.944   4.395   1.279  0.2583  0.3264  1.2612
16873TIP3   OH272033   5.061   2.312  16.008 -0.7780  0.2680  0.2341
16873TIP3    H172034   5.100   2.286  16.091 -2.1314  0.5653  1.0014
16873TIP3    H272035   4.988   2.251  15.996 -1.2094  0.8567 -0.2147
16874TIP3   OH272036   2.319   1.043   0.359  0.3960  0.0176  0.0498
16874TIP3    H172037   2.314   0.981   0.286  0.3525  0.4351 -0.3042
16874TIP3    H272038   2.248   1.105   0.343  0.6236  0.3336  0.2453
16875TIP3   OH272039   5.089   2.231   3.712  0.3910  0.1477 -0.0700
16875TIP3    H172040   5.124   2.226   3.623  0.5634  0.8661 -0.0404
16875TIP3    H272041   5.163   2.257   3.766  0.0756  0.5721  0.1572
16876TIP3   OH272042   4.577   4.777  10.430  0.1705  0.7032  0.8848
16876TIP3    H172043   4.639   4.709  10.403  1.4823  2.0240  0.4516
16876TIP3    H272044   4.522   4.735  10.496 -0.1869 -1.2783 -0.5849
16877TIP3   OH272045   5.062   0.805  16.092  0.3090  0.1794  0.8057
16877TIP3    H172046   5.137   0.756  16.060  0.4992 -0.4464  2.1375
16877TIP3    H272047   5.095   0.851  16.170 -0.2370  1.3078  0.3995
16878TIP3   OH272048   3.827   1.244  11.415  0.1139 -0.1779  0.1393
16878TIP3    H172049   3.797   1.241  11.324  1.1805  1.6034 -0.3265
16878TIP3    H272050   3.774   1.178  11.460 -2.6656  0.9920 -1.1426
16879TIP3   OH272051   4.417   2.699   0.954  0.4413  0.1118  0.0469
16879TIP3    H172052   4.361   2.659   1.020 -0.7982  0.7638 -0.5801
16879TIP3    H272053   4.399   2.649   0.874  0.9946  0.1227 -0.0878
16880TIP3   OH272054   3.141   5.963   5.678  0.1424 -0.1841  0.7767
16880TIP3    H172055   3.218   6.020   5.681 -1.0829  1.6086  0.2842
16880TIP3    H272056   3.079   6.005   5.738 -1.0069 -0.6901 -0.0333
16881TIP3   OH272057   2.278   4.934   4.121  0.0789 -0.0018 -0.3099
16881TIP3    H172058   2.343   4.952   4.189  1.8671 -0.1544 -1.8708
16881TIP3    H272059   2.304   4.849   4.086 -0.2381  0.4634 -1.7444
16882TIP3   OH272060   2.854   1.815   1.036 -0.6070  0.5660 -0.1752
16882TIP3    H172061   2.848   1.766   0.954 -0.3454  0.9328 -0.4173
16882TIP3    H272062   2.797   1.891   1.022  0.7271  1.5202 -0.6684
16883TIP3   OH272063   1.152   2.478  12.386  0.0167 -0.1693 -0.0904
16883TIP3    H172064   1.199   2.395  12.375 -0.4887 -0.2875 -1.5241
16883TIP3    H272065   1.203   2.541  12.336  0.8610  0.6144  1.6601
16884TIP3   OH272066   0.199   1.196  11.071 -0.3786  0.3640  0.0767
16884TIP3    H172067   0.124   1.217  11.126 -0.4842 -0.2079  0.1548
16884TIP3    H272068   0.201   1.266  11.005 -0.6059  0.7211  0.4414
16885TIP3   OH272069   2.578   3.677  16.502 -0.1876 -0.1131 -0.2664
16885TIP3    H172070   2.550   3.597  16.547 -1.3291 -0.0958 -0.9124
16885TIP3    H272071   2.674   3.671  16.501 -0.2498 -1.5671 -0.4569
16886TIP3   OH272072   3.519   5.964  11.346  0.0168  0.1605 -0.0884
16886TIP3    H172073   3.472   5.969  11.429  0.7283 -1.1023  0.4256
16886TIP3    H272074   3.612   5.968  11.371  0.2684  3.1480 -1.1125
16887TIP3   OH272075   3.016   6.277  11.028 -0.4082 -0.1712  0.1418
16887TIP3    H172076   3.016   6.183  11.010 -0.3963 -0.0443 -0.5598
16887TIP3    H272077   2.986   6.317  10.946 -2.4003  0.3190  1.0451
16888TIP3   OH272078   4.527   4.672   1.851 -0.3732 -0.0961  0.1091
16888TIP3    H172079   4.524   4.764   1.879 -1.5399 -0.2202  0.4473
16888TIP3    H272080   4.454   4.631   1.897  0.1857 -1.2221  0.0232
16889TIP3   OH272081   1.989   4.374  12.200 -0.4226 -0.3831  0.3735
16889TIP3    H172082   2.058   4.313  12.227 -0.5427 -0.2008  1.1227
16889TIP3    H272083   1.910   4.321  12.194  0.0802 -0.9730 -2.2471
16890TIP3   OH272084   2.096   1.256  15.459  0.2931  0.1833  0.0226
16890TIP3    H172085   2.100   1.303  15.543 -1.0901  3.1141 -1.4259
16890TIP3    H272086   2.159   1.184  15.469  2.2198  2.0577  2.5927
16891TIP3   OH272087   0.708   2.804  13.749 -0.5656 -0.0686  0.4104
16891TIP3    H172088   0.679   2.858  13.675  0.8446  1.1648  0.7149
16891TIP3    H272089   0.665   2.843  13.825 -1.5343 -0.9646  0.3449
16892TIP3   OH272090   0.858   0.245   4.123  0.0884  0.9878 -0.0384
16892TIP3    H172091   0.929   0.292   4.167  0.4522 -1.3759  2.1198
16892TIP3    H272092   0.844   0.167   4.176 -2.5788  0.1845 -1.7125
16893TIP3   OH272093   5.064   4.893  14.930 -0.5023  0.4854 -0.5139
16893TIP3    H172094   5.098   4.892  15.019 -0.8753 -1.4102 -0.3467
16893TIP3    H272095   5.139   4.875  14.874 -0.5745 -0.0337 -0.4431
16894TIP3   OH272096   2.514   0.423   5.309  0.0686  0.3257  0.0448
16894TIP3    H172097   2.450   0.372   5.260 -0.5255  0.8085  0.3069
16894TIP3    H272098   2.589   0.431   5.250 -0.5516  0.7170 -0.7093
16895TIP3   OH272099   2.617   4.523   1.344 -0.6942 -0.6038 -0.1916
16895TIP3    H172100   2.589   4.605   1.303  0.8839 -0.5217 -1.1752
16895TIP3    H272101   2.565   4.456   1.301  1.1993 -0.5775 -2.7834
16896TIP3   OH272102   1.002   0.505   2.301  0.0128 -0.8726  0.6665
16896TIP3    H172103   0.922   0.519   2.251 -0.0621 -1.0955  0.7232
16896TIP3    H272104   1.072   0.512   2.235  0.1768  1.9003  1.0038
16897TIP3   OH272105   3.053   5.215  13.474  0.5282  0.3472 -0.1858
16897TIP3    H172106   3.081   5.132  13.437 -3.4925 -0.6779 -1.3983
16897TIP3    H272107   3.032   5.195  13.566  0.6465  0.3020 -0.1690
16898TIP3   OH272108   6.017   6.279   1.360 -0.2752 -0.3003 -0.6358
16898TIP3    H172109   6.059   6.252   1.442 -1.1109  2.6452  0.8796
16898TIP3    H272110   6.090   6.307   1.305  0.1107  1.2735  0.5854
16899TIP3   OH272111   3.086   2.929  11.773 -0.5368  0.2031 -0.5658
16899TIP3    H172112   3.091   2.836  11.796  2.7372  0.0560 -1.3761
16899TIP3    H272113   3.070   2.930  11.679  1.0264  0.3236 -0.8711
16900TIP3   OH272114   4.181   5.170   2.272  0.2244  0.3720 -0.6597
16900TIP3    H172115   4.170   5.237   2.204 -0.0380  1.2387  0.1991
16900TIP3    H272116   4.106   5.111   2.261 -1.1819  1.8570  0.3186
16901TIP3   OH272117   3.613   4.836   3.837  0.1356  0.4793  0.2321
16901TIP3    H172118   3.597   4.926   3.865 -0.2062  0.2671  0.7365
16901TIP3    H272119   3.526   4.802   3.814 -0.0955 -0.4544  2.3054
16902TIP3   OH272120   5.355   1.931  13.211 -0.2643 -0.3390  0.0920
16902TIP3    H172121   5.370   2.018  13.249 -0.1272 -0.3762  0.1256
16902TIP3    H272122   5.385   1.938  13.121 -1.7178  0.0971 -0.3830
16903TIP3   OH272123   1.862   3.874   4.481 -0.2996  0.1136  0.1020
16903TIP3    H172124   1.884   3.960   4.517 -1.6825  1.4763 -2.0834
16903TIP3    H272125   1.922   3.862   4.408 -0.0211 -0.8649  0.4754
16904TIP3   OH272126   4.424   3.298   0.868 -0.7063 -0.0215 -0.9329
16904TIP3    H172127   4.392   3.209   0.884  1.3456 -0.9156 -1.5008
16904TIP3    H272128   4.364   3.354   0.916 -1.8803 -1.7341 -0.3191
16905TIP3   OH272129   2.382   0.323  14.094 -0.2021 -0.3508 -0.4775
16905TIP3    H172130   2.362   0.279  14.012  1.1622 -0.1177 -0.9555
16905TIP3    H272131   2.334   0.273  14.160  0.3896 -1.8806 -1.1494
16906TIP3   OH272132   0.102   0.744  15.622  0.4567  0.4282 -0.4726
16906TIP3    H172133   0.099   0.799  15.700  0.3746 -0.8797  0.4755
16906TIP3    H272134   0.195   0.723  15.611  0.2416 -1.4873  0.8423
16907TIP3   OH272135   3.265   6.408   1.686  0.2377 -0.2082  0.6300
16907TIP3    H172136   3.322   6.367   1.620 -1.1314 -0.5312 -0.3980
16907TIP3    H272137   3.264   6.501   1.661  1.2845  0.0378  1.4150
16908TIP3   OH272138   3.302   5.215   0.415 -0.0412  0.2579  0.1108
16908TIP3    H172139   3.224   5.252   0.374  0.4659  1.4432  0.1761
16908TIP3    H272140   3.345   5.290   0.458 -0.2285 -0.8121  2.3172
16909TIP3   OH272141   3.780   5.610  14.641  0.4595 -0.5562  0.8050
16909TIP3    H172142   3.873   5.629  14.640  0.1301  1.1958 -0.2094
16909TIP3    H272143   3.758   5.604  14.734  1.6133 -1.2317  1.0461
16910TIP3   OH272144   6.549   6.611   2.667  0.0136  0.4669  0.6260
16910TIP3    H172145   6.627   6.662   2.688 -0.4774  0.8584  1.5766
16910TIP3    H272146   6.562   6.527   2.710 -0.0252  0.4741  0.6518
16911TIP3   OH272147   6.374   1.424  14.020 -0.3815  0.3239  0.2657
16911TIP3    H172148   6.469   1.413  14.012 -0.0637 -1.0547  3.9927
16911TIP3    H272149   6.363   1.514  14.052 -0.2880  0.3051  0.3513
16912TIP3   OH272150   6.293   3.186  13.136 -0.0434  0.2438 -0.2438
16912TIP3    H172151   6.378   3.229  13.149 -0.7664  1.2487  1.4417
16912TIP3    H272152   6.299   3.105  13.186  0.1449 -0.0176 -0.6821
16913TIP3   OH272153   3.577   3.149   2.847  0.0162 -0.6363 -0.4488
16913TIP3    H172154   3.586   3.077   2.785  1.0422 -1.6886  0.8717
16913TIP3    H272155   3.588   3.228   2.794 -1.0484 -1.4221 -1.9075
16914TIP3   OH272156   2.933   3.387  16.780 -0.2536  0.0049 -0.0708
16914TIP3    H172157   2.913   3.299  16.747 -1.4849  0.0161  0.5685
16914TIP3    H272158   2.901   3.386  16.870  2.1645  0.2635  0.8513
16915TIP3   OH272159   6.253   0.383  16.595 -0.6768 -0.6272  0.5788
16915TIP3    H172160   6.164   0.406  16.621 -0.0272  2.1083  0.7190
16915TIP3    H272161   6.283   0.458  16.544  1.4181 -1.6569  0.1841
16916TIP3   OH272162   1.807   1.153  13.787 -0.1170 -0.1307  0.0489
16916TIP3    H172163   1.771   1.064  13.790 -1.5667  0.4340  0.0693
16916TIP3    H272164   1.902   1.140  13.780 -0.2931 -1.6731  0.1566
16917TIP3   OH272165   3.784   1.494   4.723 -0.1668 -0.3565 -0.2165
16917TIP3    H172166   3.745   1.464   4.641 -1.4255 -0.5489  0.4332
16917TIP3    H272167   3.710   1.519   4.778  0.7351  1.4707  0.2342
16918TIP3   OH272168   1.389   1.087  13.020 -0.0164 -0.0502 -0.6302
16918TIP3    H172169   1.345   1.141  12.954 -1.2606 -1.9499 -1.4722
16918TIP3    H272170   1.338   1.099  13.099  0.1546  0.5637 -0.6125
16919TIP3   OH272171   1.369   6.763   0.556  0.3572  0.2704 -0.3190
16919TIP3    H172172   1.384   6.810   0.638  2.3186 -1.0297  0.1424
16919TIP3    H272173   1.297   6.703   0.575  0.1400  0.6756  0.1402
16920TIP3   OH272174   5.014   0.477   2.556  0.0980  0.0028  0.5765
16920TIP3    H172175   5.090   0.444   2.603  1.1438  1.3139 -0.1337
16920TIP3    H272176   5.022   0.442   2.467 -0.0834  0.2148  0.4737
16921TIP3   OH272177   6.753   1.800  16.640  0.3128  0.2970  0.1266
16921TIP3    H172178   6.674   1.844  16.609  1.6298  1.8351 -1.2542
16921TIP3    H272179   6.779   1.850  16.717  0.4392  0.3389  0.0563
16922TIP3   OH272180   3.776   1.099   6.493  0.0204 -0.6643  0.2386
16922TIP3    H172181   3.853   1.140   6.455 -0.6345  0.4743  0.0855
16922TIP3    H272182   3.777   1.009   6.460  1.8206 -0.9919  1.0546
16923TIP3   OH272183   6.718   2.686  12.672 -0.8034  0.3159  0.0840
16923TIP3    H172184   6.717   2.670  12.767 -0.2265  0.6823  0.1573
16923TIP3    H272185   6.808   2.669  12.646 -1.0440 -0.1372 -0.4707
16924TIP3   OH272186   1.112   5.726  11.554 -0.0670  0.3155  0.3341
16924TIP3    H172187   1.130   5.755  11.644 -1.1741  1.5857  0.1753
16924TIP3    H272188   1.016   5.719  11.550  0.0340 -0.9395 -0.3981
16925TIP3   OH272189   2.656   5.995  13.033  0.4229  0.1423  0.5262
16925TIP3    H172190   2.613   5.928  12.979  0.7875  0.7615 -0.5699
16925TIP3    H272191   2.743   5.958  13.052 -0.6751 -1.3290  3.1643
16926TIP3   OH272192   5.552   3.258   2.052 -0.1144  0.0611  0.5391
16926TIP3    H172193   5.548   3.350   2.080 -0.9156 -0.0862  0.9123
16926TIP3    H272194   5.608   3.216   2.117 -0.6231  0.0619  0.9776
16927TIP3   OH272195   0.271   1.790  11.169  0.3457 -0.1780 -0.3789
16927TIP3    H172196   0.220   1.709  11.169  1.0460 -0.6238 -0.5396
16927TIP3    H272197   0.359   1.764  11.140  0.8432  0.4649  0.4966
16928TIP3   OH272198   4.938   6.401   3.673  0.4308 -0.2531 -0.3618
16928TIP3    H172199   4.991   6.331   3.637 -1.1201 -0.6161 -2.1073
16928TIP3    H272200   4.860   6.357   3.708  0.4663  0.4061  0.6094
16929TIP3   OH272201   0.448   1.692   3.648 -0.7015 -0.0293  0.1952
16929TIP3    H172202   0.452   1.717   3.555  1.1513 -0.1201  0.2078
16929TIP3    H272203   0.410   1.768   3.692 -1.0517  0.2470 -0.5622
16930TIP3   OH272204   6.666   4.669   5.742  0.0954  0.0165 -0.4812
16930TIP3    H172205   6.601   4.617   5.695 -0.5482 -0.6451  1.0791
16930TIP3    H272206   6.692   4.613   5.816  2.5558  0.1923 -1.1372
16931TIP3   OH272207   3.573   0.282  14.742 -0.1428 -0.1040  0.2093
16931TIP3    H172208   3.502   0.338  14.774 -1.3004 -2.4574  2.1151
16931TIP3    H272209   3.590   0.222  14.814  1.8483 -1.4586 -1.2867
16932TIP3   OH272210   4.483   6.635   2.790  0.7197  0.1211 -0.0370
16932TIP3    H172211   4.554   6.618   2.728  1.0077 -0.3439  0.4152
16932TIP3    H272212   4.526   6.645   2.874  0.2123 -0.6229  0.3195
16933TIP3   OH272213   3.494   1.042  15.540  0.2084  0.0059  0.0314
16933TIP3    H172214   3.417   1.069  15.590 -0.1463 -0.8013 -0.0644
16933TIP3    H272215   3.558   1.017  15.606  0.7995  1.7111  0.1458
16934TIP3   OH272216   3.945   6.330  16.220 -0.1971  0.5577  0.0446
16934TIP3    H172217   3.884   6.286  16.162 -1.3618 -0.1373  1.7362
16934TIP3    H272218   4.026   6.279  16.214  0.2761  1.4588 -2.1686
16935TIP3   OH272219   2.524   4.559   0.811  0.2667  0.4471  0.2772
16935TIP3    H172220   2.541   4.477   0.764 -1.0977 -0.1915  0.8599
16935TIP3    H272221   2.547   4.628   0.748 -0.6312 -0.3773 -0.9971
16936TIP3   OH272222   4.080   0.163   3.196  0.2102  0.0460 -0.5766
16936TIP3    H172223   4.070   0.151   3.290 -1.2409 -0.5524 -0.7770
16936TIP3    H272224   4.160   0.214   3.186  0.3567  0.1548  0.9776
16937TIP3   OH272225   4.421   1.929  16.568 -0.4447 -0.0855  0.5028
16937TIP3    H172226   4.401   1.836  16.564  0.9683 -0.3636 -1.2088
16937TIP3    H272227   4.414   1.959  16.477  4.5247  0.2105 -0.0370
16938TIP3   OH272228   2.730   0.670  13.837  0.8223  0.1344 -0.0218
16938TIP3    H172229   2.665   0.631  13.779  3.2252 -3.4041 -0.6304
16938TIP3    H272230   2.803   0.694  13.780  0.8210  2.4382  0.8501
16939TIP3   OH272231   0.929   5.354  12.689  0.0543 -0.1097  0.5658
16939TIP3    H172232   0.990   5.281  12.690 -0.8572 -0.8873  1.2376
16939TIP3    H272233   0.949   5.402  12.608  1.2281 -0.6040  0.5611
16940TIP3   OH272234   3.610   0.426   0.554  0.2641 -0.1703 -0.2300
16940TIP3    H172235   3.597   0.434   0.460 -0.4375  1.8761 -0.0056
16940TIP3    H272236   3.545   0.484   0.593  1.9178  0.6952  1.4386
16941TIP3   OH272237   0.446   6.812   4.858 -0.2005 -0.3798 -0.4773
16941TIP3    H172238   0.469   6.831   4.948  0.3963 -0.2428 -0.6528
16941TIP3    H272239   0.523   6.768   4.822  0.3422  1.3031 -1.4759
16942TIP3   OH272240   0.219   6.052   1.683 -0.8106 -0.1796  0.0356
16942TIP3    H172241   0.282   6.063   1.611 -1.4557 -1.2019 -0.7079
16942TIP3    H272242   0.185   5.963   1.671 -2.2344  0.2785  0.5575
16943TIP3   OH272243   5.599   0.538  14.162 -0.2185 -0.4515  0.2616
16943TIP3    H172244   5.609   0.467  14.099 -0.0210  0.1578 -0.4073
16943TIP3    H272245   5.504   0.544  14.177 -0.1319 -1.9728  1.6528
16944TIP3   OH272246   0.174   4.048  12.278  0.0268  0.1456 -0.2104
16944TIP3    H172247   0.162   3.992  12.355 -0.3628 -1.4263 -1.3480
16944TIP3    H272248   0.231   3.997  12.221 -0.3504  0.9109 -1.3008
16945TIP3   OH272249   0.040   3.675   3.564  0.3417  0.0188 -0.2203
16945TIP3    H172250  -0.054   3.669   3.548  0.4787 -1.5620 -0.6380
16945TIP3    H272251   0.052   3.755   3.615 -1.3236 -0.2175  0.5763
16946TIP3   OH272252   6.231   5.965  11.613 -0.2213 -0.1442 -0.3050
16946TIP3    H172253   6.326   5.954  11.610 -0.0967  0.6602  0.4058
16946TIP3    H272254   6.210   5.969  11.706 -1.0744 -1.2407 -0.4271
16947TIP3   OH272255   4.976   2.658  10.137  0.3055 -0.4531 -0.0917
16947TIP3    H172256   5.052   2.681  10.191 -0.6536  0.9956  0.6993
16947TIP3    H272257   4.902   2.700  10.181 -0.6045  0.2526 -2.1849
16948TIP3   OH272258   1.314   3.233   1.776 -0.0760  0.1664  0.2718
16948TIP3    H172259   1.305   3.145   1.811 -0.1882  0.1906  0.3017
16948TIP3    H272260   1.372   3.222   1.700 -3.5449 -0.6822 -2.4989
16949TIP3   OH272261   1.527   6.501   1.378  0.3006  0.3989  0.1543
16949TIP3    H172262   1.609   6.503   1.328 -0.0812  0.2011 -0.4931
16949TIP3    H272263   1.490   6.589   1.367  0.0936  0.2789 -0.1282
16950TIP3   OH272264   0.232   3.519  13.998  0.1198 -0.2092  0.1520
16950TIP3    H172265   0.321   3.554  14.005  0.4029 -0.5388 -1.4413
16950TIP3    H272266   0.176   3.590  14.030  0.9252  0.0471  1.0594
16951TIP3   OH272267   5.096   2.239   1.363  0.9000  0.3816 -0.3161
16951TIP3    H172268   5.149   2.261   1.440  2.3617 -2.4602 -0.3862
16951TIP3    H272269   5.028   2.182   1.396  1.1388 -0.3216 -1.0175
16952TIP3   OH272270   6.359   0.620  13.869 -0.0577 -0.0923 -0.6989
16952TIP3    H172271   6.316   0.663  13.795 -1.0217 -1.8435 -1.1973
16952TIP3    H272272   6.349   0.527  13.852 -0.0517 -0.5421  1.5066
16953TIP3   OH272273   0.865   0.973  16.799 -0.5360 -0.5975  0.0094
16953TIP3    H172274   0.847   0.894  16.850 -2.0130  0.7585  1.7330
16953TIP3    H272275   0.957   0.967  16.776 -0.6145 -2.8119  0.0836
16954TIP3   OH272276   1.251   4.940  12.886 -0.0107  0.0823  0.1373
16954TIP3    H172277   1.180   4.894  12.930  0.5927 -0.6939  0.3254
16954TIP3    H272278   1.299   4.872  12.839  0.4514  0.6303 -0.2125
16955TIP3   OH272279   3.143   6.104  11.743  0.1994 -0.7625 -0.2777
16955TIP3    H172280   3.068   6.136  11.793  0.3359 -1.4716  0.4107
16955TIP3    H272281   3.209   6.084  11.810  0.6939 -0.9385 -0.8107
16956TIP3   OH272282   3.601   5.903  13.141 -0.1341 -0.2908 -0.1663
16956TIP3    H172283   3.662   5.967  13.178 -0.9202  1.0613 -1.1009
16956TIP3    H272284   3.558   5.950  13.069 -0.3706 -2.0466 -1.2453
16957TIP3   OH272285   4.838   4.676   2.568 -0.2774 -0.0579 -0.0417
16957TIP3    H172286   4.806   4.713   2.650  0.8474  1.6209 -0.2904
16957TIP3    H272287   4.929   4.654   2.586  0.1763  0.9350 -0.9722
16958TIP3   OH272288   6.354   3.621   6.008 -0.0835 -0.5521  0.5610
16958TIP3    H172289   6.268   3.583   5.990 -0.0135 -0.5003  0.0924
16958TIP3    H272290   6.349   3.652   6.098 -1.2077  1.1593 -0.0295
16959TIP3   OH272291   3.175   1.194   6.050 -0.1350 -0.0550 -0.0360
16959TIP3    H172292   3.252   1.240   6.085  0.1054 -0.3641 -0.1434
16959TIP3    H272293   3.172   1.218   5.958 -0.4944  0.3933  0.0936
16960TIP3   OH272294   2.311   4.754   0.315 -0.3590  0.1268  0.2357
16960TIP3    H172295   2.303   4.845   0.287 -2.2340 -0.3793 -1.0251
16960TIP3    H272296   2.250   4.706   0.259 -1.1142 -1.5800  2.3940
16961TIP3   OH272297   5.768   0.616   2.205  0.0931  0.1416 -0.0770
16961TIP3    H172298   5.772   0.567   2.288 -1.0617 -0.6124 -0.4431
16961TIP3    H272299   5.795   0.552   2.139 -0.7528  0.1932 -0.4790
16962TIP3   OH272300   3.671   4.010   4.379 -0.1345  0.2741  0.1683
16962TIP3    H172301   3.661   4.016   4.474 -0.7943 -1.2972  0.2234
16962TIP3    H272302   3.763   3.986   4.366 -0.2329 -0.2987  0.4706
16963TIP3   OH272303   3.030   3.771  16.573  0.0062  0.3278  0.2422
16963TIP3    H172304   3.043   3.798  16.482  3.2536 -0.1012  0.4621
16963TIP3    H272305   2.963   3.703  16.568 -1.6384  1.9404 -1.4579
16964TIP3   OH272306   4.609   1.159  11.487 -0.8415 -0.3078 -0.0172
16964TIP3    H172307   4.648   1.208  11.559  1.6903 -3.3420  0.8928
16964TIP3    H272308   4.631   1.210  11.409  1.3364  0.2185  0.8804
16965TIP3   OH272309   2.691   1.055  14.264 -0.2179  0.0802 -0.1600
16965TIP3    H172310   2.735   1.140  14.276  1.0341 -0.6600  0.8014
16965TIP3    H272311   2.628   1.070  14.194 -1.1241  2.2163  1.0288
16966TIP3   OH272312   5.466   3.626   2.602  0.0859  0.2005  0.1721
16966TIP3    H172313   5.380   3.627   2.558  0.6519  0.7280 -0.9596
16966TIP3    H272314   5.449   3.665   2.687 -0.1611  3.8751 -1.3881
16967TIP3   OH272315   4.972   6.528  11.394 -0.2832 -0.1452  0.6083
16967TIP3    H172316   4.909   6.466  11.432 -1.2716  0.9636  0.8213
16967TIP3    H272317   5.038   6.540  11.462 -0.6135 -0.2200  0.9502
16968TIP3   OH272318   4.266   5.278   0.817  0.1316 -0.1075 -0.0944
16968TIP3    H172319   4.320   5.245   0.745 -1.7467  0.4291 -1.8834
16968TIP3    H272320   4.298   5.366   0.833  2.2041 -1.0667  1.5663
16969TIP3   OH272321   3.158   6.308   2.387 -0.3005 -0.0945  0.2996
16969TIP3    H172322   3.129   6.381   2.332  0.4694  0.3662  0.4971
16969TIP3    H272323   3.105   6.234   2.358 -0.2964  0.2748 -0.6877
16970TIP3   OH272324   0.101   6.406   1.932 -0.0622 -0.1012 -0.1544
16970TIP3    H172325   0.089   6.412   1.837  1.4816  0.0686 -0.3644
16970TIP3    H272326   0.196   6.412   1.945 -0.2901  0.6222  1.4589
16971TIP3   OH272327   2.544   1.134   0.016  0.2932  0.2133 -0.7257
16971TIP3    H172328   2.577   1.143  -0.073 -2.8416 -2.7266 -2.4054
16971TIP3    H272329   2.453   1.162   0.011 -0.0365 -0.2681  1.5176
16972TIP3   OH272330   3.994   2.610  16.553 -0.5327  0.2393  0.2234
16972TIP3    H172331   4.076   2.606  16.505 -0.1488  0.6085  0.8283
16972TIP3    H272332   4.004   2.687  16.610  0.0138 -1.4882  2.6417
16973TIP3   OH272333   3.448   4.883  16.274  0.2709 -0.1567 -0.6136
16973TIP3    H172334   3.416   4.954  16.218 -1.8513  0.2363  0.9579
16973TIP3    H272335   3.503   4.926  16.339  1.0755 -0.3294 -1.1717
16974TIP3   OH272336   0.169   5.455   3.509  0.1005  0.1124  0.8881
16974TIP3    H172337   0.082   5.464   3.468 -0.8167 -1.0983  2.4558
16974TIP3    H272338   0.195   5.365   3.489  0.5855  0.1800  1.2066
16975TIP3   OH272339   3.929   1.417   2.191  0.3295 -0.2307 -0.0444
16975TIP3    H172340   3.944   1.324   2.170 -1.1533 -0.1380 -1.7228
16975TIP3    H272341   3.879   1.414   2.272 -0.7372 -0.9789 -0.7017
16976TIP3   OH272342   0.802   5.260  15.997 -0.0422 -0.0393 -0.6181
16976TIP3    H172343   0.718   5.214  15.997  0.5400 -1.1926  1.1170
16976TIP3    H272344   0.793   5.326  16.066  0.4090 -0.0161 -0.5797
16977TIP3   OH272345   4.934   3.473  14.672 -0.2558 -0.5745 -0.9824
16977TIP3    H172346   4.897   3.544  14.618  0.8861  1.0516  0.2925
16977TIP3    H272347   5.016   3.450  14.628 -0.0501 -0.2844 -0.7507
16978TIP3   OH272348   5.825   4.581  11.269  0.1078 -0.1851  0.1007
16978TIP3    H172349   5.900   4.573  11.209 -1.1940  0.6540 -1.7503
16978TIP3    H272350   5.749   4.585  11.211 -1.7084 -3.5944  1.9156
16979TIP3   OH272351   4.107   1.770  15.132 -0.1226 -0.1888  1.0015
16979TIP3    H172352   4.062   1.851  15.157  2.4299  1.5716  0.2490
16979TIP3    H272353   4.053   1.701  15.170 -2.2423  1.8508  1.9750
16980TIP3   OH272354   2.990   5.147  12.571 -0.1718 -0.2287  0.0263
16980TIP3    H172355   2.910   5.109  12.605 -0.5280 -1.3884 -1.9331
16980TIP3    H272356   3.010   5.096  12.492  0.6011  2.1961 -1.4839
16981TIP3   OH272357   5.694   1.558  16.570  0.2180  0.3649 -0.4832
16981TIP3    H172358   5.754   1.487  16.593  0.1642  0.7038  0.7385
16981TIP3    H272359   5.641   1.572  16.648 -0.5885  0.9517 -1.1112
16982TIP3   OH272360   5.988   5.546  11.841 -0.5316  0.0831  0.2574
16982TIP3    H172361   5.948   5.582  11.762 -0.5949 -0.0822  0.2146
16982TIP3    H272362   5.913   5.521  11.896 -0.4881 -0.0932  0.2367
16983TIP3   OH272363   6.622   6.652   5.074  0.0154 -0.4082 -0.5123
16983TIP3    H172364   6.676   6.627   5.149  1.2298  1.0026 -0.8928
16983TIP3    H272365   6.681   6.699   5.016 -1.8195  2.1801 -0.4304
16984TIP3   OH272366   1.138   2.470   4.950  0.1578  0.3881 -0.3096
16984TIP3    H172367   1.136   2.452   5.044  1.2664  0.4656 -0.2565
16984TIP3    H272368   1.152   2.384   4.910 -0.3740  0.3474 -0.4058
16985TIP3   OH272369   6.343   5.226   2.349 -0.1288 -0.4728 -0.2598
16985TIP3    H172370   6.303   5.193   2.430 -0.6207  0.2292 -0.2062
16985TIP3    H272371   6.437   5.225   2.367 -0.2554  0.2190  0.5513
16986TIP3   OH272372   3.149   2.219  10.841 -0.4459  0.2678 -0.0407
16986TIP3    H172373   3.189   2.134  10.856 -2.1054 -0.5317  0.0351
16986TIP3    H272374   3.166   2.238  10.749  1.1488  0.5394  0.2858
16987TIP3   OH272375   2.792   5.603   4.493 -0.6021 -0.7219  0.0790
16987TIP3    H172376   2.752   5.688   4.514 -0.1300 -0.8371  1.5518
16987TIP3    H272377   2.861   5.625   4.430 -0.9562 -0.1176 -0.1152
16988TIP3   OH272378   1.610   0.032  13.947 -0.5764 -0.5876 -0.9668
16988TIP3    H172379   1.605   0.031  13.852  0.0314  1.2275 -1.0665
16988TIP3    H272380   1.519   0.026  13.977 -1.1006  1.9586 -1.7952
16989TIP3   OH272381   3.002   2.206   3.697 -0.9468 -0.2110  0.2051
16989TIP3    H172382   2.946   2.264   3.645  2.6361  1.9804 -1.5982
16989TIP3    H272383   3.030   2.260   3.771 -1.6768 -1.5130  1.4811
16990TIP3   OH272384   3.016   1.104   2.646 -0.2823  0.3516 -0.2787
16990TIP3    H172385   3.058   1.021   2.669 -2.2252 -0.5426  0.2438
16990TIP3    H272386   3.037   1.163   2.718  0.2449  0.0021 -0.1425
16991TIP3   OH272387   3.368   4.238   4.903 -0.5011 -0.2150 -0.1289
16991TIP3    H172388   3.321   4.295   4.842 -1.2825  0.1300  0.7864
16991TIP3    H272389   3.301   4.179   4.937 -0.0938 -0.3394  0.4709
16992TIP3   OH272390   1.044   3.969   0.294 -0.5640 -0.0850 -0.1905
16992TIP3    H172391   1.023   4.010   0.377 -0.4783 -0.2212 -0.1010
16992TIP3    H272392   1.080   3.883   0.318  0.6432  0.3681 -0.3108
16993TIP3   OH272393   0.609   0.820  13.349  0.0595 -0.0976  0.5120
16993TIP3    H172394   0.688   0.820  13.296 -0.9215 -0.6327 -1.0154
16993TIP3    H272395   0.560   0.896  13.320 -0.0648  0.1585  1.3594
16994TIP3   OH272396   2.480   5.815   3.627 -0.2908  0.3078 -0.6241
16994TIP3    H172397   2.469   5.741   3.567 -1.0573  0.6489 -0.9240
16994TIP3    H272398   2.398   5.817   3.677  0.0165  0.5213 -0.1223
16995TIP3   OH272399   3.507   1.459  14.063 -0.0901  0.2632 -0.3456
16995TIP3    H172400   3.544   1.535  14.109  1.5881 -0.9750  0.4643
16995TIP3    H272401   3.529   1.474  13.971 -1.4415  1.6439 -0.4814
16996TIP3   OH272402   1.211   1.298   4.028 -0.3203  0.4815  0.3169
16996TIP3    H172403   1.304   1.290   4.005 -0.0882  1.6905  0.7541
16996TIP3    H272404   1.207   1.375   4.084 -2.2158  3.4699 -3.4545
16997TIP3   OH272405   6.006   4.827   4.001  0.0703 -0.8722 -0.0790
16997TIP3    H172406   6.026   4.920   4.008 -1.1697 -0.3569 -2.2464
16997TIP3    H272407   5.914   4.820   4.027 -0.5729 -1.0198 -2.1925
16998TIP3   OH272408   1.243   5.841   4.929  0.6203  0.0672  0.2630
16998TIP3    H172409   1.278   5.789   4.856  1.9404  0.7342  0.3914
16998TIP3    H272410   1.250   5.931   4.899 -0.8867  0.2368  0.3682
16999TIP3   OH272411   5.982   2.067  15.124  0.1245  1.1225  0.1216
16999TIP3    H172412   5.983   2.163  15.129  0.3401  1.1426 -0.3296
16999TIP3    H272413   5.889   2.045  15.123  0.0589  1.3924 -0.9537
17000TIP3   OH272414   1.642   4.463   0.807  0.1598 -0.1087 -0.4404
17000TIP3    H172415   1.564   4.503   0.768  1.1417  1.3711 -0.9670
17000TIP3    H272416   1.623   4.459   0.901 -0.6533 -0.0197 -0.5942
17001TIP3   OH272417   2.820   2.122   1.554  0.7931 -0.1193 -0.4430
17001TIP3    H172418   2.851   2.099   1.467 -0.0623  0.7024 -0.9873
17001TIP3    H272419   2.739   2.071   1.565  0.1339  0.8240 -0.7310
17002TIP3   OH272420   2.128   0.057   2.912 -0.0348 -0.0609  0.5888
17002TIP3    H172421   2.040   0.019   2.912 -0.5742  0.9048  3.5020
17002TIP3    H272422   2.143   0.082   3.004  2.1462  2.3894 -0.3030
17003TIP3   OH272423   6.147   6.437  16.734 -0.6830 -0.1739 -0.3551
17003TIP3    H172424   6.232   6.417  16.773 -0.2081  1.2162 -0.6036
17003TIP3    H272425   6.118   6.354  16.696  0.2537 -0.8261  0.2936
17004TIP3   OH272426   6.561   4.383   4.237  0.2467  0.0516 -0.1522
17004TIP3    H172427   6.550   4.477   4.250 -0.5082  0.0621 -0.7900
17004TIP3    H272428   6.644   4.374   4.190 -0.7216  0.5880 -2.0552
17005TIP3   OH272429   5.616   0.050   4.738  0.4691  0.1093 -0.2716
17005TIP3    H172430   5.692   0.076   4.790  1.3557  0.9933 -1.9547
17005TIP3    H272431   5.542   0.057   4.799  1.2841  2.4274  0.5329
17006TIP3   OH272432   2.910   3.663   3.705 -0.2769 -0.3310  0.1789
17006TIP3    H172433   2.914   3.654   3.609  0.5581  2.1950 -0.1024
17006TIP3    H272434   2.874   3.751   3.719  0.0417 -0.4765  2.1849
17007TIP3   OH272435   0.004   3.642  13.388  0.6024  0.0753  0.5482
17007TIP3    H172436   0.005   3.736  13.408  1.3596 -0.0071  0.8892
17007TIP3    H272437   0.008   3.639  13.292  2.5236  0.3647  0.5925
17008TIP3   OH272438   2.352   6.435  12.038  0.0727 -0.1477 -0.1716
17008TIP3    H172439   2.357   6.506  12.102 -0.5940  0.5491 -0.8833
17008TIP3    H272440   2.316   6.361  12.088  0.8611 -0.0367  0.5952
17009TIP3   OH272441   6.148   5.923   2.028  0.6769  0.2277 -0.0934
17009TIP3    H172442   6.226   5.965   2.063  0.4696  0.4392  0.1217
17009TIP3    H272443   6.179   5.875   1.952  1.5226 -1.9686  1.5392
17010TIP3   OH272444   2.577   5.129   0.520  0.2204 -0.2943 -0.3435
17010TIP3    H172445   2.506   5.168   0.570 -0.2565 -1.9055  0.2776
17010TIP3    H272446   2.657   5.163   0.562 -0.1007  2.1762 -1.5614
17011TIP3   OH272447   0.906   6.659  15.360  0.2664  0.2522  0.3986
17011TIP3    H172448   0.921   6.567  15.381 -0.7877 -0.2358 -0.8457
17011TIP3    H272449   0.824   6.660  15.310  0.4499  1.8240  0.0549
17012TIP3   OH272450   2.441   1.868   1.250 -0.4419 -0.3459  0.2399
17012TIP3    H172451   2.521   1.815   1.243  0.0055  0.5328 -2.3368
17012TIP3    H272452   2.393   1.847   1.170 -0.5018  2.6867 -0.6132
17013TIP3   OH272453   4.356   0.735  12.757  0.1663 -0.5649 -1.2639
17013TIP3    H172454   4.333   0.827  12.744 -0.1670 -0.7366 -1.8935
17013TIP3    H272455   4.360   0.698  12.669 -0.6567 -1.3895 -0.9689
17014TIP3   OH272456   2.156   3.351   3.475  0.4409 -0.2204  0.5337
17014TIP3    H172457   2.242   3.379   3.443  0.0046 -1.7844 -2.3283
17014TIP3    H272458   2.173   3.316   3.562  2.4753  0.5769  0.5135
17015TIP3   OH272459   6.752   1.853   0.950  0.3012 -0.4608  0.1670
17015TIP3    H172460   6.725   1.852   0.858 -0.8027 -0.3811  0.4780
17015TIP3    H272461   6.718   1.771   0.986  1.5234 -0.9265  0.3014
17016TIP3   OH272462   1.755   2.635   3.674 -0.4745 -0.3348  0.1262
17016TIP3    H172463   1.801   2.691   3.611 -0.2242  2.9109  2.8930
17016TIP3    H272464   1.662   2.646   3.653 -0.3632  0.0748 -0.1751
17017TIP3   OH272465   6.281   1.266   1.315 -0.1471 -0.4643 -0.0799
17017TIP3    H172466   6.233   1.344   1.343 -0.5774 -0.9842  0.6788
17017TIP3    H272467   6.223   1.225   1.251 -0.0232 -0.2783 -0.3100
17018TIP3   OH272468   4.867   4.492   0.791  0.0878  0.2433 -0.0555
17018TIP3    H172469   4.784   4.470   0.748 -0.3868 -1.7676  1.7351
17018TIP3    H272470   4.876   4.587   0.778 -1.7659  0.2922 -1.4789
17019TIP3   OH272471   5.103   6.290   5.470 -0.3750  0.0045 -0.2671
17019TIP3    H172472   5.088   6.334   5.554  2.0460  1.4342 -0.4982
17019TIP3    H272473   5.059   6.345   5.406  0.3961  0.6601 -0.2516
17020TIP3   OH272474   5.577   1.214  15.955  0.1561  0.1119  0.3960
17020TIP3    H172475   5.627   1.270  15.896  0.0153  0.1397  0.3044
17020TIP3    H272476   5.523   1.275  16.006  1.2242  0.2154  1.4730
17021TIP3   OH272477   2.007   0.048  15.754  0.0081  0.3183 -0.0136
17021TIP3    H172478   2.032   0.131  15.796  0.5238  0.4168 -0.4938
17021TIP3    H272479   1.976   0.074  15.667 -2.9124  0.3090  0.9207
17022TIP3   OH272480   2.579   1.349  14.185  0.0221  0.0960  0.2302
17022TIP3    H172481   2.623   1.327  14.102 -0.8748  2.7916 -1.0672
17022TIP3    H272482   2.492   1.378  14.159 -1.4745 -1.9939  2.4757
17023TIP3   OH272483   5.610   2.085   1.782  0.3632  0.3066  0.3003
17023TIP3    H172484   5.647   2.127   1.860  0.6963  0.9590 -0.1921
17023TIP3    H272485   5.518   2.111   1.782  0.8054  2.0752 -0.6198
17024TIP3   OH272486   1.499   0.876  11.758  0.2562 -0.0592 -0.0581
17024TIP3    H172487   1.489   0.785  11.787 -0.4255  0.3349  0.9971
17024TIP3    H272488   1.582   0.904  11.795 -0.6719  0.4833  1.6995
17025TIP3   OH272489   2.192   4.181   0.273  0.1282 -0.2497  0.3878
17025TIP3    H172490   2.208   4.090   0.298  0.1360 -0.6600 -1.0265
17025TIP3    H272491   2.274   4.227   0.291  0.0213 -0.4349  1.4095
17026TIP3   OH272492   2.782   1.772  10.987  0.0096  0.3312  0.7652
17026TIP3    H172493   2.817   1.727  11.064 -0.0180  0.5427  0.9038
17026TIP3    H272494   2.687   1.772  11.000  0.0023  0.3330  0.7113
17027TIP3   OH272495   3.969   6.269  14.522  0.1877  0.0272 -0.3604
17027TIP3    H172496   3.916   6.344  14.495 -0.1069  0.2655  0.8116
17027TIP3    H272497   4.053   6.282  14.478 -0.4289  0.0986 -1.5635
17028TIP3   OH272498   5.631   1.460  14.809  0.5412 -0.6218  0.3008
17028TIP3    H172499   5.641   1.539  14.863 -1.4500  1.3733 -1.9938
17028TIP3    H272500   5.668   1.484  14.725  0.9935 -2.6424 -0.1312
17029TIP3   OH272501   6.015   4.574  12.525  0.2356 -0.4901  0.4683
17029TIP3    H172502   5.986   4.512  12.592 -0.0578 -0.6622  0.1840
17029TIP3    H272503   5.995   4.660  12.563 -1.9256 -0.6126 -0.2598
17030TIP3   OH272504   6.331   3.066  12.506 -0.4171 -0.1116  0.6654
17030TIP3    H172505   6.401   3.130  12.515 -2.1660  2.1404 -0.6378
17030TIP3    H272506   6.376   2.982  12.495  1.9885  0.9674  1.6630
17031TIP3   OH272507   3.493   4.589   0.486 -0.1417  0.2109 -0.1197
17031TIP3    H172508   3.462   4.622   0.402  2.5932  0.5748 -1.0760
17031TIP3    H272509   3.424   4.613   0.548 -1.6902  0.9637 -2.0308
17032TIP3   OH272510   5.525   2.464  12.323  0.0784 -0.1759 -0.5536
17032TIP3    H172511   5.471   2.528  12.368 -0.2843 -0.9234  0.0991
17032TIP3    H272512   5.562   2.511  12.248 -0.8605  0.5525 -0.5686
17033TIP3   OH272513   3.752   2.739   0.621  0.2093 -0.6191  0.3539
17033TIP3    H172514   3.818   2.739   0.689  0.0572 -2.5418  0.5650
17033TIP3    H272515   3.671   2.713   0.666 -0.8667  2.1840  0.2081
17034TIP3   OH272516   3.153   2.539   6.026  0.0472  0.2133 -0.3824
17034TIP3    H172517   3.149   2.634   6.011  0.0180  0.3437  0.4038
17034TIP3    H272518   3.214   2.529   6.099  0.0801 -0.3856 -0.4861
17035TIP3   OH272519   3.048   4.160  14.781  0.1122  0.6791  0.3967
17035TIP3    H172520   3.083   4.083  14.826  0.7718 -0.5628 -2.0727
17035TIP3    H272521   2.961   4.172  14.818  0.2690 -0.8314  1.3294
17036TIP3   OH272522   2.449   3.841  15.258 -0.4792 -0.3069 -0.5249
17036TIP3    H172523   2.475   3.764  15.309 -1.2014  0.8697  1.7286
17036TIP3    H272524   2.511   3.909  15.283 -1.8326  0.7565  0.0612
17037TIP3   OH272525   4.950   0.409  10.842  0.4251 -0.3372 -0.0703
17037TIP3    H172526   4.991   0.434  10.925 -0.3767  0.7792  0.0114
17037TIP3    H272527   5.023   0.383  10.786  1.2875  1.6137  0.0718
17038TIP3   OH272528   5.636   4.919   1.138  0.1477  0.0232  0.2724
17038TIP3    H172529   5.633   4.833   1.096 -1.2625  0.7209 -1.1563
17038TIP3    H272530   5.613   4.901   1.229 -0.4351 -1.0946 -0.0740
17039TIP3   OH272531   4.554   2.333   2.936  0.4308 -0.4082 -0.4689
17039TIP3    H172532   4.641   2.342   2.974 -0.1650  1.3711  0.6027
17039TIP3    H272533   4.543   2.239   2.923  1.9491 -0.7904  0.7002
17040TIP3   OH272534   5.243   0.599  16.714  0.4689 -0.4835  0.1397
17040TIP3    H172535   5.224   0.687  16.748  1.5854 -0.2973  0.2991
17040TIP3    H272536   5.159   0.553  16.722 -0.2643  0.7062 -0.4121
17041TIP3   OH272537   1.834   1.595  15.195 -0.2924 -0.5959  0.5376
17041TIP3    H172538   1.772   1.597  15.268 -0.5528  3.3548  0.4418
17041TIP3    H272539   1.918   1.572  15.234 -1.0782 -2.2692  1.3341
17042TIP3   OH272540   1.979   2.223   4.245 -0.3941  0.1160  0.0482
17042TIP3    H172541   1.935   2.141   4.221 -0.6454  0.3455 -0.2890
17042TIP3    H272542   2.050   2.196   4.303  0.2781 -0.4699 -1.0060
17043TIP3   OH272543   1.004   5.428  15.319 -0.1607 -0.0352 -0.1351
17043TIP3    H172544   1.081   5.480  15.296  0.3275 -0.6422  0.0970
17043TIP3    H272545   1.001   5.431  15.415 -0.3006 -0.1979 -0.1331
17044TIP3   OH272546   6.572   3.483  12.577  0.9681  0.2831 -0.3798
17044TIP3    H172547   6.500   3.537  12.609  0.8015  0.1111 -0.4638
17044TIP3    H272548   6.617   3.538  12.514  2.4488  1.3532  1.4850
17045TIP3   OH272549   2.083   2.462   2.963  0.4392  0.1350 -0.2680
17045TIP3    H172550   2.139   2.515   2.907  1.6114  0.8911  1.5348
17045TIP3    H272551   2.074   2.512   3.044 -0.5426 -1.2479  0.5392
17046TIP3   OH272552   4.200   1.019   4.294 -0.1393  0.6917 -0.6940
17046TIP3    H172553   4.293   1.002   4.280 -0.1451 -1.0461  1.0387
17046TIP3    H272554   4.163   1.023   4.206  1.6946  2.4925 -1.4679
17047TIP3   OH272555   0.901   3.675  16.165 -0.4771 -0.8245 -0.0959
17047TIP3    H172556   0.947   3.697  16.246 -0.9583 -0.4149  0.0716
17047TIP3    H272557   0.962   3.698  16.095 -0.8230  0.7375  0.0841
17048TIP3   OH272558   5.340   1.803  12.539 -0.3544  0.4607 -0.7405
17048TIP3    H172559   5.363   1.833  12.627  1.8757  0.3021 -1.2136
17048TIP3    H272560   5.381   1.866  12.480 -0.4796 -0.3115 -1.6785
17049TIP3   OH272561   1.470   1.903   2.857  0.1709 -0.0807  0.3278
17049TIP3    H172562   1.535   1.933   2.920 -0.2107  0.7230  0.3526
17049TIP3    H272563   1.392   1.884   2.909  0.1941 -0.4595  0.2271
17050TIP3   OH272564   6.319   2.879  15.433  0.0708 -0.1168  0.2568
17050TIP3    H172565   6.340   2.972  15.440 -0.4343  0.0371 -0.2558
17050TIP3    H272566   6.272   2.871  15.350 -1.0251 -0.6162  0.9084
17051TIP3   OH272567   5.395   3.957  15.952 -0.6083 -0.1479 -0.0288
17051TIP3    H172568   5.303   3.980  15.966 -0.7344 -0.1700 -0.7743
17051TIP3    H272569   5.400   3.864  15.972 -0.7420 -0.1404  0.0395
17052TIP3   OH272570   4.519   2.513  13.491  0.6739 -0.1822  0.0804
17052TIP3    H172571   4.531   2.566  13.412 -1.3079  1.9528  1.0993
17052TIP3    H272572   4.590   2.540  13.549 -0.0637  1.1193  0.4195
17053TIP3   OH272573   0.292   0.970  14.700  0.7477  0.3417  0.3596
17053TIP3    H172574   0.291   1.013  14.614 -1.3630 -0.1116  0.0951
17053TIP3    H272575   0.297   0.877  14.679 -1.2967  0.1274  0.5928
17054TIP3   OH272576   3.383   5.115   2.362 -0.5194 -0.0396 -0.0589
17054TIP3    H172577   3.427   5.128   2.446  2.4020 -1.0913 -1.3008
17054TIP3    H272578   3.392   5.199   2.317  0.7243 -0.3873 -0.4907
17055TIP3   OH272579   6.748   2.740  16.739  0.8859  0.1038 -0.0938
17055TIP3    H172580   6.822   2.785  16.779  1.6215 -0.5374 -0.7172
17055TIP3    H272581   6.715   2.681  16.806 -0.5280  2.0007  0.9901
17056TIP3   OH272582   2.238   5.209   0.395  0.5776 -0.1097 -0.4225
17056TIP3    H172583   2.276   5.206   0.482  2.0568 -1.4186 -1.0630
17056TIP3    H272584   2.233   5.302   0.373  1.2109  0.1755  0.6170
17057TIP3   OH272585   1.260   2.655   2.554 -0.1870 -0.2609 -0.3218
17057TIP3    H172586   1.344   2.643   2.598 -1.4028 -3.2304  1.5488
17057TIP3    H272587   1.204   2.697   2.619 -0.9672 -1.2174 -0.3386
17058TIP3   OH272588   5.025   5.329  12.500 -0.1275 -0.3583  0.3120
17058TIP3    H172589   4.944   5.361  12.460 -0.2142 -0.1517  0.6495
17058TIP3    H272590   5.082   5.406  12.503 -0.6688  0.0255  1.9773
17059TIP3   OH272591   3.249   1.350   0.547 -0.3655  0.2014 -0.0170
17059TIP3    H172592   3.312   1.278   0.554  1.8506  2.0033 -0.4294
17059TIP3    H272593   3.186   1.332   0.617 -1.3994 -3.4394 -1.6340
17060TIP3   OH272594   4.151   2.035   2.684 -0.1174  0.3588  0.0670
17060TIP3    H172595   4.072   1.982   2.691  1.3229 -1.7908  1.1285
17060TIP3    H272596   4.129   2.117   2.728 -1.5590 -0.4256  0.8742
17061TIP3   OH272597   2.586   5.599  14.244  0.8119  0.4863 -0.2513
17061TIP3    H172598   2.624   5.670  14.296  0.9410  0.4315 -0.2713
17061TIP3    H272599   2.493   5.620  14.240  0.4380 -0.5725  1.7216
17062TIP3   OH272600   2.434   2.486  15.067 -0.1688  0.5928 -0.8430
17062TIP3    H172601   2.456   2.579  15.063 -1.6352  1.0241  0.1005
17062TIP3    H272602   2.380   2.471  14.990 -0.7113  0.7759 -0.5094
17063TIP3   OH272603   5.970   1.739  12.462 -0.0424  0.2269  0.0634
17063TIP3    H172604   5.967   1.660  12.516  2.7723  0.8605  1.3794
17063TIP3    H272605   5.950   1.709  12.373 -0.4189 -1.6918  0.7599
17064TIP3   OH272606   1.429   5.015   3.398  0.1026 -0.3811  0.1914
17064TIP3    H172607   1.444   5.108   3.418  0.4572 -0.8186  2.2236
17064TIP3    H272608   1.347   4.995   3.444 -0.9159 -0.6861 -1.6807
17065TIP3   OH272609   3.203   3.254   3.694 -0.4924 -0.4036 -0.1826
17065TIP3    H172610   3.200   3.160   3.676 -0.5869 -0.5207  0.4318
17065TIP3    H272611   3.124   3.289   3.652 -0.7177 -0.6743  0.0143
17066TIP3   OH272612   5.538   3.374  11.895 -0.0694  0.2856  0.3105
17066TIP3    H172613   5.632   3.360  11.881  0.1336  0.6344  1.2822
17066TIP3    H272614   5.503   3.287  11.910  0.1756  0.1982  0.3802
17067TIP3   OH272615   5.540   5.299   0.913 -0.6298 -0.4265 -0.6738
17067TIP3    H172616   5.550   5.393   0.929 -1.4997 -0.7247  2.1313
17067TIP3    H272617   5.616   5.259   0.955 -1.5538 -1.0911  0.4519
17068TIP3   OH272618   4.702   3.587   3.736  0.1825 -0.1172  0.3156
17068TIP3    H172619   4.796   3.573   3.750  0.4501 -0.4714 -1.6383
17068TIP3    H272620   4.672   3.507   3.693 -0.6053  0.7618 -0.8156
17069TIP3   OH272621   4.024   5.773  14.510 -0.5538  0.2118 -0.8218
17069TIP3    H172622   4.045   5.830  14.436 -0.7868  2.3032  0.6119
17069TIP3    H272623   4.109   5.752  14.549 -0.4243 -0.9852 -1.7286
17070TIP3   OH272624   1.130   1.593   0.497  0.1249  0.0274  0.5137
17070TIP3    H172625   1.065   1.648   0.452 -0.1494  1.0562  2.0730
17070TIP3    H272626   1.194   1.656   0.530 -0.2116 -0.5630  2.3729
17071TIP3   OH272627   2.076   0.331   3.759 -0.3637 -0.1388 -0.3903
17071TIP3    H172628   1.989   0.370   3.767 -0.7059 -1.0810  0.7062
17071TIP3    H272629   2.062   0.237   3.770  0.6825 -0.4114 -1.1662
17072TIP3   OH272630   2.082   4.351   4.439 -0.6436 -0.1649 -0.3486
17072TIP3    H172631   2.149   4.344   4.506 -1.5985  1.0533  0.7984
17072TIP3    H272632   2.122   4.404   4.370  0.2965 -1.3190 -0.7122
17073TIP3   OH272633   5.898   2.939   1.758  0.2853  0.8769 -0.1964
17073TIP3    H172634   5.834   2.953   1.828  0.9782  0.6677  0.4886
17073TIP3    H272635   5.891   3.017   1.703 -0.4531  0.9226 -0.0475
17074TIP3   OH272636   0.719   4.679  15.429  0.1725 -0.0905 -0.0837
17074TIP3    H172637   0.728   4.767  15.467 -1.0231  0.2101 -0.4626
17074TIP3    H272638   0.642   4.685  15.373  0.0923 -1.3834 -0.1367
17075TIP3   OH272639   0.042   5.164   5.034 -0.3195  0.6756 -0.2239
17075TIP3    H172640  -0.008   5.093   4.993  0.5737  0.0464 -0.2424
17075TIP3    H272641   0.122   5.171   4.981  0.1938  0.8167  0.5612
17076TIP3   OH272642   5.514   0.264   1.223  0.1161 -0.8077 -0.0435
17076TIP3    H172643   5.486   0.178   1.190  1.3730 -1.9400  1.6387
17076TIP3    H272644   5.453   0.282   1.295 -1.4358  0.7555 -1.6473
17077TIP3   OH272645   1.570   6.268  11.095  0.0972 -0.0613  0.0100
17077TIP3    H172646   1.532   6.233  11.176  1.5074 -0.7043  0.4316
17077TIP3    H272647   1.514   6.234  11.025 -0.4885 -0.4351  0.6520
17078TIP3   OH272648   3.113   6.498  16.243 -0.1086  0.4968  0.0834
17078TIP3    H172649   3.194   6.468  16.285 -0.5857  1.0430  1.4712
17078TIP3    H272650   3.063   6.418  16.230 -0.2459  0.3631  1.2731
17079TIP3   OH272651   6.702   6.528   0.593 -0.0038  0.1618 -0.1799
17079TIP3    H172652   6.750   6.456   0.634 -0.8649 -0.5317 -0.3545
17079TIP3    H272653   6.614   6.522   0.630  0.1785  1.8069  0.6220
17080TIP3   OH272654   0.824   3.617  15.353 -0.2920  0.1920 -0.7078
17080TIP3    H172655   0.909   3.593  15.391 -0.3385  0.3284 -0.5183
17080TIP3    H272656   0.767   3.632  15.428 -0.1740  1.2332 -0.8081
17081TIP3   OH272657   1.950   2.626   1.461  0.1708  0.4448  0.1342
17081TIP3    H172658   1.948   2.542   1.415 -1.4735 -0.1090  1.1436
17081TIP3    H272659   1.967   2.690   1.392  0.4876 -0.6249 -0.8096
17082TIP3   OH272660   2.892   3.634  14.463  0.0797 -0.3467 -0.4908
17082TIP3    H172661   2.855   3.625  14.375 -0.7640 -0.1677 -0.1686
17082TIP3    H272662   2.972   3.686  14.450  1.0337 -1.9409 -1.3893
17083TIP3   OH272663   6.714   5.043  15.184  0.4799  0.1761  0.0280
17083TIP3    H172664   6.756   5.129  15.189 -0.6965  0.7917 -0.1835
17083TIP3    H272665   6.738   5.010  15.098 -0.1134  0.8850 -0.4248
17084TIP3   OH272666   1.213   5.118  16.380 -0.5612  0.3973  0.3732
17084TIP3    H172667   1.222   5.070  16.463  0.3780  1.5276  0.9524
17084TIP3    H272668   1.297   5.106  16.336 -1.3669 -0.9629 -0.8752
17085TIP3   OH272669   0.413   5.782   4.309  0.0640 -0.5826  0.7791
17085TIP3    H172670   0.361   5.748   4.236 -1.5763 -0.2721  1.7453
17085TIP3    H272671   0.495   5.811   4.268 -1.1200  0.3500 -1.1006
17086TIP3   OH272672   4.575   3.678   1.196  0.1207  0.2499 -0.1373
17086TIP3    H172673   4.481   3.671   1.186  0.0452  0.4662  0.3563
17086TIP3    H272674   4.611   3.605   1.147 -0.3854 -0.8263  1.0431
17087TIP3   OH272675   5.004   6.110  13.992  0.4627  0.4721 -0.3091
17087TIP3    H172676   5.018   6.021  14.024  1.9809  1.3059  1.5369
17087TIP3    H272677   5.092   6.145  13.979 -0.1019  1.2406 -2.5576
17088TIP3   OH272678   5.147   5.371   3.264  0.3343 -0.8216 -0.0810
17088TIP3    H172679   5.219   5.340   3.319  1.6486  0.0594 -1.2002
17088TIP3    H272680   5.139   5.464   3.285 -0.4208 -0.8997 -0.0259
17089TIP3   OH272681   4.136   1.894  13.695 -0.0586  0.3103  0.3196
17089TIP3    H172682   4.117   1.865  13.606 -2.2008 -1.3021  1.2054
17089TIP3    H272683   4.123   1.989  13.693  0.0054  0.3055 -1.0903
17090TIP3   OH272684   0.206   5.246  12.245 -0.0101  0.2712 -0.1987
17090TIP3    H172685   0.159   5.164  12.234  1.5373 -0.7607  0.5693
17090TIP3    H272686   0.287   5.222  12.290  1.0587  2.0370 -1.0504
17091TIP3   OH272687   5.068   2.929   4.981  0.4575  0.6387  0.2001
17091TIP3    H172688   5.137   2.905   5.043 -0.3394  0.1987  0.9351
17091TIP3    H272689   5.066   2.857   4.918 -0.1398  0.0464  0.8793
17092TIP3   OH272690   5.167   5.663  16.271  0.9085 -0.1616 -0.2534
17092TIP3    H172691   5.195   5.716  16.345 -0.4028 -0.2659  0.3498
17092TIP3    H272692   5.195   5.713  16.194 -0.1995  1.3965  0.2986
17093TIP3   OH272693   0.782   4.605  15.089 -0.1196  0.0995 -0.0925
17093TIP3    H172694   0.870   4.566  15.087 -0.2831 -0.2731 -1.9977
17093TIP3    H272695   0.796   4.696  15.061 -0.4627 -0.3188 -1.7237
17094TIP3   OH272696   0.144   6.384   4.924 -0.0093 -0.3321 -0.2953
17094TIP3    H172697   0.166   6.474   4.949 -1.1145 -0.0004 -0.4847
17094TIP3    H272698   0.220   6.333   4.952  1.4173  0.8924 -1.6820
17095TIP3   OH272699   4.422   0.416   4.901 -0.6277 -0.7298  0.4247
17095TIP3    H172700   4.407   0.416   4.996  1.2181  3.7467  0.9550
17095TIP3    H272701   4.515   0.397   4.891 -0.1293  1.6326 -0.1125
17096TIP3   OH272702   1.599   0.995   4.586 -0.0276 -0.2171 -0.2101
17096TIP3    H172703   1.634   1.077   4.620  2.7946 -1.4864  0.1975
17096TIP3    H272704   1.634   0.988   4.497 -0.4913 -0.8364 -0.3580
17097TIP3   OH272705   6.397   0.218   2.080  0.0882  0.4255 -0.0796
17097TIP3    H172706   6.428   0.143   2.131  0.8717  1.1198  0.4833
17097TIP3    H272707   6.454   0.290   2.105 -0.5243  1.1755 -0.7683
17098TIP3   OH272708   2.046   5.066   4.439 -0.2915 -0.3348  0.4137
17098TIP3    H172709   2.115   5.130   4.422 -0.3266 -0.1647  0.8996
17098TIP3    H272710   1.999   5.060   4.356  0.5771 -0.7912 -0.0621
17099TIP3   OH272711   4.506   1.438  15.312  0.0234  0.2426  0.0096
17099TIP3    H172712   4.488   1.463  15.222 -2.6930  1.8628  0.9133
17099TIP3    H272713   4.496   1.342  15.313 -0.7727  0.2963 -1.2271
17100TIP3   OH272714   6.030   3.609   3.697  0.7752 -0.1587 -0.3010
17100TIP3    H172715   5.984   3.527   3.682 -1.8431  0.9984  0.8217
17100TIP3    H272716   6.041   3.647   3.610  0.3749 -0.8831 -0.6719
17101TIP3   OH272717   1.194   1.725  15.310 -0.8036 -0.0310  0.0360
17101TIP3    H172718   1.250   1.691  15.380  1.6872 -1.9451 -2.6623
17101TIP3    H272719   1.199   1.820  15.319 -1.1455 -0.1988  2.7821
17102TIP3   OH272720   0.305   4.832   1.277 -0.2934 -0.2712 -0.1285
17102TIP3    H172721   0.341   4.903   1.331 -1.4504 -0.3347  0.7587
17102TIP3    H272722   0.381   4.780   1.253  0.4551  0.7069  0.0426
17103TIP3   OH272723   6.352   5.285  11.790  0.3992 -0.2630 -0.5492
17103TIP3    H172724   6.299   5.333  11.726 -0.8323 -2.3999 -1.2165
17103TIP3    H272725   6.383   5.208  11.742  3.3141  0.3437  0.1329
17104TIP3   OH272726   4.792   4.012   4.154  0.0269 -0.5242 -0.9068
17104TIP3    H172727   4.867   4.061   4.190 -0.0789  0.0748 -1.4689
17104TIP3    H272728   4.828   3.967   4.078  0.2096 -1.6401 -0.1723
17105TIP3   OH272729   6.070   2.926   0.079 -0.0465  0.1579  0.2914
17105TIP3    H172730   5.999   2.866   0.056  0.9627 -0.7446 -0.5486
17105TIP3    H272731   6.035   3.013   0.059 -0.9573 -0.2624  0.0009
17106TIP3   OH272732   1.379   2.153  12.605  0.2526 -0.1206  0.0204
17106TIP3    H172733   1.302   2.209  12.614  1.9052  1.9847  2.3593
17106TIP3    H272734   1.427   2.190  12.530 -0.3942 -0.7122 -0.7025
17107TIP3   OH272735   1.766   1.500   4.140 -1.0692  0.0510  0.3825
17107TIP3    H172736   1.730   1.588   4.128  0.7311  0.5100 -2.5825
17107TIP3    H272737   1.777   1.466   4.051  0.0566 -2.4427  1.3825
17108TIP3   OH272738   4.767   0.886  12.846 -0.2846  0.1574  0.1972
17108TIP3    H172739   4.724   0.917  12.767  0.2062  0.2745 -0.0311
17108TIP3    H272740   4.758   0.790  12.842 -0.8220  0.1974  0.3344
17109TIP3   OH272741   6.551   5.649  15.060  0.0579 -0.2208 -1.0564
17109TIP3    H172742   6.521   5.592  14.989 -1.5797 -0.6031 -0.1258
17109TIP3    H272743   6.561   5.590  15.135  2.4468  0.0490 -1.0874
17110TIP3   OH272744   0.523   3.296   5.503 -0.6715  0.2871 -0.1312
17110TIP3    H172745   0.529   3.218   5.449  2.4256  1.0348 -1.0771
17110TIP3    H272746   0.441   3.337   5.478 -2.3381 -2.5027  0.3146
17111TIP3   OH272747   4.151   6.127  16.204 -0.2926  0.3973  0.5232
17111TIP3    H172748   4.164   6.068  16.279 -0.7686  1.1213  1.1960
17111TIP3    H272749   4.094   6.077  16.145  1.2025 -0.7230 -0.0258
17112TIP3   OH272750   1.585   6.003   5.981 -0.0419  0.5758 -0.7034
17112TIP3    H172751   1.611   6.095   5.987  0.4332  0.4082 -0.0245
17112TIP3    H272752   1.668   5.955   5.977 -0.1882  0.0347  1.3686
17113TIP3   OH272753   5.840   4.633   5.015  0.2879  0.0257  0.4552
17113TIP3    H172754   5.807   4.720   5.041  0.4911  0.1061  0.4471
17113TIP3    H272755   5.817   4.577   5.089 -0.5492 -0.0833  0.1168
17114TIP3   OH272756   4.829   3.235  13.022 -0.0409 -0.3455 -0.2927
17114TIP3    H172757   4.863   3.309  12.971 -0.7242  1.7595  2.0540
17114TIP3    H272758   4.902   3.209  13.078 -0.6168  0.6163  0.9710
17115TIP3   OH272759   5.290   6.465   4.489 -0.6315  0.3187 -0.3177
17115TIP3    H172760   5.287   6.482   4.583 -1.0504 -2.1633  0.1798
17115TIP3    H272761   5.355   6.396   4.479  1.9050  2.7487 -2.3294
17116TIP3   OH272762   3.797   5.338   2.240 -0.2248  0.4158  0.6922
17116TIP3    H172763   3.729   5.273   2.257 -0.4938  0.5696  0.2242
17116TIP3    H272764   3.836   5.311   2.157  0.0384  0.5387  0.7736
17117TIP3   OH272765   4.249   4.046  13.878  0.0754  0.7746  0.1007
17117TIP3    H172766   4.209   4.128  13.849 -0.5789 -0.6221 -3.4476
17117TIP3    H272767   4.343   4.062  13.875 -0.0493  1.4385 -0.4221
17118TIP3   OH272768   6.229   4.387  16.446 -0.6699 -0.4676 -0.4445
17118TIP3    H172769   6.248   4.433  16.365 -0.4216 -0.9130 -0.6454
17118TIP3    H272770   6.200   4.455  16.507 -0.3241 -0.0528 -0.7399
17119TIP3   OH272771   4.547   3.185   3.682 -0.2226 -0.2823 -0.1273
17119TIP3    H172772   4.538   3.228   3.597  0.8615 -0.7294 -0.4780
17119TIP3    H272773   4.628   3.220   3.719 -0.8172  0.1105  0.8616
17120TIP3   OH272774   0.038   2.418  12.078 -0.0061 -0.9432 -0.0788
17120TIP3    H172775  -0.037   2.403  12.136  0.2650 -1.6872  0.0832
17120TIP3    H272776   0.007   2.390  11.992 -0.9544  1.6014 -0.6877
17121TIP3   OH272777   6.548   6.210   1.463  0.3526  0.2783 -0.1545
17121TIP3    H172778   6.463   6.171   1.445 -0.0024  0.8719  0.1884
17121TIP3    H272779   6.607   6.136   1.475  0.1517 -0.1306 -1.6101
17122TIP3   OH272780   6.786   2.315  12.883  0.1473 -0.9565 -0.5163
17122TIP3    H172781   6.699   2.294  12.918  0.5171  0.0861  1.1892
17122TIP3    H272782   6.772   2.329  12.790 -1.6019 -0.4089 -0.2110
17123TIP3   OH272783   4.485   4.509   3.644  0.0098  0.8608  0.2510
17123TIP3    H172784   4.439   4.426   3.654 -0.1613  0.7605 -1.2113
17123TIP3    H272785   4.426   4.574   3.684 -0.2184  0.3979  0.6793
17124TIP3   OH272786   1.637   0.432  10.131 -0.3261 -0.1022 -0.1604
17124TIP3    H172787   1.605   0.364  10.190  0.7326 -1.3374 -0.9420
17124TIP3    H272788   1.611   0.514  10.172 -2.1626 -0.9640  0.5390
17125TIP3   OH272789   1.769   5.269   1.203 -0.5533 -0.0444 -0.4342
17125TIP3    H172790   1.847   5.249   1.255  0.0795  1.5779 -0.6894
17125TIP3    H272791   1.755   5.191   1.150  0.8936 -0.3919 -0.3579
17126TIP3   OH272792   2.211   2.323   5.704 -0.3486  0.2922  0.3225
17126TIP3    H172793   2.223   2.374   5.784 -2.3317 -0.1400  0.9583
17126TIP3    H272794   2.288   2.267   5.699  0.2864  1.0417  1.3746
17127TIP3   OH272795   2.422   3.174   3.931  0.1379 -0.5075 -0.2103
17127TIP3    H172796   2.331   3.149   3.943  0.2363 -0.6906  0.1966
17127TIP3    H272797   2.432   3.255   3.981 -0.1658  0.3334 -1.4832
17128TIP3   OH272798   6.682   2.428  12.294 -0.3306 -0.0113 -0.2640
17128TIP3    H172799   6.607   2.413  12.352  1.2202 -0.6225  1.7022
17128TIP3    H272800   6.758   2.426  12.353  1.2014  1.0564 -2.1105
17129TIP3   OH272801   1.700   3.191  12.798 -0.6439 -0.2503  0.3764
17129TIP3    H172802   1.727   3.108  12.759 -1.5485 -0.0104 -0.8028
17129TIP3    H272803   1.656   3.165  12.879  0.9711 -0.7716  1.1355
17130TIP3   OH272804   5.330   6.145   1.521  0.2519 -0.1703 -0.1660
17130TIP3    H172805   5.295   6.061   1.551  0.6581 -0.0341  0.7242
17130TIP3    H272806   5.295   6.155   1.432 -1.2918 -0.4128  0.3868
17131TIP3   OH272807   2.274   5.701  15.171  0.2489  0.5323  0.3724
17131TIP3    H172808   2.297   5.666  15.257  0.8991  1.0073  0.4013
17131TIP3    H272809   2.348   5.757  15.148 -0.3248  1.1106 -0.0965
17132TIP3   OH272810   0.078   0.001  12.663  0.2353 -0.1581  0.2155
17132TIP3    H172811   0.150   0.062  12.675  1.1410 -0.7566 -1.8229
17132TIP3    H272812   0.119  -0.082  12.639 -1.0628 -1.0606  0.9077
17133TIP3   OH272813   6.077   2.447  14.263  0.2802  0.1264  0.3893
17133TIP3    H172814   6.089   2.450  14.358 -1.6717 -3.0280  0.8990
17133TIP3    H272815   6.007   2.510  14.245 -0.7111 -0.6514  1.3882
17134TIP3   OH272816   2.751   2.460  11.491 -0.2989 -0.4776  0.3008
17134TIP3    H172817   2.728   2.367  11.486  0.8575 -0.7469 -0.3471
17134TIP3    H272818   2.808   2.467  11.567 -1.7608  0.0378  1.3954
17135TIP3   OH272819   3.445   6.001  12.196  0.1529  0.1589 -0.0808
17135TIP3    H172820   3.514   6.035  12.139 -0.2395 -0.8770 -1.2295
17135TIP3    H272821   3.369   6.055  12.176  0.4684  0.9682  0.8138
17136TIP3   OH272822   2.822   4.144  12.231 -0.4260 -0.3797 -0.2092
17136TIP3    H172823   2.727   4.136  12.222 -1.0025 -0.2170  3.7910
17136TIP3    H272824   2.843   4.228  12.190 -2.3088  0.3438  0.1961
17137TIP3   OH272825   0.387   1.169   4.321  0.1275 -0.4033  0.4126
17137TIP3    H172826   0.454   1.112   4.356 -0.6290 -2.3387 -1.1103
17137TIP3    H272827   0.304   1.125   4.340 -0.6594  1.2807  1.1072
17138TIP3   OH272828   0.149   1.569   0.789 -0.2953  0.1888 -0.2192
17138TIP3    H172829   0.088   1.578   0.861 -0.3034  0.4551 -0.2590
17138TIP3    H272830   0.094   1.564   0.711 -0.2827  0.0077 -0.2161
17139TIP3   OH272831   5.365   0.479   0.459 -0.6031 -0.6577 -0.3192
17139TIP3    H172832   5.275   0.451   0.440 -0.5974 -0.3465 -0.8443
17139TIP3    H272833   5.356   0.546   0.527 -0.8670  0.0955 -1.0737
17140TIP3   OH272834   5.319   6.119   0.711  0.1750 -0.4537  0.1269
17140TIP3    H172835   5.292   6.142   0.800  0.0592  1.1008 -0.2883
17140TIP3    H272836   5.237   6.100   0.665 -0.0179  1.2630 -0.3085
17141TIP3   OH272837   1.367   6.175   5.425  0.1461  0.6023 -0.1170
17141TIP3    H172838   1.352   6.174   5.331  1.7368  0.8720 -0.3892
17141TIP3    H272839   1.450   6.130   5.438 -0.0404  0.5644  1.1663
17142TIP3   OH272840   4.787   0.302   1.636 -0.1104 -0.2948 -0.4458
17142TIP3    H172841   4.701   0.335   1.609  0.4319  0.5251 -1.2277
17142TIP3    H272842   4.797   0.333   1.726 -0.3901  0.1010 -0.5466
17143TIP3   OH272843   4.537   4.568  11.131  0.0935  0.0330 -0.2802
17143TIP3    H172844   4.488   4.612  11.200 -0.1025  0.1346 -0.4831
17143TIP3    H272845   4.612   4.529  11.175  0.1066  0.3188 -0.0554
17144TIP3   OH272846   3.858   1.452  13.773  0.0940  0.7933 -0.7262
17144TIP3    H172847   3.776   1.443  13.724 -1.0230  1.0243  0.9956
17144TIP3    H272848   3.882   1.362  13.796  0.3367  0.7259 -1.2270
17145TIP3   OH272849   5.111   0.070   4.815  0.5226 -0.1814 -0.1774
17145TIP3    H172850   5.076   0.035   4.733  1.8154  1.3135 -1.4589
17145TIP3    H272851   5.101   0.165   4.806  2.4510  0.1299  0.5253
17146TIP3   OH272852   1.169   5.814  15.306 -0.1009 -0.3907 -0.0109
17146TIP3    H172853   1.237   5.880  15.294 -2.0177  1.5598 -0.8771
17146TIP3    H272854   1.143   5.790  15.217 -0.2140 -1.4805  0.3057
17147TIP3   OH272855   2.762   5.995  11.769 -0.3329 -0.3002  0.2007
17147TIP3    H172856   2.842   5.963  11.728  0.9299  2.3946  0.3709
17147TIP3    H272857   2.694   5.978  11.704  1.0768  0.9257 -1.7168
17148TIP3   OH272858   1.410   1.497  17.090 -0.0975  0.2592 -0.0965
17148TIP3    H172859   1.471   1.528  17.157 -0.5815  2.8395 -0.7344
17148TIP3    H272860   1.342   1.450  17.139  0.8017 -0.0131  0.9370
17149TIP3   OH272861   6.754   3.202   0.702 -0.6533  0.4451 -0.3598
17149TIP3    H172862   6.705   3.225   0.622 -0.7207  0.6354 -0.2664
17149TIP3    H272863   6.695   3.227   0.773  0.0563  1.8346 -0.2128
17150TIP3   OH272864   1.227   2.664   4.395 -0.0903 -0.0438  0.2084
17150TIP3    H172865   1.282   2.730   4.435 -0.7031  1.9175 -1.9612
17150TIP3    H272866   1.281   2.585   4.395  0.6576  0.3696  2.8763
17151TIP3   OH272867   0.867   4.736  11.248 -0.3787  0.5949 -0.0930
17151TIP3    H172868   0.939   4.786  11.209 -0.1501 -0.1711 -0.6729
17151TIP3    H272869   0.801   4.732  11.179 -0.0192 -0.6765 -0.3972
17152TIP3   OH272870   0.501   6.438   4.544  0.1467  0.1367 -0.4832
17152TIP3    H172871   0.408   6.457   4.559 -0.6148 -2.6979 -0.9966
17152TIP3    H272872   0.536   6.518   4.504 -1.9941  1.3515 -0.0774
17153TIP3   OH272873   5.919   2.657  11.469  0.0827  0.0838  0.0832
17153TIP3    H172874   5.922   2.563  11.454  1.3403  0.4039 -1.9972
17153TIP3    H272875   5.921   2.696  11.382 -0.0385  2.0662  0.9015
17154TIP3   OH272876   6.587   2.509   6.176 -0.0781  0.0983 -0.5403
17154TIP3    H172877   6.575   2.417   6.152  1.9808 -0.2523 -0.4244
17154TIP3    H272878   6.597   2.507   6.272  2.8552 -0.0115 -0.7570
17155TIP3   OH272879   5.316   6.542   5.752  0.0208 -0.1462 -0.2204
17155TIP3    H172880   5.355   6.518   5.836  0.4269  0.9772 -0.0683
17155TIP3    H272881   5.234   6.492   5.748  0.2471 -0.5954  0.6077
17156TIP3   OH272882   3.405   2.002   3.167 -0.0164 -0.2638  0.1785
17156TIP3    H172883   3.435   2.070   3.227 -2.0677  0.9099 -0.0273
17156TIP3    H272884   3.313   2.023   3.151 -0.1021 -1.7821 -1.7014
17157TIP3   OH272885   2.409   0.940  16.607  0.6295  0.2009  0.5752
17157TIP3    H172886   2.378   0.900  16.525  3.0997  0.5522 -0.6113
17157TIP3    H272887   2.332   0.986  16.642 -0.7011 -0.6476 -1.1136
17158TIP3   OH272888   6.532   2.553   2.900 -0.1151  0.3091  0.4407
17158TIP3    H172889   6.453   2.607   2.901 -0.0576  0.5303 -1.6837
17158TIP3    H272890   6.500   2.463   2.903 -0.8302  0.2184 -3.7063
17159TIP3   OH272891   3.275   6.755  14.278  0.6261 -0.2112  0.4427
17159TIP3    H172892   3.185   6.777  14.255  1.5112  1.3406 -1.9143
17159TIP3    H272893   3.266   6.680  14.338 -2.1879 -0.4351 -0.0873
17160TIP3   OH272894   3.843   5.573   0.020 -0.4512 -0.1382 -0.2462
17160TIP3    H172895   3.917   5.563  -0.039  0.2351 -2.2729  0.8361
17160TIP3    H272896   3.860   5.655   0.067  1.8397 -1.0813  0.7111
17161TIP3   OH272897   4.845   5.656  16.787 -0.0709 -0.4982 -0.9096
17161TIP3    H172898   4.885   5.736  16.753  1.5516 -0.5845  0.6311
17161TIP3    H272899   4.807   5.683  16.871 -2.1347 -0.7387 -1.7132
17162TIP3   OH272900   1.007   5.248   3.976  0.7697 -0.3895  0.0569
17162TIP3    H172901   0.931   5.282   4.023 -0.3896  0.3021 -2.2119
17162TIP3    H272902   0.992   5.153   3.972  0.5212 -0.3698  0.4506
17163TIP3   OH272903   4.998   0.890  11.772 -0.3317 -0.2335 -0.3467
17163TIP3    H172904   5.008   0.815  11.714 -0.2099  0.0526 -0.6968
17163TIP3    H272905   4.907   0.918  11.761 -0.0635  0.3815 -1.0935
17164TIP3   OH272906   0.219   4.407  12.898 -0.5763 -0.4206 -0.2103
17164TIP3    H172907   0.296   4.359  12.927 -0.1326 -0.0468 -0.7476
17164TIP3    H272908   0.147   4.370  12.949 -0.1692 -1.3234 -0.2686
17165TIP3   OH272909   3.365   6.683  12.219 -0.0901 -0.2324  0.7932
17165TIP3    H172910   3.393   6.751  12.280 -1.1378  2.4709 -1.5277
17165TIP3    H272911   3.426   6.610  12.234  1.2317  1.2563  3.2575
17166TIP3   OH272912   1.879   5.429   3.739 -0.4932  0.2856  0.7648
17166TIP3    H172913   1.938   5.370   3.785  0.5030  2.5541  2.5583
17166TIP3    H272914   1.926   5.451   3.659 -0.6313 -0.8344  0.3473
17167TIP3   OH272915   3.783   3.489  11.706 -0.2970  0.3117 -0.0048
17167TIP3    H172916   3.743   3.562  11.659  0.3611  0.3252 -0.5785
17167TIP3    H272917   3.772   3.414  11.647  1.7217  0.6071 -0.8534
17168TIP3   OH272918   5.969   3.418   4.220  0.3835  0.1171 -0.2825
17168TIP3    H172919   6.003   3.454   4.302 -0.7710 -0.2887  0.3991
17168TIP3    H272920   5.971   3.324   4.233  0.6899  0.0239 -0.9478
17169TIP3   OH272921   5.472   2.590  13.931  0.2169 -0.2195 -0.1778
17169TIP3    H172922   5.421   2.509  13.930 -0.9127  0.4579 -0.2359
17169TIP3    H272923   5.461   2.626  13.843  0.9286 -0.1332 -0.2341
17170TIP3   OH272924   1.761   4.758   5.825 -0.6062 -0.4686 -0.7408
17170TIP3    H172925   1.753   4.776   5.919 -0.7636 -2.3530 -0.3582
17170TIP3    H272926   1.845   4.797   5.801 -0.8307  0.5426  0.0437
17171TIP3   OH272927   1.873   3.276  16.697 -0.6069  0.8228  0.1022
17171TIP3    H172928   1.799   3.299  16.641 -0.7602 -0.3389 -0.2129
17171TIP3    H272929   1.887   3.183  16.680  0.8710  0.9986  0.2214
17172TIP3   OH272930   1.443   2.302   4.747  0.1922  0.1378  0.6316
17172TIP3    H172931   1.413   2.266   4.831 -1.0368  0.9767  0.5610
17172TIP3    H272932   1.364   2.333   4.704  0.7598 -0.6523 -1.0400
17173TIP3   OH272933   1.166   3.446  14.430  0.4764 -0.2065  0.0608
17173TIP3    H172934   1.184   3.358  14.398  2.5264  0.4554 -0.7815
17173TIP3    H272935   1.234   3.462  14.495  0.1087  0.7533  0.2201
17174TIP3   OH272936   4.804   2.330   5.406  0.3857  0.2673  0.4935
17174TIP3    H172937   4.720   2.371   5.427 -2.1308 -3.0145 -1.9357
17174TIP3    H272938   4.805   2.250   5.459  2.1779  0.3719  0.6909
17175TIP3   OH272939   4.273   1.108   1.325 -0.4560 -0.3377 -0.1330
17175TIP3    H172940   4.311   1.026   1.294 -0.6916 -0.4595 -0.1065
17175TIP3    H272941   4.201   1.125   1.265 -0.4135 -0.1546 -0.1316
17176TIP3   OH272942   1.957   0.365  16.967  0.1270  0.2949  0.1549
17176TIP3    H172943   1.899   0.310  16.915 -2.3137  2.1376  0.7112
17176TIP3    H272944   2.018   0.304  17.008 -1.4021 -1.7845 -0.5007
17177TIP3   OH272945   2.931   5.434   3.372  0.9476 -0.7658  0.1676
17177TIP3    H172946   2.858   5.379   3.343  0.7854 -0.6018  0.2656
17177TIP3    H272947   2.936   5.418   3.467  1.3475 -1.1463  0.0883
17178TIP3   OH272948   0.085   2.747   6.039 -0.0931  0.5230 -0.2680
17178TIP3    H172949  -0.004   2.740   6.005  0.1203  0.2074 -0.7735
17178TIP3    H272950   0.074   2.769   6.132 -0.6959  0.3826 -0.3043
17179TIP3   OH272951   5.348   2.619  16.503 -0.3704 -0.0367 -0.9798
17179TIP3    H172952   5.436   2.639  16.536 -0.4997 -1.4912  0.4018
17179TIP3    H272953   5.363   2.558  16.431 -0.2548 -0.6320 -0.4567
17180TIP3   OH272954   5.855   0.579  15.985 -0.4003 -0.4728  0.1266
17180TIP3    H172955   5.904   0.661  15.990 -1.1010  0.2108 -2.5397
17180TIP3    H272956   5.766   0.602  16.011 -0.0607 -1.0021  1.8545
17181TIP3   OH272957   1.640   3.402  16.964  0.1822 -0.4725 -0.6148
17181TIP3    H172958   1.606   3.351  16.891 -0.0836  0.4352 -1.1358
17181TIP3    H272959   1.575   3.470  16.979  1.5210  1.0227 -1.3298
17182TIP3   OH272960   1.774   5.156   3.222  0.1426  0.5677 -0.5180
17182TIP3    H172961   1.705   5.197   3.275  0.4032 -1.4720  1.5828
17182TIP3    H272962   1.739   5.070   3.200  1.0919  0.4181 -1.5105
17183TIP3   OH272963   2.100   2.041  12.159  0.2124  0.5101 -0.7323
17183TIP3    H172964   2.009   2.038  12.128  0.2125 -0.9564 -0.6821
17183TIP3    H272965   2.096   2.088  12.242 -0.2736  1.7092 -1.4188
17184TIP3   OH272966   4.804   3.528  10.664  0.1681 -0.3375  0.6779
17184TIP3    H172967   4.831   3.438  10.644 -1.1869 -0.2739 -1.8595
17184TIP3    H272968   4.814   3.575  10.581  0.5286  1.8175  1.8708
17185TIP3   OH272969   5.280   5.370   2.204  0.3149  0.5617  0.4656
17185TIP3    H172970   5.217   5.419   2.151 -0.5490 -1.6125 -0.6433
17185TIP3    H272971   5.227   5.325   2.269  0.9304  0.1531  0.6926
17186TIP3   OH272972   0.494   6.410   1.515  0.6775 -0.2462  0.0498
17186TIP3    H172973   0.541   6.490   1.490  0.2055  0.2984  0.8695
17186TIP3    H272974   0.408   6.419   1.474  0.2011  0.2455  1.1339
17187TIP3   OH272975   1.130   3.200  15.976  0.5898  0.3119 -0.1079
17187TIP3    H172976   1.214   3.189  16.020  0.5481 -0.9915 -0.3015
17187TIP3    H272977   1.117   3.117  15.930 -1.0216  0.3131  0.3036
17188TIP3   OH272978   6.726   0.456   5.327 -0.2920 -0.5820  0.0448
17188TIP3    H172979   6.647   0.454   5.381 -0.1549 -0.9334  0.2394
17188TIP3    H272980   6.798   0.466   5.390 -0.2814  1.5539 -0.2465
17189TIP3   OH272981   2.845   1.711   1.486  0.1974  0.1382 -0.0602
17189TIP3    H172982   2.780   1.654   1.527  1.6529 -0.8256  0.9871
17189TIP3    H272983   2.904   1.735   1.558  1.4313  0.3819 -1.1366
17190TIP3   OH272984   3.891   5.020   2.749 -0.1821 -0.6655 -0.0868
17190TIP3    H172985   3.809   5.042   2.794 -0.3164 -1.0413 -0.1402
17190TIP3    H272986   3.960   5.043   2.811 -0.3683 -1.2785  0.3588
17191TIP3   OH272987   3.783   3.719  14.407  0.1625 -0.1322  0.3221
17191TIP3    H172988   3.849   3.735  14.474 -1.1433  1.2849  1.3355
17191TIP3    H272989   3.785   3.798  14.352  0.4085 -0.7774 -0.6307
17192TIP3   OH272990   5.534   6.764  14.280  0.1327  0.4164 -0.3907
17192TIP3    H172991   5.533   6.849  14.323  1.9704 -0.1855  0.9976
17192TIP3    H272992   5.571   6.781  14.193 -1.1201  1.2570 -0.7843
17193TIP3   OH272993   1.989   5.927   4.571 -0.8617  0.0659 -0.6052
17193TIP3    H172994   2.004   5.858   4.507 -2.0410  0.0586 -0.8935
17193TIP3    H272995   1.950   5.883   4.646  1.2186 -0.0555  0.4790
17194TIP3   OH272996   3.695   1.545  11.238  0.2782 -0.1664 -0.0383
17194TIP3    H172997   3.679   1.479  11.170  1.8009 -0.8432  0.2068
17194TIP3    H272998   3.788   1.567  11.228 -0.4212  2.9326 -0.9496
17195TIP3   OH272999   2.896   3.686   2.387 -0.5020 -0.6875 -0.2631
17195TIP3    H173000   2.828   3.621   2.371 -0.5253 -1.0320  1.1468
17195TIP3    H273001   2.975   3.647   2.350 -1.2372  0.3105 -3.1960
17196TIP3   OH273002   3.340   4.937   0.454 -0.3112 -0.0785  0.7776
17196TIP3    H173003   3.368   4.915   0.542  0.9743  1.2732  0.7334
17196TIP3    H273004   3.321   5.030   0.456 -1.3955 -0.2495 -0.1036
17197TIP3   OH273005   0.929   6.208   4.873 -0.2891  0.1605  0.7333
17197TIP3    H173006   1.013   6.232   4.913  0.3577 -0.9275  0.0879
17197TIP3    H273007   0.899   6.132   4.923  0.6835 -1.4153 -0.9551
17198TIP3   OH273008   1.601   0.233   1.956  0.1449 -0.3112  0.0579
17198TIP3    H173009   1.560   0.310   1.994 -1.0935 -0.3510 -1.0746
17198TIP3    H273010   1.669   0.267   1.898 -0.3003 -0.0592 -0.3257
17199TIP3   OH273011   2.772   2.258  17.083 -0.1916  0.3233 -0.5512
17199TIP3    H173012   2.772   2.170  17.121  1.1196  0.2612 -0.6479
17199TIP3    H273013   2.792   2.244  16.990  0.6474  0.7690 -0.4382
17200TIP3   OH273014   5.365   6.320   1.274 -0.2063 -0.0838 -0.5183
17200TIP3    H173015   5.292   6.323   1.213 -1.7807 -0.3022  1.2535
17200TIP3    H273016   5.341   6.383   1.343  1.8653  0.7381 -0.4786
17201TIP3   OH273017   0.929   1.690   0.236  0.0815  0.3661 -1.0431
17201TIP3    H173018   0.905   1.615   0.182  2.1939 -0.7079 -0.6027
17201TIP3    H273019   0.896   1.668   0.324  0.4265  0.0756 -0.9824
17202TIP3   OH273020   2.373   4.836   0.821 -0.2113 -0.4501 -0.4926
17202TIP3    H173021   2.468   4.836   0.832 -0.2245 -2.7195  0.2998
17202TIP3    H273022   2.353   4.748   0.787 -2.2270 -1.1640  2.1265
17203TIP3   OH273023   0.549   0.921   6.067 -0.0236  0.2227 -0.4492
17203TIP3    H173024   0.520   0.967   5.988  1.0740  0.6453 -0.6218
17203TIP3    H273025   0.545   0.828   6.043  1.0795  0.3736 -1.2945
17204TIP3   OH273026   1.661   3.675   0.432  0.7341  0.0479  0.0388
17204TIP3    H173027   1.649   3.648   0.341 -3.6366 -0.6996  0.6404
17204TIP3    H273028   1.635   3.599   0.484 -1.9013  1.9473  1.8052
17205TIP3   OH273029   6.369   3.019   0.777 -0.1979  0.4631  0.5766
17205TIP3    H173030   6.285   2.991   0.742 -0.4142  2.7042 -0.9671
17205TIP3    H273031   6.413   2.938   0.804 -2.8861 -0.7439  1.6441
17206TIP3   OH273032   3.730   3.399   1.888 -0.0556  0.0696  0.4284
17206TIP3    H173033   3.671   3.456   1.938 -0.2537  1.9052 -1.7564
17206TIP3    H273034   3.817   3.430   1.909 -0.0954  0.2938  0.2615
17207TIP3   OH273035   1.842   4.401  13.212 -0.3569  0.1432  0.1956
17207TIP3    H173036   1.780   4.349  13.262 -0.3551 -1.2998 -1.2347
17207TIP3    H273037   1.806   4.490  13.213  0.5890  0.6553  4.2465
17208TIP3   OH273038   1.252   6.526  11.023 -0.4297  0.1157 -0.8765
17208TIP3    H173039   1.292   6.516  11.109  0.6243  0.9289 -1.2413
17208TIP3    H273040   1.218   6.440  11.002  0.2259 -0.3534 -0.0815
17209TIP3   OH273041   6.069   3.169  10.437 -0.4753  0.5466  0.0559
17209TIP3    H173042   6.100   3.259  10.436  1.4200  0.0240 -3.5196
17209TIP3    H273043   6.146   3.117  10.460 -1.2811 -0.2772  1.0204
17210TIP3   OH273044   3.667   2.812  12.815  0.4134 -0.2861 -0.3839
17210TIP3    H173045   3.689   2.900  12.783 -0.0308  0.2898  0.8418
17210TIP3    H273046   3.751   2.767  12.820  0.6957  0.1990 -0.6369
17211TIP3   OH273047   3.476   6.647  16.081  0.1064  0.0736  0.1548
17211TIP3    H173048   3.480   6.610  16.169  3.1167 -0.7651 -0.2124
17211TIP3    H273049   3.500   6.739  16.094 -0.3755  0.1869  0.2810
17212TIP3   OH273050   3.195   2.475   0.763 -0.0406 -0.4338 -0.0741
17212TIP3    H173051   3.197   2.424   0.844  0.4105 -0.0850  0.1385
17212TIP3    H273052   3.166   2.413   0.696 -1.4991 -0.4501  0.5423
17213TIP3   OH273053   5.035   0.070   2.606  0.2291  0.2737 -0.2649
17213TIP3    H173054   5.051   0.066   2.511  0.1620  0.6541 -0.2957
17213TIP3    H273055   5.085   0.146   2.635  1.8468 -0.9912  0.3471
17214TIP3   OH273056   3.534   0.866  12.501 -0.2377 -0.6333 -0.1654
17214TIP3    H173057   3.449   0.908  12.510  0.2676  0.0298  2.0802
17214TIP3    H273058   3.559   0.882  12.411 -1.0212  2.0578  0.0187
17215TIP3   OH273059   0.731   2.809   5.145 -0.1569  0.0030 -0.2217
17215TIP3    H173060   0.824   2.792   5.130 -0.3840 -0.9128 -0.6875
17215TIP3    H273061   0.688   2.725   5.124 -1.0731  0.3928  0.0619
17216TIP3   OH273062   0.365   1.827  12.345  0.2344 -0.4480 -0.2475
17216TIP3    H173063   0.309   1.904  12.354  0.1704 -0.3912 -1.0888
17216TIP3    H273064   0.435   1.855  12.286  0.2991 -0.9929 -0.4268
17217TIP3   OH273065   4.452   0.581  15.963 -0.1923  0.3342 -0.0479
17217TIP3    H173066   4.430   0.656  16.019 -0.0767 -0.6991  1.4209
17217TIP3    H273067   4.373   0.528  15.963 -0.0359  0.0952 -0.5260
17218TIP3   OH273068   1.611   4.191  11.470 -0.1247 -0.1712 -0.0472
17218TIP3    H173069   1.676   4.245  11.425 -1.5182  2.9326  1.3372
17218TIP3    H273070   1.533   4.196  11.415 -0.1239 -1.3816 -0.1969
17219TIP3   OH273071   1.581   2.320   0.806  0.1391 -0.0382 -0.1481
17219TIP3    H173072   1.526   2.390   0.840 -1.2300 -0.3948 -1.5506
17219TIP3    H273073   1.623   2.283   0.884  1.3984  2.6725  0.6034
17220TIP3   OH273074   2.650   2.944  14.797  0.7000  0.0515  0.1687
17220TIP3    H173075   2.604   2.976  14.718 -0.2120 -0.9006  0.2935
17220TIP3    H273076   2.635   3.012  14.862  1.1176  0.6580 -0.3541
17221TIP3   OH273077   4.879   6.391  13.789 -0.1600 -0.1168 -0.3803
17221TIP3    H173078   4.862   6.479  13.755 -1.2650  0.1040  0.6903
17221TIP3    H273079   4.797   6.344  13.777 -0.0168 -0.5695  0.3529
17222TIP3   OH273080   1.248   2.421   5.223  0.1311 -0.1750 -0.3285
17222TIP3    H173081   1.174   2.473   5.255  0.8241  0.3175  0.5228
17222TIP3    H273082   1.249   2.344   5.281  0.9996  0.4085  0.4711
17223TIP3   OH273083   1.646   2.869   2.817  0.1091  0.2961 -0.3544
17223TIP3    H173084   1.721   2.929   2.821  0.4203  0.0263 -1.7309
17223TIP3    H273085   1.685   2.782   2.819 -0.3860  0.0613  2.5344
17224TIP3   OH273086   4.494   3.856  12.416  0.7632 -0.0569  0.3287
17224TIP3    H173087   4.423   3.792  12.418  0.8971 -0.3173 -1.2573
17224TIP3    H273088   4.565   3.811  12.370  0.7844  1.2802 -1.0294
17225TIP3   OH273089   4.644   1.423  14.720  0.4062  0.0050 -0.2421
17225TIP3    H173090   4.644   1.386  14.631 -0.6330 -1.3507  0.2948
17225TIP3    H273091   4.695   1.360  14.771  0.3612  0.3953  0.2814
17226TIP3   OH273092   5.124   2.433   4.083 -0.0257  0.3175 -0.4568
17226TIP3    H173093   5.066   2.363   4.053  0.6326 -0.7671  0.6928
17226TIP3    H273094   5.116   2.432   4.178  1.6955  0.2576 -0.2766
17227TIP3   OH273095   1.470   2.836  12.625 -0.2379  0.1363  0.1684
17227TIP3    H173096   1.447   2.881  12.543  2.4030  1.9462  0.2926
17227TIP3    H273097   1.470   2.743  12.602 -0.1726  0.5641 -1.7280
17228TIP3   OH273098   3.590   0.799   4.668 -0.4143 -0.5119  0.2159
17228TIP3    H173099   3.593   0.893   4.684  0.6504 -0.5891  0.5623
17228TIP3    H273100   3.552   0.791   4.580 -0.3942  0.2400  0.1277
17229TIP3   OH273101   0.345   2.691   3.308 -0.0059 -0.2693  0.5595
17229TIP3    H173102   0.378   2.780   3.317  0.6645 -0.7303  4.5137
17229TIP3    H273103   0.251   2.701   3.294  0.4653  0.9568 -2.6285
17230TIP3   OH273104   2.284   6.760  10.873  0.6736 -0.1949 -0.4844
17230TIP3    H173105   2.372   6.764  10.836  1.2767  0.0260  0.9116
17230TIP3    H273106   2.281   6.675  10.918  0.0005 -0.4079 -0.9103
17231TIP3   OH273107   5.768   2.287   3.128 -0.3299 -0.0964  0.0278
17231TIP3    H173108   5.694   2.340   3.099 -0.4671 -0.6820 -0.7115
17231TIP3    H273109   5.840   2.351   3.138 -1.0044  0.5230  1.0983
17232TIP3   OH273110   4.129   1.264  16.125  0.3741  0.0669  0.3490
17232TIP3    H173111   4.224   1.258  16.116  0.5181  0.9248  1.0894
17232TIP3    H273112   4.115   1.285  16.218 -0.4920  0.7339  0.0824
17233TIP3   OH273113   0.063   5.910  12.748 -0.9014  0.1433  0.0092
17233TIP3    H173114   0.156   5.933  12.754 -0.6467 -0.5143 -1.1411
17233TIP3    H273115   0.032   5.954  12.669 -0.9632 -1.4944 -0.9353
17234TIP3   OH273116   6.509   3.386  11.782  0.4531  0.2596  0.1825
17234TIP3    H173117   6.547   3.342  11.859 -2.5652 -2.3223  0.4142
17234TIP3    H273118   6.549   3.342  11.707 -0.2656 -0.7960  0.3923
17235TIP3   OH273119   3.978   5.689   4.558  0.5118  0.5358 -0.2061
17235TIP3    H173120   3.929   5.627   4.613 -0.7911 -0.3541 -2.2531
17235TIP3    H273121   3.950   5.775   4.587 -1.4880  0.0526 -0.5807
17236TIP3   OH273122   5.886   6.046  13.453  0.2374  1.0653 -0.1389
17236TIP3    H173123   5.891   6.044  13.548  0.3288  0.8531 -0.1470
17236TIP3    H273124   5.929   5.965  13.425 -1.4460  0.1785 -0.2821
17237TIP3   OH273125   1.224   6.630   2.207  0.1232  0.0073  0.1584
17237TIP3    H173126   1.318   6.619   2.195  0.4380  0.9109  1.5619
17237TIP3    H273127   1.199   6.562   2.269  0.6302  2.1049  2.8209
17238TIP3   OH273128   3.448   4.543  12.540 -0.0349  0.1992  0.5777
17238TIP3    H173129   3.539   4.538  12.570  0.2785 -0.4069 -0.4265
17238TIP3    H273130   3.434   4.635  12.521 -0.1345  0.5479  2.1981
17239TIP3   OH273131   4.046   5.114  15.096  0.1040  0.8381 -0.1692
17239TIP3    H173132   4.128   5.131  15.050 -0.4877  0.5903 -1.3665
17239TIP3    H273133   4.010   5.201  15.112 -0.5551  0.9180 -1.8648
17240TIP3   OH273134   3.818   0.805  16.193 -0.4860  0.3103  0.4561
17240TIP3    H173135   3.897   0.857  16.209  0.5213 -0.8025 -0.7346
17240TIP3    H273136   3.766   0.859  16.133 -0.4366  0.8467  0.8828
17241TIP3   OH273137   5.523   3.755  15.600  0.2133  0.8082  0.3237
17241TIP3    H173138   5.552   3.823  15.661  1.3288 -0.0166  0.7282
17241TIP3    H273139   5.591   3.752  15.533  0.4144 -0.2249  0.5574
17242TIP3   OH273140   1.740   2.034   5.787 -0.0246  0.2274  0.3181
17242TIP3    H173141   1.775   2.123   5.789  1.5951 -0.3519 -0.6870
17242TIP3    H273142   1.795   1.984   5.847 -0.0744 -0.3806 -0.1323
17243TIP3   OH273143   0.113   5.360  16.246  0.1422 -0.0234 -0.0652
17243TIP3    H173144   0.130   5.279  16.294 -0.1010 -0.0282  0.0115
17243TIP3    H273145   0.173   5.424  16.285 -1.9168  0.6929  2.1117
17244TIP3   OH273146   6.175   1.917   5.003 -0.5055 -0.0406 -0.2245
17244TIP3    H173147   6.198   1.879   5.088 -1.7310 -1.3183 -0.4385
17244TIP3    H273148   6.143   2.005   5.024  0.6492  0.2474  0.4574
17245TIP3   OH273149   6.605   4.363  10.659  0.6558  0.0999  0.6219
17245TIP3    H173150   6.684   4.401  10.697  1.5068 -1.4111  0.4526
17245TIP3    H273151   6.636   4.288  10.609 -0.7787  0.1844 -0.4543
17246TIP3   OH273152   6.520   4.642  12.034  0.8736 -0.0221 -0.6313
17246TIP3    H173153   6.547   4.564  12.083 -2.1000 -1.5156 -1.1191
17246TIP3    H273154   6.518   4.712  12.100 -0.9707 -1.4997  1.0305
17247TIP3   OH273155   1.116   5.395   3.129 -0.6147 -0.1735 -0.6049
17247TIP3    H173156   1.133   5.431   3.042 -0.7918  0.7703 -0.2547
17247TIP3    H273157   1.118   5.470   3.188 -3.0887 -0.3953 -0.1404
17248TIP3   OH273158   5.001   3.872  15.680 -0.4440 -0.3810  0.2208
17248TIP3    H173159   5.058   3.861  15.603 -0.9800 -0.5491 -0.1529
17248TIP3    H273160   5.061   3.863  15.755  0.1451  0.1469 -0.1752
17249TIP3   OH273161   0.255   2.272   3.878  0.3636 -0.4973 -0.7586
17249TIP3    H173162   0.191   2.219   3.927 -0.1651 -0.5880 -1.5221
17249TIP3    H273163   0.302   2.321   3.945 -0.8665 -0.0347 -0.2095
17250TIP3   OH273164   5.518   1.332  13.009 -0.5477 -0.1138  0.4253
17250TIP3    H173165   5.457   1.291  12.948  0.5807 -1.4861  0.1484
17250TIP3    H273166   5.512   1.279  13.088  0.9285 -0.8657  0.0709
17251TIP3   OH273167   6.455   4.036   0.472 -0.6655  0.0081 -0.2079
17251TIP3    H173168   6.508   4.047   0.550  1.6429 -1.9983 -1.3762
17251TIP3    H273169   6.397   4.112   0.472  0.0322  0.6720  2.7908
17252TIP3   OH273170   4.686   3.163   1.705  0.5971  0.1137 -0.0079
17252TIP3    H173171   4.763   3.220   1.708 -0.5706  1.7218  0.4626
17252TIP3    H273172   4.659   3.154   1.796  0.7376 -1.1939 -0.0780
17253TIP3   OH273173   5.811   6.447  12.987  0.0055 -0.1266 -0.2020
17253TIP3    H173174   5.832   6.363  13.028 -0.9176 -0.9148 -1.2837
17253TIP3    H273175   5.716   6.453  12.993  0.0217  0.6033 -0.6113
17254TIP3   OH273176   4.471   4.543  12.745  0.4186  0.0836 -0.6120
17254TIP3    H173177   4.553   4.593  12.740  1.3755 -1.4605 -0.9779
17254TIP3    H273178   4.414   4.597  12.799  1.5945  1.3178 -0.5395
17255TIP3   OH273179   2.707   4.033  11.682  0.5265 -0.2716 -0.2138
17255TIP3    H173180   2.800   4.050  11.668  0.4863 -1.2273 -1.9336
17255TIP3    H273181   2.703   3.991  11.768  1.7446 -0.6395 -0.3200
17256TIP3   OH273182   5.430   5.094   2.375 -0.0685  0.2142  0.1934
17256TIP3    H173183   5.373   5.019   2.359 -1.4750  1.1551  0.5391
17256TIP3    H273184   5.369   5.167   2.390  1.2037  0.9697  2.1072
17257TIP3   OH273185   2.275   3.678   3.988 -0.0712  0.1207 -0.7872
17257TIP3    H173186   2.350   3.685   4.047 -0.4235  0.3043 -0.3513
17257TIP3    H273187   2.307   3.712   3.904  1.2001 -2.4927 -1.4625
17258TIP3   OH273188   6.570   3.338  15.854  0.1156  0.3599  0.4587
17258TIP3    H173189   6.549   3.422  15.895 -0.9748  0.2793  0.1013
17258TIP3    H273190   6.489   3.311  15.811  0.8169 -0.2584 -0.5322
17259TIP3   OH273191   1.394   0.383   4.251 -0.8445 -0.0750  0.1641
17259TIP3    H173192   1.390   0.300   4.203  1.2026 -0.8530  1.2099
17259TIP3    H273193   1.405   0.449   4.183 -0.0652 -0.9366 -0.5895
17260TIP3   OH273194   4.788   4.250   5.441 -0.8208 -0.7098 -0.5872
17260TIP3    H173195   4.720   4.221   5.502 -0.5115 -1.7178 -0.6969
17260TIP3    H273196   4.742   4.265   5.358 -1.2833  0.8976 -0.0738
17261TIP3   OH273197   5.583   0.314  11.201 -0.3504 -0.3193 -0.0827
17261TIP3    H173198   5.633   0.315  11.119  0.0515 -1.3401  0.1326
17261TIP3    H273199   5.535   0.231  11.199 -0.8017 -0.0741  0.4412
17262TIP3   OH273200   2.227   1.775  16.239  0.3646 -0.1039 -0.4568
17262TIP3    H173201   2.236   1.853  16.294 -3.3952  0.5579 -0.5280
17262TIP3    H273202   2.312   1.767  16.195  1.8221  2.2547  1.6597
17263TIP3   OH273203   0.453   5.834  15.681 -0.5180 -0.0784  0.0172
17263TIP3    H173204   0.542   5.805  15.701 -0.1322  1.1508  0.1944
17263TIP3    H273205   0.398   5.786  15.742  0.1633  0.0505  0.7566
17264TIP3   OH273206   6.476   1.867   2.122 -0.2663  0.4697  0.4501
17264TIP3    H173207   6.506   1.800   2.184  0.9353 -0.3958 -0.9830
17264TIP3    H273208   6.552   1.883   2.066 -1.1124  1.7022 -0.3915
17265TIP3   OH273209   6.033   5.155   1.185  0.2729 -0.7864 -0.4126
17265TIP3    H173210   6.123   5.186   1.192  0.1837 -0.8655  1.5923
17265TIP3    H273211   6.033   5.069   1.226 -0.9139 -0.3039  0.6866
17266TIP3   OH273212   2.169   0.100   0.567 -0.0219  0.9912 -0.2911
17266TIP3    H173213   2.147   0.183   0.524 -1.6259  0.7629  0.0001
17266TIP3    H273214   2.151   0.116   0.660 -1.7999 -0.0808 -0.4001
17267TIP3   OH273215   2.439   6.738  11.287  0.0716  0.6629  0.0588
17267TIP3    H173216   2.349   6.715  11.267 -0.5844  1.6447  1.6943
17267TIP3    H273217   2.490   6.699  11.216 -1.7250  1.0658 -1.5293
17268TIP3   OH273218   0.374   0.603  15.226 -0.9499  0.4808 -0.0464
17268TIP3    H173219   0.430   0.568  15.294 -0.4972 -0.8469 -1.0690
17268TIP3    H273220   0.348   0.689  15.259  0.2442  0.3889  1.2290
17269TIP3   OH273221   6.452   2.935   2.792 -0.3695 -0.1167 -0.7579
17269TIP3    H173222   6.367   2.978   2.788 -0.3663 -0.2038 -2.6425
17269TIP3    H273223   6.500   2.983   2.859 -2.0070 -0.2994  0.6025
17270TIP3   OH273224   2.562   0.408  11.193 -0.2952  0.1079  0.5540
17270TIP3    H173225   2.514   0.458  11.259  1.2848  1.2779  0.8758
17270TIP3    H273226   2.654   0.424  11.213  0.2491 -1.6036 -0.3872
17271TIP3   OH273227   4.003   0.668   1.476  0.4375 -0.1990  0.1420
17271TIP3    H173228   3.952   0.660   1.556 -0.0854 -1.0799 -0.2616
17271TIP3    H273229   3.944   0.640   1.406  2.0260 -3.2056 -0.1456
17272TIP3   OH273230   6.804   4.180  12.574 -0.0371 -0.2556  0.0389
17272TIP3    H173231   6.856   4.261  12.582 -1.4931  0.7816 -0.5930
17272TIP3    H273232   6.749   4.180  12.652 -0.1478 -0.5765 -0.0391
17273TIP3   OH273233   5.527   2.015  16.848 -0.2957  0.0892 -0.2603
17273TIP3    H173234   5.619   2.026  16.874 -0.4694  1.7310 -0.2321
17273TIP3    H273235   5.511   2.086  16.786 -1.7342  0.2687  0.2820
17274TIP3   OH273236   4.910   4.330  12.448  0.0921 -0.1168 -0.4067
17274TIP3    H173237   4.895   4.421  12.474  0.0581 -0.4090  0.6290
17274TIP3    H273238   4.868   4.322  12.362 -0.7500  0.5852 -0.0710
17275TIP3   OH273239   4.452   0.271  16.951 -0.4288 -0.3064 -0.7187
17275TIP3    H173240   4.405   0.347  16.916 -3.1710 -1.2490  0.6217
17275TIP3    H273241   4.425   0.199  16.894 -0.1992 -0.7839 -0.2313
17276TIP3   OH273242   6.175   5.394  16.537  0.0562 -0.2930  0.6161
17276TIP3    H173243   6.152   5.486  16.542 -0.6209 -0.4608  0.6698
17276TIP3    H273244   6.092   5.347  16.548  0.2397 -0.8934 -0.3627
17277TIP3   OH273245   0.189   2.718   2.660 -0.4223 -0.3838 -0.5162
17277TIP3    H173246   0.217   2.662   2.732  0.8935  0.4595 -0.3303
17277TIP3    H273247   0.133   2.662   2.606 -0.8495 -1.2438  0.7529
17278TIP3   OH273248   3.249   5.797  13.695  0.1342 -0.4962  0.0747
17278TIP3    H173249   3.268   5.879  13.651  0.3080  0.8593  2.5026
17278TIP3    H273250   3.157   5.779  13.677 -0.4439  1.2921  1.0727
17279TIP3   OH273251   4.553   2.223  13.518 -0.4703 -0.9143  0.9096
17279TIP3    H173252   4.469   2.184  13.493 -0.0892 -1.9573  1.2178
17279TIP3    H273253   4.553   2.309  13.475 -1.1828 -1.3920 -0.0839
17280TIP3   OH273254   1.562   5.481   1.195  0.0074 -0.7245 -0.7364
17280TIP3    H173255   1.636   5.443   1.243  1.4182  0.6769 -1.6964
17280TIP3    H273256   1.591   5.483   1.103 -0.9390  0.4872 -1.0447
17281TIP3   OH273257   5.889   2.120   3.978  0.1458  0.6900 -0.1853
17281TIP3    H173258   5.879   2.145   4.069 -2.5454  0.4097 -0.3333
17281TIP3    H273259   5.983   2.104   3.967  0.7806  2.4917  2.0266
17282TIP3   OH273260   3.736   3.618  15.907  0.3385 -0.4844  0.5095
17282TIP3    H173261   3.827   3.610  15.876  0.3429  0.8282  0.1236
17282TIP3    H273262   3.689   3.655  15.832 -0.7251 -1.9870  0.3924
17283TIP3   OH273263   0.727   3.502  16.277  0.5084 -1.1447 -0.1021
17283TIP3    H173264   0.776   3.461  16.349  0.7184 -2.4257 -0.9332
17283TIP3    H273265   0.793   3.554  16.232 -0.1522  1.8186  2.0781
17284TIP3   OH273266   2.646   2.075  15.243  0.0683 -0.4336 -0.2487
17284TIP3    H173267   2.675   2.075  15.152  2.5003  0.6362  0.4522
17284TIP3    H273268   2.702   2.139  15.286 -1.9705  0.1424  1.7435
17285TIP3   OH273269   3.423   4.368   5.144  0.0890 -0.3036 -0.0911
17285TIP3    H173270   3.408   4.343   5.053 -2.0869 -0.1209  0.1813
17285TIP3    H273271   3.498   4.428   5.140  1.1028 -1.5968 -1.5260
17286TIP3   OH273272   6.031   3.685  15.848 -0.2644 -0.1654 -0.1642
17286TIP3    H173273   5.980   3.665  15.927 -0.9875 -1.9699 -1.0447
17286TIP3    H273274   5.965   3.710  15.783  0.4540  3.7532  0.3603
17287TIP3   OH273275   4.158   0.519   0.742 -0.6526 -0.3677 -0.8197
17287TIP3    H173276   4.098   0.481   0.677 -0.7416  0.3419 -1.1602
17287TIP3    H273277   4.241   0.530   0.695 -0.9430  0.9122 -1.0832
17288TIP3   OH273278   2.673   3.238  10.471  0.2105  0.3234 -0.4739
17288TIP3    H173279   2.642   3.151  10.496 -0.7261  0.4881 -0.9974
17288TIP3    H273280   2.764   3.224  10.445  0.7181 -0.1163  1.4430
17289TIP3   OH273281   0.187   0.095  13.891 -0.3935 -0.5040 -0.0945
17289TIP3    H173282   0.123   0.041  13.937 -0.4376 -0.0527  0.3930
17289TIP3    H273283   0.168   0.082  13.798 -0.5982 -1.0796  0.0239
17290TIP3   OH273284   4.268   4.254  14.324  0.1967 -0.0464 -0.1023
17290TIP3    H173285   4.238   4.331  14.275 -1.2819 -0.2489  0.4123
17290TIP3    H273286   4.341   4.287  14.377 -1.6418  1.5987  1.6205
17291TIP3   OH273287   2.268   0.486  13.773  0.0690 -0.1060  0.4859
17291TIP3    H173288   2.349   0.529  13.797  0.0298  0.1062  0.2414
17291TIP3    H273289   2.213   0.556  13.738 -1.3546  0.3759  3.3448
17292TIP3   OH273290   3.402   3.698  12.706 -0.4530 -0.1135 -0.3086
17292TIP3    H173291   3.400   3.789  12.736 -1.4093 -0.1982 -0.0645
17292TIP3    H273292   3.310   3.677  12.689 -0.4571 -1.5345  1.2085
17293TIP3   OH273293   4.667   4.548  15.912 -0.0290  0.2898 -0.2111
17293TIP3    H173294   4.654   4.553  15.817 -1.1340 -1.0612 -0.1721
17293TIP3    H273295   4.754   4.509  15.923 -0.1454 -0.1185 -0.6928
17294TIP3   OH273296   4.998   1.499  12.858 -0.0367  0.3990 -0.6506
17294TIP3    H173297   5.010   1.498  12.953 -0.6248  1.0495 -0.5644
17294TIP3    H273298   5.067   1.442  12.825 -0.7283 -1.0427  0.2666
17295TIP3   OH273299   2.808   6.225   5.195  0.0820 -0.1475 -0.2976
17295TIP3    H173300   2.786   6.318   5.185  2.2955  0.2863 -2.3509
17295TIP3    H273301   2.734   6.187   5.241 -2.1622  2.1225 -1.7524
17296TIP3   OH273302   4.681   4.262   1.853 -0.5046 -0.5336 -0.3265
17296TIP3    H173303   4.682   4.183   1.800  0.1483  0.9659 -2.6603
17296TIP3    H273304   4.595   4.260   1.895 -0.0416 -3.0607  0.7313
17297TIP3   OH273305   5.277   0.427  13.314 -0.2205 -0.6471 -0.1511
17297TIP3    H173306   5.230   0.376  13.380  2.9764 -0.8325  2.2597
17297TIP3    H273307   5.248   0.517  13.327 -0.7667 -0.9025  0.4438
17298TIP3   OH273308   0.799   5.314   4.146  0.3004 -0.2430 -0.1693
17298TIP3    H173309   0.718   5.302   4.096  0.5137 -0.7439 -0.3946
17298TIP3    H273310   0.807   5.409   4.153 -0.9801 -0.1792  0.9640
17299TIP3   OH273311   3.853   5.698   1.186  0.2166  0.5588 -0.0342
17299TIP3    H173312   3.833   5.684   1.278 -2.2138 -0.2160 -0.6108
17299TIP3    H273313   3.848   5.793   1.174 -3.3478  0.5195 -0.0296
17300TIP3   OH273314   1.690   6.371  13.381  0.3758 -0.0936  0.0081
17300TIP3    H173315   1.657   6.349  13.294  0.0357 -0.0480  0.1250
17300TIP3    H273316   1.616   6.414  13.425  0.4753 -0.3098  0.3924
17301TIP3   OH273317   0.729   4.418   2.660 -0.9330 -0.5664 -0.1209
17301TIP3    H173318   0.793   4.380   2.601  1.3985 -1.7842  2.9026
17301TIP3    H273319   0.728   4.511   2.638  1.5307 -0.5995 -0.6438
17302TIP3   OH273320   3.644   0.967  10.859  1.1206 -0.4031 -0.5081
17302TIP3    H173321   3.681   0.904  10.920  0.1271 -1.1526 -0.6519
17302TIP3    H273322   3.581   0.916  10.807 -1.4278  1.1439  0.8878
17303TIP3   OH273323   5.139   0.464   2.278 -0.1020 -0.2392  0.1501
17303TIP3    H173324   5.230   0.447   2.300  0.9419  1.8869 -2.0419
17303TIP3    H273325   5.107   0.382   2.240  0.8139 -1.0583  1.1098
17304TIP3   OH273326   6.772   4.603   1.260  0.2789  0.0425 -0.1006
17304TIP3    H173327   6.747   4.521   1.217  0.1744 -0.0973  0.2233
17304TIP3    H273328   6.704   4.616   1.326  0.2603  0.4231 -0.1918
17305TIP3   OH273329   0.642   6.123  15.555 -0.2742 -0.2037 -0.2385
17305TIP3    H173330   0.573   6.106  15.620 -0.2813 -0.6577 -0.3616
17305TIP3    H273331   0.601   6.181  15.491 -0.2224  0.3643  0.2395
17306TIP3   OH273332   4.014   0.984  15.487 -0.1273 -0.3963 -0.7219
17306TIP3    H173333   3.984   0.899  15.521 -0.0710 -0.0979  0.1058
17306TIP3    H273334   3.943   1.013  15.429  0.2325 -1.3956 -1.6948
17307TIP3   OH273335   3.167   3.723   2.261  0.4525 -0.5447 -0.1749
17307TIP3    H173336   3.169   3.813   2.230  0.1175 -0.7323 -0.7753
17307TIP3    H273337   3.212   3.673   2.193  0.8504 -0.8026  0.2696
17308TIP3   OH273338   6.022   2.718  16.882  0.2326 -0.2210 -0.2805
17308TIP3    H173339   6.036   2.652  16.950  0.3160 -1.4980 -1.5076
17308TIP3    H273340   5.932   2.749  16.898  0.5339  0.1147  0.9006
17309TIP3   OH273341   4.220   1.846  14.690  0.0967  0.1245  0.0297
17309TIP3    H173342   4.264   1.924  14.658  0.0487 -0.0070 -0.3652
17309TIP3    H273343   4.277   1.774  14.662  0.0744  0.0083  0.2770
17310TIP3   OH273344   4.894   4.184   2.670  0.0424  0.6231 -0.8115
17310TIP3    H173345   4.888   4.256   2.607  1.4992  1.8103  0.3445
17310TIP3    H273346   4.965   4.129   2.635 -0.6101  0.0966 -1.3310
17311TIP3   OH273347   6.338   2.252  10.517 -0.2299 -0.3396  0.3794
17311TIP3    H173348   6.250   2.268  10.553 -0.2641 -1.0814  0.6534
17311TIP3    H273349   6.359   2.163  10.546  0.8188  0.0183  0.7248
17312TIP3   OH273350   5.189   5.100  12.366  0.0389 -0.0370 -0.4193
17312TIP3    H173351   5.147   5.015  12.376  1.3835 -0.7827 -0.8235
17312TIP3    H273352   5.179   5.120  12.273  2.4794 -1.3163 -1.0381
17313TIP3   OH273353   1.915   2.317  15.367  0.3381  0.0295  0.2107
17313TIP3    H173354   1.906   2.268  15.449  1.1118  0.5592  0.6314
17313TIP3    H273355   1.874   2.401  15.385 -0.0886 -0.0892 -0.1791
17314TIP3   OH273356   4.092   6.715   5.087 -0.4104 -0.4056  0.4101
17314TIP3    H173357   4.036   6.778   5.134  0.6535  0.8842  0.0222
17314TIP3    H273358   4.181   6.735   5.118  0.2221 -0.1194 -1.4499
17315TIP3   OH273359   2.768   2.548  10.494  0.2098  0.4030 -0.8402
17315TIP3    H173360   2.820   2.469  10.485  0.5493  0.5428 -0.1623
17315TIP3    H273361   2.804   2.608  10.428  1.2438  0.6672 -0.0687
17316TIP3   OH273362   0.048   0.911  16.081  0.0892  0.0532  0.4217
17316TIP3    H173363   0.102   0.908  16.161  0.2016  0.1577  0.3484
17316TIP3    H273364   0.062   0.825  16.040 -0.7349 -0.3736  1.0174
17317TIP3   OH273365   5.756   0.111  14.744  0.2290  1.0372  0.2141
17317TIP3    H173366   5.804   0.100  14.662  0.2611  1.2247  0.2061
17317TIP3    H273367   5.696   0.036  14.747  1.7572 -0.2062  1.1088
17318TIP3   OH273368   2.756   2.441  13.030 -0.5307  0.6045  0.1495
17318TIP3    H173369   2.713   2.356  13.036 -0.8936  0.7544 -0.2739
17318TIP3    H273370   2.842   2.428  13.071 -0.7463  0.1482  0.4614
17319TIP3   OH273371   5.963   3.469   2.991 -0.1369 -0.3747  0.0333
17319TIP3    H173372   5.905   3.513   2.929  0.0120  1.0233  0.8473
17319TIP3    H273373   5.911   3.397   3.026  0.0390 -1.7352 -2.2767
17320TIP3   OH273374   3.165   6.340   3.534 -0.1565  0.0443 -0.0582
17320TIP3    H173375   3.093   6.321   3.473  0.5151  2.7013 -1.8008
17320TIP3    H273376   3.230   6.272   3.516  1.2041  2.1625 -4.4344
17321TIP3   OH273377   4.588   5.157  14.783 -0.3529 -0.4525  0.4171
17321TIP3    H173378   4.661   5.133  14.840 -0.3719  2.5010  1.9193
17321TIP3    H273379   4.621   5.231  14.732 -2.0689  0.6042  0.7400
17322TIP3   OH273380   5.287   5.129   0.297  0.1594  0.6289 -0.1876
17322TIP3    H173381   5.358   5.066   0.286  0.3422  0.4609  1.5995
17322TIP3    H273382   5.262   5.121   0.390 -1.7165  1.1851 -0.5879
17323TIP3   OH273383   0.291   4.867  14.092 -0.7194 -0.7243 -0.0127
17323TIP3    H173384   0.213   4.868  14.148 -1.0128 -1.1284 -0.4050
17323TIP3    H273385   0.318   4.775  14.091 -1.9406 -1.1223 -2.1869
17324TIP3   OH273386   6.596   3.793  14.451  0.0790 -0.0848 -0.4169
17324TIP3    H173387   6.530   3.800  14.519 -0.5902  0.8967 -1.1476
17324TIP3    H273388   6.592   3.701  14.423 -0.5776 -0.1648 -0.0707
17325TIP3   OH273389   3.084   3.141   5.915 -0.5954 -0.4465 -0.5465
17325TIP3    H173390   3.042   3.189   5.843 -1.0382 -0.5937 -0.3870
17325TIP3    H273391   3.143   3.080   5.871 -0.0070  0.2543 -0.7540
17326TIP3   OH273392   4.759   4.034   1.404 -0.3000 -0.2024  0.6990
17326TIP3    H173393   4.787   4.054   1.315 -2.9662  0.2663 -0.1187
17326TIP3    H273394   4.840   4.012   1.450  1.3876  1.3606 -1.3199
17327TIP3   OH273395   0.185   4.988  14.536  0.3447  0.4186  0.0270
17327TIP3    H173396   0.118   4.946  14.590 -0.4159  0.3364 -0.9437
17327TIP3    H273397   0.258   4.926  14.536 -0.0018  0.0016  0.2032
17328TIP3   OH273398   5.400   6.417  14.215 -0.0599  0.3749 -0.4526
17328TIP3    H173399   5.312   6.455  14.210  0.4149  1.3748 -1.6322
17328TIP3    H273400   5.434   6.448  14.298 -0.8910 -0.1940  0.1194
17329TIP3   OH273401   0.356   6.202  11.918  0.0169 -0.0178 -0.2849
17329TIP3    H173402   0.389   6.280  11.873  1.7818 -0.4859  0.1233
17329TIP3    H273403   0.267   6.226  11.945  0.2854  1.6134 -0.7276
17330TIP3   OH273404   3.276   0.689  15.523  0.0007  0.8413  0.1876
17330TIP3    H173405   3.370   0.701  15.508 -0.0385  0.7103 -0.1615
17330TIP3    H273406   3.259   0.733  15.607  0.4140  0.6765  0.3615
17331TIP3   OH273407   1.885   0.593  14.158  0.2218 -0.1948  0.2313
17331TIP3    H173408   1.912   0.570  14.069 -0.6309 -3.7073  0.7267
17331TIP3    H273409   1.805   0.644  14.147 -0.1317 -0.9850 -1.0399
17332TIP3   OH273410   5.585   1.498   4.392 -0.3978  0.0432 -0.2013
17332TIP3    H173411   5.601   1.484   4.485 -1.6135  1.1139  0.1868
17332TIP3    H273412   5.525   1.572   4.388  1.0961  1.2540 -1.9229
17333TIP3   OH273413   5.577   5.565  12.463  0.8448 -0.1817  0.2080
17333TIP3    H173414   5.484   5.543  12.458  1.0210 -0.6967 -1.0842
17333TIP3    H273415   5.600   5.548  12.554 -0.1670 -0.6942  0.3869
17334TIP3   OH273416   0.042   4.205   2.675 -0.1654  0.0411  0.0110
17334TIP3    H173417  -0.017   4.170   2.608  1.3736 -2.3718 -0.1897
17334TIP3    H273418  -0.014   4.222   2.750 -1.6081  0.9864 -1.2186
17335TIP3   OH273419   3.799   1.619  14.810  0.2408  0.6517 -0.4374
17335TIP3    H173420   3.804   1.694  14.869  0.7782 -1.8798  3.0347
17335TIP3    H273421   3.817   1.656  14.723  0.3841  4.4858  1.0180
17336TIP3   OH273422   5.645   2.534   4.901 -0.3681 -0.0061 -0.2231
17336TIP3    H173423   5.642   2.461   4.962 -0.2767 -1.3091 -1.7216
17336TIP3    H273424   5.562   2.580   4.915 -0.5197 -0.4961  0.5922
17337TIP3   OH273425   5.521   4.524   3.159  0.3391 -0.3981  0.2545
17337TIP3    H173426   5.598   4.578   3.145  0.1880  0.2703  1.8077
17337TIP3    H273427   5.489   4.504   3.071  1.7592  0.0474 -0.3844
17338TIP3   OH273428   4.252   4.629   1.464 -0.1222 -0.4257 -0.0659
17338TIP3    H173429   4.225   4.627   1.372  1.9311 -0.4885 -0.7220
17338TIP3    H273430   4.233   4.718   1.493 -1.8961 -0.7336 -0.1425
17339TIP3   OH273431   3.771   0.331   2.874  0.7383  0.1794 -0.3272
17339TIP3    H173432   3.694   0.341   2.818  0.6054 -1.9771 -0.6268
17339TIP3    H273433   3.736   0.300   2.958  1.1855  0.3430 -0.0746
17340TIP3   OH273434   2.736   1.691   4.018  0.1467  0.2896  0.5370
17340TIP3    H173435   2.762   1.599   4.015  1.3324  0.6004  0.9490
17340TIP3    H273436   2.725   1.715   3.926 -0.4852 -0.3390  0.4388
17341TIP3   OH273437   5.744   6.493  16.476 -0.4004  0.0668  0.4656
17341TIP3    H173438   5.673   6.497  16.539 -1.3583  0.7168 -0.5984
17341TIP3    H273439   5.808   6.433  16.514  0.3993  2.5228  3.3677
17342TIP3   OH273440   3.401   1.119   5.167  0.6375  0.4792 -0.2443
17342TIP3    H173441   3.363   1.052   5.225  0.2576 -0.3421 -1.4157
17342TIP3    H273442   3.465   1.164   5.222 -1.6159  1.5883  1.6814
17343TIP3   OH273443   1.469   5.777   4.505  0.0037 -0.0185  0.7959
17343TIP3    H173444   1.545   5.745   4.455  0.4378 -0.5700  1.7927
17343TIP3    H273445   1.399   5.715   4.485 -0.6625  1.2653 -1.2547
17344TIP3   OH273446   1.993   3.257   4.140  0.1127 -0.2514  0.2730
17344TIP3    H173447   2.014   3.337   4.092 -0.8139 -0.3059 -0.2346
17344TIP3    H273448   1.927   3.213   4.087  0.8880 -1.5526  0.3429
17345TIP3   OH273449   0.018   5.609   1.168  0.1043 -0.3132 -0.0214
17345TIP3    H173450   0.044   5.582   1.080  2.2399  2.3626 -0.3640
17345TIP3    H273451  -0.027   5.693   1.154 -0.9208 -0.6023  1.3579
17346TIP3   OH273452   2.720   6.763   1.081  0.0809  0.1580 -0.6958
17346TIP3    H173453   2.742   6.774   0.989 -1.6011  0.5679 -1.0882
17346TIP3    H273454   2.691   6.672   1.089 -0.7061  0.3951 -0.7938
17347TIP3   OH273455   6.745   5.458   3.334 -0.2423 -0.4086 -0.2818
17347TIP3    H173456   6.696   5.534   3.300  0.4397 -0.0852 -0.5795
17347TIP3    H273457   6.793   5.426   3.257  0.4552 -0.3574  0.1258
17348TIP3   OH273458   3.054   2.377   4.138 -0.2420 -0.8193 -0.3915
17348TIP3    H173459   3.048   2.398   4.232 -0.5853 -0.3810 -0.5088
17348TIP3    H273460   3.083   2.459   4.098 -0.7764 -0.8121 -0.7569
17349TIP3   OH273461   2.844   3.049   5.040 -0.0611 -0.0798 -0.8664
17349TIP3    H173462   2.910   3.015   5.100  0.6912  1.2170 -0.9215
17349TIP3    H273463   2.830   2.978   4.978  1.2349 -0.4262 -0.8015
17350TIP3   OH273464   5.012   3.714  11.512 -0.0028  0.0668 -0.0060
17350TIP3    H173465   4.970   3.733  11.428  1.5721 -0.6822 -1.0135
17350TIP3    H273466   5.075   3.785  11.524  0.4783 -0.3652  0.0453
17351TIP3   OH273467   5.953   0.045   3.473  0.1422 -0.5676  0.0531
17351TIP3    H173468   6.020  -0.008   3.430 -0.4829 -2.0778  0.8539
17351TIP3    H273469   5.896  -0.019   3.516  0.5876  0.8392  2.9456
17352TIP3   OH273470   3.364   0.736  13.802 -0.2785  0.0141  0.9797
17352TIP3    H173471   3.408   0.701  13.879 -1.0010 -1.0173  0.9445
17352TIP3    H273472   3.351   0.660  13.745  1.2634  0.9035 -0.7061
17353TIP3   OH273473   1.509   1.622   4.416 -0.1467 -0.2377  0.5573
17353TIP3    H173474   1.508   1.678   4.338 -0.2929 -0.2741  0.5328
17353TIP3    H273475   1.455   1.669   4.480 -2.0616 -1.3542 -0.1660
17354TIP3   OH273476   4.063   0.320   4.497  0.7738  0.2386  0.1030
17354TIP3    H173477   3.991   0.270   4.534  1.1527 -0.0000  0.5320
17354TIP3    H273478   4.131   0.317   4.565  0.4915  2.0627  0.5286
17355TIP3   OH273479   2.973   2.530   3.276 -0.9249  0.1637  0.2879
17355TIP3    H173480   2.899   2.591   3.265 -1.2818 -0.1239  1.0227
17355TIP3    H273481   3.032   2.551   3.204 -0.6387  1.9613  0.9733
17356TIP3   OH273482   5.418   2.297   2.668 -0.0564 -0.3257  0.9839
17356TIP3    H173483   5.415   2.225   2.732  0.0436 -0.1637  1.1699
17356TIP3    H273484   5.332   2.294   2.625  0.0330 -0.7087  0.8251
17357TIP3   OH273485   6.686   1.796   1.362  0.1505 -0.7214 -0.1992
17357TIP3    H173486   6.696   1.761   1.451  0.7872  0.3871  0.1952
17357TIP3    H273487   6.596   1.830   1.360  0.1310 -0.7524  0.0346
17358TIP3   OH273488   4.011   2.365  15.398  0.0288  0.6493 -0.0138
17358TIP3    H173489   4.034   2.282  15.356 -0.4958  1.4736 -2.0539
17358TIP3    H273490   3.921   2.351  15.430 -0.0760  0.4463 -0.3882
17359TIP3   OH273491   4.745   6.090   4.848 -0.2400 -0.2163 -0.0907
17359TIP3    H173492   4.812   6.159   4.854 -1.5581  1.0803  0.2019
17359TIP3    H273493   4.736   6.074   4.754 -0.0627  0.1615 -0.1769
17360TIP3   OH273494   2.399   6.204   0.960  0.3205 -0.0845 -0.2228
17360TIP3    H173495   2.382   6.251   1.041  1.5471 -0.0030  0.0105
17360TIP3    H273496   2.352   6.122   0.969 -1.3166  0.8022 -0.3591
17361TIP3   OH273497   2.278   1.817   4.132 -0.1695 -0.0059  0.2211
17361TIP3    H173498   2.281   1.894   4.075  0.8185 -0.4330 -0.3243
17361TIP3    H273499   2.365   1.811   4.170 -0.1285 -1.0395 -0.0036
17362TIP3   OH273500   6.038   2.006   0.251 -0.4235 -0.6491 -0.3635
17362TIP3    H173501   5.948   2.000   0.220 -0.2573 -1.9551 -0.6401
17362TIP3    H273502   6.079   2.068   0.191 -0.6178 -1.6369 -1.5585
17363TIP3   OH273503   1.328   0.940   5.483  0.1260 -0.3647  0.2701
17363TIP3    H173504   1.395   0.876   5.460  0.3330  0.1198 -0.5078
17363TIP3    H273505   1.328   0.941   5.579 -0.4434 -2.0978  0.3182
17364TIP3   OH273506   2.805   6.525   3.225 -0.0610  0.1625  0.6683
17364TIP3    H173507   2.817   6.618   3.241  1.3428 -0.0993  1.2009
17364TIP3    H273508   2.780   6.520   3.132  1.4435  0.9572  0.1963
17365TIP3   OH273509   3.281   1.770   0.341 -0.0141 -0.5729 -0.0176
17365TIP3    H173510   3.317   1.737   0.423 -2.7023 -0.8867  1.1492
17365TIP3    H273511   3.273   1.864   0.354  0.8990 -0.4145 -0.5175
17366TIP3   OH273512   6.449   4.551  16.892 -0.1755 -0.0629 -0.5583
17366TIP3    H173513   6.508   4.560  16.818 -0.9002  1.4254 -0.9772
17366TIP3    H273514   6.458   4.633  16.941 -2.3479  0.5113 -1.0046
17367TIP3   OH273515   4.909   1.881   3.030 -0.0142  0.1644  0.5039
17367TIP3    H173516   4.858   1.953   2.996 -1.2320 -0.5252  0.8089
17367TIP3    H273517   4.997   1.917   3.042 -0.0842  1.0089 -1.2739
17368TIP3   OH273518   5.539   0.827  11.876  0.0334  0.3601 -0.1286
17368TIP3    H173519   5.497   0.812  11.791  1.1961  0.8878 -0.8128
17368TIP3    H273520   5.580   0.913  11.867  1.5475 -0.2840  0.3907
17369TIP3   OH273521   3.156   2.703   3.444  0.1892 -0.0743  0.2733
17369TIP3    H173522   3.097   2.646   3.395  0.4673 -0.9187  0.9007
17369TIP3    H273523   3.111   2.788   3.445 -0.2850 -0.3052 -0.5679
17370TIP3   OH273524   0.340   1.259  16.835  0.4598 -0.5328 -0.7223
17370TIP3    H173525   0.403   1.302  16.893  0.2043 -2.1547  0.8378
17370TIP3    H273526   0.394   1.208  16.775  0.6794 -0.5121 -0.5449
17371TIP3   OH273527   3.147   6.130   5.078  0.0157  0.3682  0.0774
17371TIP3    H173528   3.172   6.043   5.048  1.4655  0.4607  0.9089
17371TIP3    H273529   3.174   6.189   5.008  0.7017  0.3138  0.2935
17372TIP3   OH273530   0.967   5.444  16.419  0.2718  0.0962 -0.2283
17372TIP3    H173531   0.963   5.515  16.483  0.5732 -0.0050 -0.0974
17372TIP3    H273532   1.055   5.449  16.383  0.1516  0.0595 -0.5329
17373TIP3   OH273533   2.571   5.128   3.898  0.1669 -0.4008  0.4220
17373TIP3    H173534   2.626   5.050   3.898  1.3778  0.4295  0.3933
17373TIP3    H273535   2.597   5.177   3.976  2.5645  2.0522 -1.6911
17374TIP3   OH273536   1.087   0.997  10.274 -0.0809  0.5743  0.5956
17374TIP3    H173537   1.160   1.032  10.222 -0.6057  0.3688 -0.3115
17374TIP3    H273538   1.124   0.924  10.322  0.5780  1.1850  1.0258
17375TIP3   OH273539   5.624   6.727  13.808 -0.2510  0.5476  0.3115
17375TIP3    H173540   5.705   6.743  13.856  0.7092  1.3212 -1.4795
17375TIP3    H273541   5.590   6.646  13.845  1.0721  0.4849  1.4553
17376TIP3   OH273542   1.173   5.664  13.318 -0.3625  0.0996 -0.0797
17376TIP3    H173543   1.098   5.668  13.259  0.2078  0.2464 -0.8078
17376TIP3    H273544   1.147   5.718  13.393 -1.7698 -1.4828  0.6268
17377TIP3   OH273545   2.787   1.024  11.463 -0.3721  0.5059 -0.6654
17377TIP3    H173546   2.787   1.052  11.371  2.4640 -0.2697 -0.9984
17377TIP3    H273547   2.820   1.100  11.511 -0.0282  0.2947 -0.5600
17378TIP3   OH273548   2.033   0.832   4.986  0.5068  0.2762  0.4425
17378TIP3    H173549   1.938   0.831   4.995  0.3935  0.4330 -0.6452
17378TIP3    H273550   2.061   0.911   5.032 -0.0931  1.3378 -0.9522
17379TIP3   OH273551   3.092   0.652  10.503  0.1612  0.0457  0.9344
17379TIP3    H173552   3.184   0.677  10.513  0.4833 -0.4271 -0.5391
17379TIP3    H273553   3.068   0.681  10.415 -0.5375 -1.4508  0.5875
17380TIP3   OH273554   0.592   2.947  15.602  0.1713  0.0769 -0.7007
17380TIP3    H173555   0.585   3.042  15.591  2.9925  0.3066 -1.1360
17380TIP3    H273556   0.560   2.932  15.691 -1.0374  1.2984 -0.8816
17381TIP3   OH273557   1.071   2.301  17.069  0.2367  0.1972 -0.2847
17381TIP3    H173558   1.036   2.352  17.143  0.4162  0.3974 -0.3379
17381TIP3    H273559   1.155   2.342  17.049 -0.9439  1.8032 -2.2812
17382TIP3   OH273560   4.566   5.859   2.326 -0.2469  0.2374  0.0179
17382TIP3    H173561   4.542   5.933   2.382 -0.5195  0.3266 -0.2139
17382TIP3    H273562   4.545   5.888   2.237 -0.0233  0.0137 -0.1093
17383TIP3   OH273563   3.284   1.157   1.580 -0.1611  0.0759 -0.5289
17383TIP3    H173564   3.316   1.107   1.504  1.5185  0.8950 -0.4176
17383TIP3    H273565   3.304   1.248   1.558  0.3106  0.3285  0.8651
17384TIP3   OH273566   4.414   3.054   5.770  0.1831  0.1368 -0.2260
17384TIP3    H173567   4.435   3.102   5.691  3.2724  2.1765  1.6193
17384TIP3    H273568   4.402   2.963   5.741  0.2053  0.9677 -3.0942
17385TIP3   OH273569   1.356   4.873   4.130  0.1250 -0.4663 -0.2519
17385TIP3    H173570   1.362   4.953   4.077  1.6628 -0.0013  0.5700
17385TIP3    H273571   1.272   4.881   4.175 -1.3239 -0.9552 -2.6711
17386TIP3   OH273572   6.064   4.759  11.851  0.0366 -0.4001 -0.4510
17386TIP3    H173573   6.112   4.838  11.830  0.5629 -0.4282  0.5974
17386TIP3    H273574   6.092   4.695  11.785 -0.8128  0.4072 -1.6566
17387TIP3   OH273575   0.636   0.200   1.115  0.6231 -0.1257  0.0998
17387TIP3    H173576   0.602   0.236   1.033  1.1426  1.1562  0.4248
17387TIP3    H273577   0.674   0.116   1.091  0.9634  0.3353 -1.0205
17388TIP3   OH273578   4.385   1.557  17.075 -0.1085 -0.2326 -0.5640
17388TIP3    H173579   4.434   1.567  16.993  0.8066 -0.5646 -0.0696
17388TIP3    H273580   4.436   1.606  17.140  0.1253 -1.4134  0.1711
17389TIP3   OH273581   5.473   2.791   2.228 -0.6756  0.0981 -0.0152
17389TIP3    H173582   5.458   2.885   2.233  0.6517  0.3180  0.1244
17389TIP3    H273583   5.567   2.781   2.241 -1.0112 -1.3754  1.6971
17390TIP3   OH273584   6.131   1.800   2.239  0.2739  0.1404 -0.0485
17390TIP3    H173585   6.054   1.746   2.223  1.3824 -1.3703 -0.5563
17390TIP3    H273586   6.097   1.879   2.281 -1.5256 -0.4988 -0.2166
17391TIP3   OH273587   0.919   2.363   6.263 -0.3598 -0.0732  0.4346
17391TIP3    H173588   0.975   2.305   6.315  1.0349  0.6220 -0.2473
17391TIP3    H273589   0.896   2.435   6.321 -1.4790 -0.8893  1.0501
17392TIP3   OH273590   0.036   3.545  11.314  0.1209 -0.5577 -0.0494
17392TIP3    H173591  -0.015   3.545  11.233 -0.6664 -1.1377  0.4289
17392TIP3    H273592   0.127   3.553  11.286 -0.0038 -2.3278 -1.0904
17393TIP3   OH273593   2.074   0.023   5.276  0.1675  0.3424  0.4403
17393TIP3    H173594   2.138   0.012   5.206 -0.1339  0.4772  0.1389
17393TIP3    H273595   2.125   0.048   5.353  0.5736 -0.4416  0.4368
17394TIP3   OH273596   2.411   4.107  16.191 -0.0789 -0.7615  0.7898
17394TIP3    H173597   2.322   4.084  16.165 -0.1854  0.4606 -0.0140
17394TIP3    H273598   2.443   4.030  16.238 -1.4929 -1.2800  0.9475
17395TIP3   OH273599   1.155   3.941   1.466 -0.1942 -0.2846  0.2466
17395TIP3    H173600   1.126   3.903   1.548  1.1307 -0.5212  0.6289
17395TIP3    H273601   1.209   3.873   1.425  0.4968  0.4112 -0.0369
17396TIP3   OH273602   4.848   4.936   2.493 -0.5845  0.5506 -0.3896
17396TIP3    H173603   4.943   4.937   2.475  0.2550  2.1806  3.2217
17396TIP3    H273604   4.821   4.847   2.473  2.2501 -0.6330  0.5170
17397TIP3   OH273605   6.377   3.010   3.902  0.5935 -0.1230 -0.9534
17397TIP3    H173606   6.283   2.990   3.905  0.5937 -0.1135  1.6552
17397TIP3    H273607   6.407   2.995   3.992  3.0792  0.0090 -1.6933
17398TIP3   OH273608   3.754   0.477  17.055  0.0224  0.2835  0.2014
17398TIP3    H173609   3.718   0.557  17.093 -0.2651  0.4572 -0.4203
17398TIP3    H273610   3.793   0.505  16.972 -0.6620 -0.3210 -0.3413
17399TIP3   OH273611   1.123   1.655  11.777 -0.0197 -0.1607 -0.2820
17399TIP3    H173612   1.190   1.587  11.768 -0.7003 -0.7894 -0.7501
17399TIP3    H273613   1.172   1.736  11.789  0.8145 -0.6823 -0.0815
17400TIP3   OH273614   2.407   6.413   1.789  0.4798 -0.0696  0.4888
17400TIP3    H173615   2.340   6.357   1.751 -0.8504  0.7102  1.6180
17400TIP3    H273616   2.462   6.437   1.714 -0.9242 -0.1395 -0.6107
17401TIP3   OH273617   0.555   4.929  11.779 -0.2567 -0.8534 -0.3821
17401TIP3    H173618   0.646   4.956  11.788 -0.2976 -1.0756  0.9348
17401TIP3    H273619   0.558   4.848  11.728  0.4124 -1.5230  0.6782
17402TIP3   OH273620   1.865   4.785  14.711 -0.1849 -0.4181  0.4052
17402TIP3    H173621   1.883   4.793  14.617  1.2301  0.9248  0.7524
17402TIP3    H273622   1.938   4.829  14.753 -1.4991  0.2479  2.1161
17403TIP3   OH273623   5.967   1.901  15.882 -0.2330 -0.2314  0.0656
17403TIP3    H173624   5.956   1.838  15.953 -0.8029 -0.1209  0.0750
17403TIP3    H273625   6.058   1.889  15.854  0.0949 -0.0600  1.0207
17404TIP3   OH273626   4.819   0.594   0.306  0.4076 -0.3277  0.0422
17404TIP3    H173627   4.809   0.605   0.401  3.8673 -0.2302  0.5147
17404TIP3    H273628   4.873   0.668   0.279 -1.1341  0.0707 -2.2217
17405TIP3   OH273629   0.304   0.683   5.882  0.2653 -0.2087 -0.0794
17405TIP3    H173630   0.280   0.762   5.929  1.2725 -0.1546  0.3558
17405TIP3    H273631   0.222   0.633   5.875 -0.7451  1.5335 -1.7024
17406TIP3   OH273632   0.347   0.378  15.717  0.1560  0.5551 -0.7456
17406TIP3    H173633   0.394   0.441  15.772  0.4642  0.6282 -1.0867
17406TIP3    H273634   0.388   0.294  15.737  0.2965  0.5880 -0.8934
17407TIP3   OH273635   5.502   2.437  10.881  0.1291  0.0153 -0.4234
17407TIP3    H173636   5.453   2.510  10.920  1.8886 -0.3996  2.8738
17407TIP3    H273637   5.434   2.381  10.844 -1.6809  1.0096  1.1602
17408TIP3   OH273638   0.205   0.554   3.139 -0.3523  0.0576 -0.2328
17408TIP3    H173639   0.204   0.470   3.093  1.7461 -1.0087  1.5098
17408TIP3    H273640   0.115   0.586   3.132 -1.6995 -3.1772  0.5463
17409TIP3   OH273641   0.324   6.018  12.779  0.5007 -0.0049  0.4000
17409TIP3    H173642   0.355   6.050  12.694  0.5562  1.3222  0.8896
17409TIP3    H273643   0.348   6.087  12.841  0.1552 -0.7921  1.4435
17410TIP3   OH273644   2.037   4.689  16.325 -0.5087  0.4628  0.2445
17410TIP3    H173645   2.120   4.702  16.279 -1.0179  0.7507 -0.6154
17410TIP3    H273646   2.044   4.602  16.364  0.6108  0.9077  1.0736
17411TIP3   OH273647   0.339   2.626  11.681  0.1905 -0.1937  0.1854
17411TIP3    H173648   0.287   2.588  11.611  1.2109 -1.1066 -0.1002
17411TIP3    H273649   0.429   2.624  11.648  0.4275  1.2933  0.6916
17412TIP3   OH273650   5.357   2.413   4.981  0.3520  0.2546 -0.0987
17412TIP3    H173651   5.298   2.403   5.056 -2.7306 -0.8919 -2.4707
17412TIP3    H273652   5.351   2.330   4.935  1.5910  1.1648 -2.0236
17413TIP3   OH273653   4.676   5.806   3.597 -0.3859 -0.5042 -0.4432
17413TIP3    H173654   4.697   5.713   3.601  0.0683 -0.3839  0.0554
17413TIP3    H273655   4.649   5.820   3.506 -0.5656 -1.1433 -0.4938
17414TIP3   OH273656   2.948   2.266   3.112 -0.3425 -0.4605  0.2400
17414TIP3    H173657   2.938   2.334   3.045 -0.0132 -1.3634 -0.7481
17414TIP3    H273658   2.939   2.313   3.195 -0.1452  0.7858 -0.4182
17415TIP3   OH273659   6.172   1.592  12.027 -0.5534  0.1180  0.6027
17415TIP3    H173660   6.088   1.577  11.983 -0.1814  1.1623 -0.5137
17415TIP3    H273661   6.238   1.565  11.963 -0.0187 -0.4794  1.3856
17416TIP3   OH273662   6.094   1.974  14.604  0.4896 -0.2752  0.1327
17416TIP3    H173663   6.034   2.006  14.671  0.6600  1.3006 -0.4170
17416TIP3    H273664   6.181   1.997  14.636  0.6168 -0.1322 -0.3020
17417TIP3   OH273665   3.448   1.784  14.234  0.2287  0.4963 -0.0799
17417TIP3    H173666   3.432   1.859  14.176  1.8389 -0.3699 -1.7467
17417TIP3    H273667   3.539   1.760  14.218  0.2919 -0.6929  1.7900
17418TIP3   OH273668   1.404   4.571   2.430  0.1494 -0.1717 -0.1295
17418TIP3    H173669   1.492   4.535   2.415 -0.0922 -1.9946  2.1278
17418TIP3    H273670   1.404   4.596   2.522 -1.2568  1.2739 -0.4769
17419TIP3   OH273671   0.393   2.841  14.895 -0.3200 -0.2709 -0.1994
17419TIP3    H173672   0.319   2.897  14.870  1.2455  1.0867 -2.0334
17419TIP3    H273673   0.427   2.880  14.975 -0.8995 -0.2324  0.0322
17420TIP3   OH273674   6.504   0.339   5.612 -0.2826 -0.3395 -0.0426
17420TIP3    H173675   6.468   0.329   5.700 -1.0995 -1.7707 -0.5110
17420TIP3    H273676   6.598   0.323   5.624 -0.5301 -1.5549  0.4240
17421TIP3   OH273677   6.794   0.407  17.081  0.2156  0.3581  0.2842
17421TIP3    H173678   6.785   0.415  17.176 -2.8726 -0.4437  0.1508
17421TIP3    H273679   6.821   0.495  17.053  0.9824  0.6633  1.8530
17422TIP3   OH273680   5.955   1.270   4.523  0.0194 -0.3375 -0.0442
17422TIP3    H173681   5.964   1.337   4.591 -1.1505 -1.5200  1.3319
17422TIP3    H273682   5.862   1.251   4.520  0.2298 -1.3222 -1.0010
17423TIP3   OH273683   3.298   0.962  15.875 -0.1264  0.4314 -0.1994
17423TIP3    H173684   3.386   0.990  15.899  0.5487 -0.9399 -0.9445
17423TIP3    H273685   3.270   1.024  15.808  0.3779  0.7433 -0.1254
17424TIP3   OH273686   3.935   5.769   5.682 -0.1727  0.4231  0.4547
17424TIP3    H173687   3.934   5.758   5.587 -1.0062  2.1194  0.2301
17424TIP3    H273688   4.027   5.784   5.703 -0.1622  1.5626 -0.3115
17425TIP3   OH273689   2.760   5.599   0.731  0.1369  0.0093 -0.1516
17425TIP3    H173690   2.747   5.648   0.650 -0.1094  1.7683  0.8853
17425TIP3    H273691   2.729   5.658   0.800  3.8279  0.1911  1.5963
17426TIP3   OH273692   3.467   1.631  11.631 -0.0269 -0.3532 -0.0160
17426TIP3    H173693   3.507   1.703  11.680 -2.5319 -0.0318  1.7374
17426TIP3    H273694   3.529   1.559  11.639  1.9579  1.1852 -0.7513
17427TIP3   OH273695   4.349   3.449  16.447  0.2864 -0.2097 -0.4646
17427TIP3    H173696   4.417   3.452  16.515  0.7628  0.1114 -0.9487
17427TIP3    H273697   4.300   3.530  16.459  0.9654  0.3123 -1.0947
17428TIP3   OH273698   6.144   2.492  17.028  0.2530 -0.2489 -0.3560
17428TIP3    H173699   6.224   2.543  17.042  0.3587 -0.3555 -0.5648
17428TIP3    H273700   6.174   2.401  17.020 -0.0862 -0.6040  1.7558
17429TIP3   OH273701   6.720   2.347  12.616  0.4687  0.1517  0.1895
17429TIP3    H173702   6.644   2.379  12.567  0.0302 -0.6980  0.2894
17429TIP3    H273703   6.795   2.382  12.570  0.0171  1.0197  0.0930
17430TIP3   OH273704   1.815   5.802   5.791  1.1341 -0.1917 -0.1608
17430TIP3    H173705   1.859   5.718   5.808  0.2449 -0.4594  0.9498
17430TIP3    H273706   1.739   5.780   5.738  0.2016 -0.3049  1.1565
17431TIP3   OH273707   5.024   5.751   4.511  0.1950 -0.0088  0.3340
17431TIP3    H173708   5.118   5.737   4.499  0.8047  0.3955  3.6357
17431TIP3    H273709   4.984   5.707   4.436  2.8978 -1.9744 -0.1383
17432TIP3   OH273710   6.655   0.545   4.350  0.1288 -0.2041 -0.2186
17432TIP3    H173711   6.733   0.600   4.346 -0.7416  1.0894  0.1069
17432TIP3    H273712   6.608   0.564   4.269 -0.9946  0.8310  0.6311
17433TIP3   OH273713   1.211   1.187   5.740 -0.3714 -0.5902 -0.1566
17433TIP3    H173714   1.305   1.206   5.735 -0.3015 -0.7772  0.3915
17433TIP3    H273715   1.199   1.149   5.827 -1.2304  1.0443  0.4815
17434TIP3   OH273716   4.842   4.549   4.125  0.2451  0.0810 -0.1039
17434TIP3    H173717   4.810   4.563   4.035  1.3334 -1.0461 -0.6973
17434TIP3    H273718   4.915   4.610   4.134 -0.2717  0.6614  0.2682
17435TIP3   OH273719   0.935   1.521   1.777 -0.2022 -0.2936 -0.5121
17435TIP3    H173720   0.900   1.564   1.700  0.1185 -1.0642 -1.1078
17435TIP3    H273721   0.982   1.590   1.825 -0.1813  0.1341 -1.1457
17436TIP3   OH273722   2.745   4.490  17.002  0.5297 -0.0541  0.0206
17436TIP3    H173723   2.807   4.510  16.931  1.0072 -0.6969  0.2431
17436TIP3    H273724   2.688   4.423  16.966 -0.4792  1.0084 -0.4095
17437TIP3   OH273725   6.399   2.522   2.015  0.4079  0.0596  0.5494
17437TIP3    H173726   6.419   2.438   1.974  0.2503  0.2004  0.1825
17437TIP3    H273727   6.303   2.529   2.008  0.5382  0.9115 -0.6867
17438TIP3   OH273728   0.804   3.811   2.857 -0.4686  0.4620  0.0301
17438TIP3    H173729   0.791   3.883   2.918  2.9370  0.5256  0.8900
17438TIP3    H273730   0.835   3.852   2.776  0.0481  0.0670  0.0229
17439TIP3   OH273731   5.000   6.815  14.731 -0.1947 -0.0408  0.2959
17439TIP3    H173732   5.068   6.766  14.776  0.3238 -0.2681 -0.7275
17439TIP3    H273733   4.999   6.780  14.642  0.1673  1.7737 -0.4550
17440TIP3   OH273734   2.980   6.710  11.321 -0.0445 -0.3721 -0.0482
17440TIP3    H173735   2.953   6.762  11.245 -1.0128  0.2209  0.6830
17440TIP3    H273736   2.956   6.620  11.297  2.7560 -0.7538 -1.8259
17441TIP3   OH273737   1.762   0.250  13.729  0.2416 -0.1079  0.6224
17441TIP3    H173738   1.739   0.244  13.822  2.3297 -2.3810  1.1188
17441TIP3    H273739   1.851   0.286  13.729  0.4420 -0.5619 -0.4430
17442TIP3   OH273740   2.025   3.878  17.106  0.2816 -0.6961 -0.8727
17442TIP3    H173741   2.039   3.831  17.188 -0.3196 -0.6595 -0.7442
17442TIP3    H273742   2.086   3.952  17.110 -2.2841  1.5217  1.2983
17443TIP3   OH273743   3.218   2.705   0.622  0.5356  0.0266 -0.7175
17443TIP3    H173744   3.126   2.730   0.609  0.8315  1.0499 -0.8870
17443TIP3    H273745   3.214   2.640   0.693 -0.3011  0.2128 -0.5745
17444TIP3   OH273746   3.148   1.873   1.991  0.3788 -0.0286 -0.3150
17444TIP3    H173747   3.145   1.779   1.970 -0.3598  0.0050 -0.3979
17444TIP3    H273748   3.226   1.905   1.945  0.3580 -0.5077 -0.7002
17445TIP3   OH273749   3.015   5.571   3.654  0.0001 -0.6417  0.0770
17445TIP3    H173750   2.924   5.593   3.634  0.0750  0.9135  1.3110
17445TIP3    H273751   3.063   5.651   3.636  0.8749 -0.9245  1.1069
17446TIP3   OH273752   2.191   2.135   4.037  0.6179 -0.2249 -0.0471
17446TIP3    H173753   2.128   2.119   4.107 -0.5584 -1.4445 -1.3200
17446TIP3    H273754   2.138   2.168   3.964  1.5985 -0.3089 -0.8283
17447TIP3   OH273755   4.125   0.692   4.775  0.2914 -0.0262  0.0370
17447TIP3    H173756   4.156   0.776   4.807 -0.0415  0.0204  0.2362
17447TIP3    H273757   4.161   0.685   4.686 -1.0249  1.0657 -0.6223
17448TIP3   OH273758   0.543   5.978   3.296  0.2651 -0.0766 -0.3493
17448TIP3    H173759   0.539   6.073   3.282  3.3059  0.2696  0.3421
17448TIP3    H273760   0.611   5.948   3.235  1.4350 -1.2884  1.4646
17449TIP3   OH273761   2.517   2.711   3.687 -0.1780  0.2256  0.1375
17449TIP3    H173762   2.582   2.731   3.620  0.8338  0.9030  1.2717
17449TIP3    H273763   2.566   2.666   3.755 -1.0034  0.3009  0.7951
17450TIP3   OH273764   0.032   2.563  16.183  0.0232 -0.4767 -0.4128
17450TIP3    H173765  -0.050   2.597  16.218  0.2733 -0.4244  0.1331
17450TIP3    H273766   0.049   2.615  16.105 -0.6873 -0.7795 -0.7790
17451TIP3   OH273767   1.571   1.121   4.293 -0.6642  0.5474 -0.1001
17451TIP3    H173768   1.526   1.037   4.287  0.7587 -0.3420  0.8545
17451TIP3    H273769   1.648   1.111   4.237  0.5546  0.4587  1.5126
17452TIP3   OH273770   2.441   0.907  15.280 -0.3550 -0.3788 -0.0299
17452TIP3    H173771   2.530   0.874  15.288  0.7013  1.2165 -3.2466
17452TIP3    H273772   2.395   0.838  15.231 -0.3834 -0.4147  0.0465
17453TIP3   OH273773   6.254   4.792   1.904 -0.1519 -0.4878 -0.1839
17453TIP3    H173774   6.194   4.721   1.927 -0.8186  0.5726  1.5007
17453TIP3    H273775   6.296   4.817   1.986 -0.8209  1.8312 -0.4546
17454TIP3   OH273776   0.211   2.648  13.039  0.1442 -0.1341 -0.6090
17454TIP3    H173777   0.153   2.612  13.105  1.2321  0.3079  0.6433
17454TIP3    H273778   0.268   2.708  13.087  1.3727 -0.2480 -1.8402
17455TIP3   OH273779   2.500   6.645  13.180 -0.0167 -0.2346  0.0554
17455TIP3    H173780   2.459   6.561  13.199  1.5338 -1.1596 -0.5243
17455TIP3    H273781   2.553   6.664  13.258  4.3160 -2.7823 -1.9393
17456TIP3   OH273782   5.701   1.476   0.387 -0.1757  0.0085 -0.0007
17456TIP3    H173783   5.619   1.481   0.338 -0.3313 -0.2170  0.2345
17456TIP3    H273784   5.675   1.465   0.478  0.1073 -0.8494 -0.0116
17457TIP3   OH273785   1.266   2.769  15.689  0.9087 -0.4717  0.2104
17457TIP3    H173786   1.194   2.729  15.737  0.6844 -0.1076  0.1785
17457TIP3    H273787   1.339   2.770  15.751  0.6934 -0.2308  0.4624
17458TIP3   OH273788   4.287   4.101  16.555 -0.2192  0.0239  0.8348
17458TIP3    H173789   4.192   4.116  16.554 -0.3434 -0.6621 -0.4587
17458TIP3    H273790   4.323   4.178  16.598 -1.2163  1.4855 -0.7925
17459TIP3   OH273791   2.006   5.823   3.933 -0.4981 -0.5816 -0.0603
17459TIP3    H173792   2.086   5.805   3.982 -2.0884 -3.1835  1.8032
17459TIP3    H273793   1.948   5.750   3.952 -3.0247  0.6826 -2.1146
17460TIP3   OH273794   6.204   5.431  12.134 -0.5054 -0.3462 -0.2959
17460TIP3    H173795   6.280   5.459  12.083 -1.4069  1.6310 -0.6599
17460TIP3    H273796   6.164   5.513  12.164 -3.2088 -1.2140 -1.1804
17461TIP3   OH273797   3.766   1.732   1.526  0.3137 -0.2317  0.4402
17461TIP3    H173798   3.702   1.744   1.596  1.7934  1.4898  1.6131
17461TIP3    H273799   3.723   1.674   1.463 -1.5732 -0.7921  2.1365
17462TIP3   OH273800   2.480   2.123  14.818  0.3139 -0.1079  0.0220
17462TIP3    H173801   2.504   2.043  14.864 -0.4936 -0.7696 -0.6697
17462TIP3    H273802   2.415   2.165  14.875 -0.9006 -1.0717 -0.6133
17463TIP3   OH273803   4.565   4.012   0.165 -0.5880 -0.4010 -0.6053
17463TIP3    H173804   4.653   3.987   0.195 -0.6206  0.3791  0.1896
17463TIP3    H273805   4.509   3.939   0.191 -0.2585 -0.6620 -0.6266
17464TIP3   OH273806   5.433   2.924  11.483  0.1562 -0.3980 -0.0978
17464TIP3    H173807   5.462   2.971  11.405 -2.3002  1.7959  0.1714
17464TIP3    H273808   5.393   2.843  11.449 -1.5525  0.8656 -1.2598
17465TIP3   OH273809   5.695   6.768  16.304 -0.5860 -0.4565  0.1310
17465TIP3    H173810   5.743   6.805  16.229  1.9433 -0.5671  1.5875
17465TIP3    H273811   5.645   6.696  16.266 -1.7112  1.2662 -1.9041
17466TIP3   OH273812   5.636   3.142  13.135  0.1202  0.0882  0.5763
17466TIP3    H173813   5.581   3.219  13.153 -0.4493  0.0153 -0.6952
17466TIP3    H273814   5.575   3.068  13.143  0.9463 -0.4021  3.0850
17467TIP3   OH273815   1.188   4.176  13.335  0.2835 -0.1359 -0.5709
17467TIP3    H173816   1.210   4.128  13.415 -0.9679  1.1374  0.5932
17467TIP3    H273817   1.146   4.111  13.279  0.2705 -0.8166  0.2066
17468TIP3   OH273818   1.461   6.131   2.525 -0.1067 -0.4246 -0.6129
17468TIP3    H173819   1.507   6.215   2.531 -1.3100  0.1805  0.6511
17468TIP3    H273820   1.490   6.094   2.441  1.1260  0.8321 -0.7806
17469TIP3   OH273821   1.874   0.749  13.616  0.4480 -0.4429 -0.0512
17469TIP3    H173822   1.856   0.801  13.537 -0.0402  0.9864  0.9603
17469TIP3    H273823   1.806   0.682  13.616 -0.2036  0.1995 -0.3108
17470TIP3   OH273824   6.796   1.727   4.293  0.3499 -0.0385 -0.1576
17470TIP3    H173825   6.747   1.765   4.220  0.6630  0.1731 -0.2574
17470TIP3    H273826   6.876   1.778   4.298  0.6025 -0.4395 -0.0466
17471TIP3   OH273827   4.282   0.301   4.689  0.2471  0.0602  0.1723
17471TIP3    H173828   4.300   0.367   4.756  2.4922  0.6037 -0.8721
17471TIP3    H273829   4.312   0.218   4.727  0.4518  0.1819  0.2763
17472TIP3   OH273830   3.403   3.691   5.626  0.2044  0.9323 -0.6431
17472TIP3    H173831   3.377   3.722   5.539 -2.6158  1.3245  0.2405
17472TIP3    H273832   3.481   3.742   5.648  1.9813 -0.3062 -3.5053
17473TIP3   OH273833   5.662   2.765  17.045 -0.0364  0.2656 -0.6501
17473TIP3    H173834   5.745   2.792  17.086 -0.1807 -0.0081 -0.1737
17473TIP3    H273835   5.604   2.840  17.058  0.0767  0.3810 -0.8075
17474TIP3   OH273836   4.524   4.477  11.884  0.1266  0.1079 -0.3062
17474TIP3    H173837   4.515   4.496  11.977 -1.1000  0.3293 -0.4525
17474TIP3    H273838   4.554   4.560  11.846  0.3312  0.1047 -0.1563
17475TIP3   OH273839   6.427   6.370   1.694  0.6384 -0.1033  0.1371
17475TIP3    H173840   6.457   6.325   1.615 -1.5655  0.0530 -0.8704
17475TIP3    H273841   6.437   6.306   1.764  2.1987 -0.4060 -0.3371
17476TIP3   OH273842   5.149   6.452  12.672 -0.1326  0.4828  0.1279
17476TIP3    H173843   5.224   6.454  12.732 -0.8667 -0.7099  1.1390
17476TIP3    H273844   5.104   6.536  12.687  0.4610  0.7853  0.2293
17477TIP3   OH273845   1.729   4.468   5.929 -0.4796 -0.1477  0.3434
17477TIP3    H173846   1.673   4.400   5.893  0.3152 -0.1314 -1.0022
17477TIP3    H273847   1.723   4.540   5.866 -0.1114  0.4293  0.9500
17478TIP3   OH273848   6.302   4.036   1.494  0.5135  0.4110  0.0146
17478TIP3    H173849   6.342   4.108   1.544  0.3485 -0.9896  2.3302
17478TIP3    H273850   6.218   4.071   1.465  0.2858  1.1020  1.3834
17479TIP3   OH273851   2.563   1.248   4.179 -0.8240 -1.0921  0.4158
17479TIP3    H173852   2.535   1.183   4.244  1.1333 -1.0571  1.3489
17479TIP3    H273853   2.572   1.198   4.098 -1.5761 -1.4966  0.5706
17480TIP3   OH273854   3.879   4.487  14.399 -0.0880 -0.0262  0.0763
17480TIP3    H173855   3.822   4.556  14.364 -0.5223  0.3766  1.5083
17480TIP3    H273856   3.837   4.462  14.481  1.8551  0.3349  1.2201
17481TIP3   OH273857   0.769   2.836  13.302 -0.4315 -0.5839  0.2162
17481TIP3    H173858   0.696   2.807  13.247 -0.4105 -1.6200  0.7042
17481TIP3    H273859   0.804   2.755  13.340  1.5898 -0.2151 -0.7360
17482TIP3   OH273860   1.227   2.223  15.396 -0.2637 -0.1055 -0.7036
17482TIP3    H173861   1.145   2.271  15.405  1.0690  2.1323  0.5883
17482TIP3    H273862   1.247   2.192  15.485  1.0851  0.8740 -0.6295
17483TIP3   OH273863   4.363   4.924  12.010 -0.6693  0.3363 -0.2931
17483TIP3    H173864   4.335   4.917  11.919  1.5124 -0.3185 -0.9715
17483TIP3    H273865   4.459   4.932  12.006 -0.5044  0.2045  1.9389
17484TIP3   OH273866   5.164   3.478  16.112  0.1037 -0.3405 -0.0435
17484TIP3    H173867   5.131   3.533  16.183 -1.5104  0.7707 -1.5791
17484TIP3    H273868   5.111   3.398  16.118 -1.3573  0.5037 -1.0764
17485TIP3   OH273869   2.335   3.256   3.662 -0.1138 -0.3249  0.0988
17485TIP3    H173870   2.417   3.216   3.690  1.0236  0.9976 -1.1737
17485TIP3    H273871   2.305   3.306   3.738  0.8185  0.0061  0.2651
17486TIP3   OH273872   6.043   5.515   3.847  0.3605 -0.3509 -0.3118
17486TIP3    H173873   6.073   5.425   3.834 -0.0549 -0.7487  1.2202
17486TIP3    H273874   6.119   5.560   3.884  1.4185  0.6678 -3.4507
17487TIP3   OH273875   0.513   2.071   2.199 -0.2136 -0.0463  0.8065
17487TIP3    H173876   0.565   1.994   2.176  1.2235  0.4992  2.0569
17487TIP3    H273877   0.430   2.060   2.152  0.5985 -1.5194 -0.3317
17488TIP3   OH273878   5.413   0.863  15.017  0.6082 -0.2004  0.0195
17488TIP3    H173879   5.437   0.945  14.976 -1.7861  0.5871 -0.0049
17488TIP3    H273880   5.487   0.805  15.002  1.0013  0.9139 -2.9209
17489TIP3   OH273881   0.247   6.804  14.607  0.2638 -0.1325 -0.0752
17489TIP3    H173882   0.298   6.730  14.573  1.9027  0.5814  0.7166
17489TIP3    H273883   0.169   6.806  14.552  0.8823 -1.5302 -1.0815
17490TIP3   OH273884   5.549   6.274  12.132 -0.1152  0.1078 -0.2264
17490TIP3    H173885   5.561   6.361  12.094  0.8581  0.1519  0.1738
17490TIP3    H273886   5.595   6.215  12.072  1.8293  0.2278  1.0712
17491TIP3   OH273887   0.682   0.932   5.341 -0.0667  0.1245 -0.2792
17491TIP3    H173888   0.619   0.876   5.296 -0.8283  1.0916 -0.4499
17491TIP3    H273889   0.648   0.941   5.430  1.4332 -1.7798  0.5424
17492TIP3   OH273890   6.687   5.064   0.882  0.6636  0.0181 -0.6938
17492TIP3    H173891   6.661   4.976   0.909 -1.7357  1.2369  1.3765
17492TIP3    H273892   6.758   5.087   0.942  0.6705 -0.1697 -0.6276
17493TIP3   OH273893   1.505   5.316  11.035 -0.0638  0.0488 -0.4595
17493TIP3    H173894   1.528   5.224  11.051 -1.9324 -0.7120 -1.8214
17493TIP3    H273895   1.582   5.352  10.991  1.6501 -0.1484  2.1299
17494TIP3   OH273896   2.645   5.572  14.985 -0.7546 -0.2714 -0.0439
17494TIP3    H173897   2.656   5.496  14.927 -0.0013 -0.4824  0.3549
17494TIP3    H273898   2.648   5.536  15.073 -2.2420  0.0122  0.1369
17495TIP3   OH273899   0.705   5.485  13.933  0.2663  0.0728  0.0530
17495TIP3    H173900   0.796   5.458  13.950  0.2820  0.0980  0.0060
17495TIP3    H273901   0.659   5.402  13.918  0.8142  0.1920 -2.6844
17496TIP3   OH273902   6.651   4.469  11.835  0.1626  0.2606 -0.0008
17496TIP3    H173903   6.577   4.527  11.854  0.2936  0.8922 -1.2978
17496TIP3    H273904   6.641   4.397  11.897 -1.0423  0.7743  0.4410
17497TIP3   OH273905   5.531   4.033   6.114 -0.3422 -0.8376 -0.5719
17497TIP3    H173906   5.584   4.076   6.181  0.4306  0.2371 -1.8434
17497TIP3    H273907   5.593   4.005   6.047 -1.2094 -0.9659 -1.3580
17498TIP3   OH273908   4.415   2.212  16.071 -0.4575 -0.0214  0.2688
17498TIP3    H173909   4.474   2.269  16.022 -0.3753  1.1732  1.6875
17498TIP3    H273910   4.351   2.182  16.006  0.9081 -0.2937 -1.0176
17499TIP3   OH273911   3.868   0.853   3.662  1.0957 -0.3317  0.5495
17499TIP3    H173912   3.952   0.899   3.672  1.5614 -0.7295 -1.1229
17499TIP3    H273913   3.893   0.763   3.641  0.2575 -0.5022  0.2356
17500TIP3   OH273914   6.417   5.417  13.935  0.5045 -0.5458  0.6877
17500TIP3    H173915   6.350   5.479  13.907  1.6048  1.2566  1.8270
17500TIP3    H273916   6.463   5.393  13.855  0.6664  0.8913  0.3333
17501TIP3   OH273917   1.782   3.408   5.435  0.1781 -0.3705  0.0096
17501TIP3    H173918   1.781   3.420   5.530 -1.3319  0.8005 -0.1202
17501TIP3    H273919   1.706   3.353   5.417 -1.1595  1.6217 -0.7328
17502TIP3   OH273920   1.166   0.619   4.996  0.1841 -0.2795  0.4686
17502TIP3    H173921   1.196   0.560   4.927  1.0855 -2.3690  2.4779
17502TIP3    H273922   1.098   0.570   5.042 -0.1700  0.9098  1.2708
17503TIP3   OH273923   5.951   5.098  15.820  0.2486  0.2520 -0.0589
17503TIP3    H173924   5.859   5.076  15.807  0.0840  1.3714 -0.9806
17503TIP3    H273925   5.990   5.019  15.857 -1.0029 -0.3596 -0.0037
17504TIP3   OH273926   4.940   1.573  15.357 -0.0824  0.1147 -0.5808
17504TIP3    H173927   4.961   1.510  15.427  2.2949 -1.0191 -2.1821
17504TIP3    H273928   4.857   1.613  15.385  0.3634 -0.8204  2.4757
17505TIP3   OH273929   1.864   6.661   5.403 -0.0648 -0.0508  0.1275
17505TIP3    H173930   1.928   6.684   5.335 -1.5995  0.2550 -1.2591
17505TIP3    H273931   1.893   6.710   5.480  2.2064 -1.0567  0.0073
17506TIP3   OH273932   4.463   0.850  16.463 -0.1859 -0.5838 -0.6149
17506TIP3    H173933   4.548   0.892  16.462  0.0363 -1.0009 -1.7632
17506TIP3    H273934   4.468   0.786  16.392 -1.7351 -0.0107 -1.2894
17507TIP3   OH273935   0.589   2.689  13.464 -0.4543 -0.1601  0.4720
17507TIP3    H173936   0.575   2.783  13.452 -0.8390 -0.3054 -0.3076
17507TIP3    H273937   0.502   2.651  13.456 -0.0371 -0.8209 -1.8547
17508TIP3   OH273938   6.733   5.374   0.191 -0.1173  0.0222  0.1733
17508TIP3    H173939   6.742   5.411   0.103 -0.4185 -0.5397 -0.1012
17508TIP3    H273940   6.756   5.282   0.181  0.9527  0.1947  0.9165
17509TIP3   OH273941   3.624   6.061   3.362 -0.4986  0.2242  0.2844
17509TIP3    H173942   3.702   6.010   3.382 -0.1194  0.8938  0.5413
17509TIP3    H273943   3.555   5.995   3.349  0.5910 -0.5469 -2.4062
17510TIP3   OH273944   1.409   2.049  11.548 -0.9923 -0.3608 -0.0470
17510TIP3    H173945   1.424   2.074  11.457 -0.4228 -0.1958  0.0886
17510TIP3    H273946   1.491   2.070  11.592 -1.1727 -0.6925  0.4518
17511TIP3   OH273947   4.935   1.400  16.595  0.4973 -0.0308 -0.5098
17511TIP3    H173948   4.968   1.424  16.682 -2.4238  0.2526  0.6461
17511TIP3    H273949   4.974   1.463  16.536 -0.5040  2.3959  1.2440
17512TIP3   OH273950   2.893   3.955   4.536  0.3303  0.0373  0.4606
17512TIP3    H173951   2.948   3.887   4.498  0.3349 -0.1525  0.8004
17512TIP3    H273952   2.831   3.907   4.591 -0.8647  0.1591 -0.7402
17513TIP3   OH273953   1.544   6.464  10.842 -0.7104  0.2661  0.2031
17513TIP3    H173954   1.640   6.455  10.838 -0.8441 -1.0101 -1.4785
17513TIP3    H273955   1.513   6.374  10.853 -1.7120  0.7933  1.9071
17514TIP3   OH273956   0.687   2.601   6.237  0.4036 -0.2180 -0.1754
17514TIP3    H173957   0.612   2.562   6.282 -0.3637 -1.0250 -2.0631
17514TIP3    H273958   0.759   2.593   6.300 -0.9529  0.1680  1.5115
17515TIP3   OH273959   4.385   1.675   1.020 -0.2173  0.4268  0.1512
17515TIP3    H173960   4.380   1.763   0.982 -0.0756  0.5936  0.5137
17515TIP3    H273961   4.331   1.621   0.962 -0.0663  0.6919 -0.2441
17516TIP3   OH273962   2.929   5.874   0.657 -0.1329  0.0536 -0.0950
17516TIP3    H173963   2.930   5.852   0.564  1.2132  1.0049 -0.3408
17516TIP3    H273964   2.911   5.968   0.658 -1.0081 -0.1078  0.6706
17517TIP3   OH273965   5.371   5.025   4.478 -0.1685 -0.2943 -0.2229
17517TIP3    H173966   5.300   5.090   4.483 -0.0564 -0.2196  0.7094
17517TIP3    H273967   5.369   4.994   4.388 -0.3893  0.8198 -0.6225
17518TIP3   OH273968   3.589   3.255   3.308 -0.6286  0.1608 -0.0813
17518TIP3    H173969   3.672   3.302   3.320 -0.3982 -0.1142 -0.5494
17518TIP3    H273970   3.616   3.166   3.282 -1.0762  0.2937 -1.0160
17519TIP3   OH273971   3.249   2.669  11.765  0.0094  0.5446  0.3177
17519TIP3    H173972   3.242   2.634  11.677  1.2288  1.9603 -0.3887
17519TIP3    H273973   3.208   2.603  11.821 -0.4492 -0.5457 -1.2567
17520TIP3   OH273974   5.148   0.117   1.873 -0.0329 -0.2232 -0.4418
17520TIP3    H173975   5.238   0.120   1.841  0.5700 -0.1250  1.1438
17520TIP3    H273976   5.132   0.205   1.907 -0.1730 -0.6369  0.6221
17521TIP3   OH273977   1.126   6.042   5.603  0.4542 -1.1203 -0.3391
17521TIP3    H173978   1.108   5.963   5.552 -3.2612 -1.6896  1.4619
17521TIP3    H273979   1.179   6.096   5.545  2.6973 -4.6101 -1.8895
17522TIP3   OH273980   2.429   2.745   1.969 -0.1902  0.2239 -0.2956
17522TIP3    H173981   2.495   2.676   1.974 -0.2460  0.2129  0.4315
17522TIP3    H273982   2.407   2.764   2.060  0.4182  1.7809 -0.4479
17523TIP3   OH273983   2.119   2.688   6.260 -0.0357  0.1977  0.1261
17523TIP3    H173984   2.056   2.662   6.327  0.3650  0.0236  0.4330
17523TIP3    H273985   2.133   2.781   6.275 -0.0444  0.1873  0.1958
17524TIP3   OH273986   5.326   2.228   0.952 -0.9941  0.1039  0.2649
17524TIP3    H173987   5.397   2.167   0.972 -0.8256  0.6699  1.5000
17524TIP3    H273988   5.370   2.312   0.940 -1.3851  0.3190  0.3365
17525TIP3   OH273989   2.169   2.291   3.418 -0.8605 -0.4430  0.2999
17525TIP3    H173990   2.206   2.319   3.501 -2.6877 -0.7135  1.2625
17525TIP3    H273991   2.215   2.210   3.396  1.3566  0.8889 -0.2539
17526TIP3   OH273992   4.779   1.575  14.890  0.2938  0.1303 -0.0972
17526TIP3    H173993   4.718   1.533  14.829 -0.8717  1.8364 -0.1965
17526TIP3    H273994   4.787   1.513  14.962 -0.7867 -0.5749 -0.5411
17527TIP3   OH273995   0.152   0.307  15.301 -0.8216  0.5476 -0.5748
17527TIP3    H173996   0.117   0.335  15.386 -0.7540  0.2801 -0.4566
17527TIP3    H273997   0.152   0.386  15.248  0.4677  1.0293  0.1139
17528TIP3   OH273998   3.435   3.800   2.889  0.0069 -0.4824  0.8175
17528TIP3    H173999   3.434   3.894   2.873 -2.8710 -0.2577  1.6439
17528TIP3    H274000   3.520   3.783   2.929  0.8247  1.6478  0.1237
17529TIP3   OH274001   0.912   1.469  17.090 -0.2000 -0.4091 -0.2194
17529TIP3    H174002   0.838   1.485  17.149 -0.5909  0.7558 -1.0074
17529TIP3    H274003   0.975   1.420  17.144 -0.2673  1.1637  1.3791
17530TIP3   OH274004   6.615   1.992  12.271 -0.2761 -0.5609  0.1261
17530TIP3    H174005   6.566   1.917  12.305  0.0558 -0.4081  0.9599
17530TIP3    H274006   6.554   2.065  12.277 -0.4573 -0.6714 -0.2945
17531TIP3   OH274007   6.010   0.456   3.023  0.1257 -0.3115 -0.1215
17531TIP3    H174008   5.973   0.539   2.997  1.7515  0.4604 -0.1015
17531TIP3    H274009   5.950   0.390   2.989 -0.3668  0.8173 -1.5005
17532TIP3   OH274010   2.866   2.782   0.307  0.1142 -0.2014 -0.9492
17532TIP3    H174011   2.878   2.871   0.275 -0.9116  0.1429 -0.4432
17532TIP3    H274012   2.777   2.758   0.279 -0.8625  0.1191  1.5385
17533TIP3   OH274013   5.189   2.824  12.143 -0.2394  0.2753 -0.7448
17533TIP3    H174014   5.117   2.815  12.081 -0.7412  0.2304 -0.1578
17533TIP3    H274015   5.263   2.851  12.089 -0.7839  0.6941 -1.2998
17534TIP3   OH274016   2.428   4.682  11.921  0.1574  0.1618  0.2197
17534TIP3    H174017   2.485   4.638  11.984 -1.5687  0.2044  1.9192
17534TIP3    H274018   2.352   4.623  11.913 -0.1775  0.7191 -0.9632
17535TIP3   OH274019   5.801   2.036   3.294 -0.7478  0.4423 -0.1380
17535TIP3    H174020   5.856   2.019   3.370 -1.6189 -0.0399  0.3989
17535TIP3    H274021   5.820   2.127   3.270 -0.7836  0.7422  0.9204
17536TIP3   OH274022   6.026   3.814   2.545 -0.2950 -0.5445 -0.3471
17536TIP3    H174023   5.990   3.772   2.467  1.1006  0.2106 -1.4480
17536TIP3    H274024   6.121   3.812   2.532  0.1170 -2.1777  2.2963
17537TIP3   OH274025   0.583   3.221   4.588  0.3433  0.3108  0.6439
17537TIP3    H174026   0.592   3.307   4.546 -2.1760  0.1849 -0.2979
17537TIP3    H274027   0.624   3.232   4.673  0.9351  2.1619  0.1732
17538TIP3   OH274028   4.025   4.663   4.858 -0.0941 -0.3668 -0.0563
17538TIP3    H174029   4.109   4.653   4.903 -0.1845  0.8165  0.4101
17538TIP3    H274030   4.048   4.677   4.766  0.1833 -0.6906 -0.0393
17539TIP3   OH274031   5.421   4.293  16.080  0.1035  0.0991  0.8414
17539TIP3    H174032   5.332   4.258  16.089  0.3754 -0.9034 -0.1875
17539TIP3    H274033   5.475   4.217  16.060  0.8511  0.9743 -0.6492
17540TIP3   OH274034   3.216   2.178   4.057  0.3286  0.0899  0.0541
17540TIP3    H174035   3.297   2.228   4.066  1.4086 -1.3785 -0.9249
17540TIP3    H274036   3.147   2.239   4.080  1.7870  0.9471  2.5246
17541TIP3   OH274037   1.334   2.000  13.607 -0.6903  0.1568 -0.3706
17541TIP3    H174038   1.355   2.065  13.540  0.8027 -0.2758 -0.3667
17541TIP3    H274039   1.301   2.051  13.680 -1.1453  0.7510 -0.9851
17542TIP3   OH274040   4.023   6.506   2.026  0.5726 -0.3490 -0.0308
17542TIP3    H174041   3.933   6.519   2.054  0.7558 -0.2686  0.5337
17542TIP3    H274042   4.074   6.506   2.107  1.1321  0.0401 -0.3694
17543TIP3   OH274043   3.842   5.144   0.981  0.1339 -0.5336 -0.3138
17543TIP3    H174044   3.897   5.169   1.055 -0.3601 -0.5207  0.0551
17543TIP3    H274045   3.902   5.139   0.907  0.4786  0.4028 -0.1097
17544TIP3   OH274046   6.315   0.959  12.045  0.2024 -0.8311 -0.2890
17544TIP3    H174047   6.262   0.880  12.038  1.3298 -1.4785 -2.7790
17544TIP3    H274048   6.382   0.936  12.110  0.1364 -1.7035 -0.5054
17545TIP3   OH274049   0.227   4.636  13.601  0.2232  0.2246  0.2431
17545TIP3    H174050   0.160   4.672  13.660 -0.4133 -0.7211  0.1088
17545TIP3    H274051   0.245   4.708  13.540 -1.1291  0.2799 -0.1054
17546TIP3   OH274052   4.693   2.143   0.144  0.0537  0.1959 -0.0693
17546TIP3    H174053   4.710   2.076   0.078  0.6872 -0.8546  1.1132
17546TIP3    H274054   4.777   2.157   0.187  0.3933  3.0824 -1.4053
17547TIP3   OH274055   2.079   3.473  13.239  0.0457  0.7983 -0.1653
17547TIP3    H174056   2.004   3.498  13.294  1.0856  1.8224  0.8243
17547TIP3    H274057   2.115   3.396  13.282 -1.5394 -0.8960 -1.7147
17548TIP3   OH274058   5.202   0.021  15.115 -0.0947  0.1837  0.5493
17548TIP3    H174059   5.160   0.065  15.189  0.0395  1.8349 -0.3145
17548TIP3    H274060   5.187   0.080  15.041 -3.4580 -3.0530 -1.6707
17549TIP3   OH274061   2.758   0.156  16.413 -0.6198  0.0965 -0.2935
17549TIP3    H174062   2.841   0.191  16.383  0.1847 -2.0587 -0.7659
17549TIP3    H274063   2.763   0.159  16.508  1.1692 -2.4163 -0.2316
17550TIP3   OH274064   4.108   2.469  15.619  0.2618  1.2057 -0.1503
17550TIP3    H174065   4.072   2.428  15.541  2.9116 -0.5134 -0.5977
17550TIP3    H274066   4.135   2.556  15.590  1.0771  0.6394 -1.1533
17551TIP3   OH274067   2.149   5.323  16.611  0.0674 -0.0552  0.0654
17551TIP3    H174068   2.118   5.266  16.541  1.1238 -2.1242  1.1647
17551TIP3    H274069   2.194   5.395  16.566 -2.7484  0.9138 -1.4159
17552TIP3   OH274070   0.732   6.766  11.099 -0.1113  0.2425 -0.4128
17552TIP3    H174071   0.660   6.784  11.159  0.2223  0.0312  0.0582
17552TIP3    H274072   0.690   6.730  11.021 -0.6075  1.1137 -0.5623
17553TIP3   OH274073   4.491   4.601   6.382  0.9164  0.6366  0.0847
17553TIP3    H174074   4.484   4.510   6.411 -0.3498  0.4201 -0.8119
17553TIP3    H274075   4.579   4.628   6.408  0.6052 -0.1949  2.1846
17554TIP3   OH274076   4.766   3.398   0.007 -0.5652 -0.5711 -0.8867
17554TIP3    H174077   4.703   3.460  -0.028  0.4450  0.3445 -1.1600
17554TIP3    H274078   4.721   3.354   0.079 -0.5819  2.2081  0.9326
17555TIP3   OH274079   0.009   2.201  16.828  0.6773  0.0454  0.3159
17555TIP3    H174080   0.025   2.115  16.866  0.4981 -0.2436 -0.2476
17555TIP3    H274081  -0.082   2.198  16.798  0.6603  0.4392  0.3187
17556TIP3   OH274082   1.182   3.653  14.666 -0.1142 -0.4996 -0.8578
17556TIP3    H174083   1.274   3.658  14.641 -0.0291 -0.1697 -0.4943
17556TIP3    H274084   1.135   3.684  14.589  0.0846 -0.5221 -0.9902
17557TIP3   OH274085   5.022   2.934  13.833  0.0684 -0.2371  0.1340
17557TIP3    H174086   5.002   2.880  13.757 -0.0910  1.6471 -1.2186
17557TIP3    H274087   5.023   3.024  13.800 -1.9741  0.8855  2.7314
17558TIP3   OH274088   2.203   5.429   5.860 -0.2903  0.4643  0.0864
17558TIP3    H174089   2.133   5.494   5.873 -1.7649 -1.2546  1.2724
17558TIP3    H274090   2.156   5.350   5.832  1.5696  0.1936 -2.6224
17559TIP3   OH274091   3.813   6.256   2.062 -0.8763 -0.5787 -0.0021
17559TIP3    H174092   3.740   6.316   2.047 -0.6908  0.5559  2.9173
17559TIP3    H274093   3.807   6.234   2.155  1.8969 -1.2589  0.0959
17560TIP3   OH274094   3.161   3.620  11.213  0.5446  0.6179  0.0370
17560TIP3    H174095   3.105   3.695  11.233  1.3591  1.0905  0.5652
17560TIP3    H274096   3.196   3.639  11.126  2.1700  1.7503  0.8977
17561TIP3   OH274097   2.305   1.858  15.462  0.1382 -0.2454  0.1194
17561TIP3    H174098   2.235   1.888  15.521 -1.7430  0.3093 -2.2568
17561TIP3    H274099   2.338   1.937  15.420 -0.0115 -0.7993 -1.0811
17562TIP3   OH274100   2.379   4.667  14.219  0.7326  0.2930 -0.2718
17562TIP3    H174101   2.381   4.762  14.221 -0.7999  0.3735 -1.0110
17562TIP3    H274102   2.459   4.642  14.172  0.8571  1.2367 -0.5749
17563TIP3   OH274103   4.890   0.609   2.768 -0.1996 -0.0408  0.2837
17563TIP3    H174104   4.944   0.567   2.836  0.2596  0.9550  0.5510
17563TIP3    H274105   4.931   0.584   2.686  0.9201  0.9875  0.4962
17564TIP3   OH274106   0.363   5.963  11.592 -0.0586  0.0117  0.3417
17564TIP3    H174107   0.419   5.984  11.667  1.3599 -2.6385  0.1569
17564TIP3    H274108   0.418   5.981  11.515 -1.5255  2.7875 -0.1934
17565TIP3   OH274109   3.991   4.007   5.278 -0.9307  0.7592  0.2439
17565TIP3    H174110   3.914   4.051   5.313 -0.7506  0.0694  1.5937
17565TIP3    H274111   4.065   4.059   5.311 -0.7094 -0.5365  1.9684
17566TIP3   OH274112   6.356   2.918   4.161 -0.1645 -0.3289  0.2874
17566TIP3    H174113   6.351   2.919   4.257  2.6291 -1.4038  0.5267
17566TIP3    H274114   6.413   2.844   4.141 -2.0638 -1.2217 -2.3526
17567TIP3   OH274115   3.074   2.536  17.024 -0.1203  0.1283  0.1193
17567TIP3    H174116   2.988   2.571  17.045 -0.6715 -1.9059  1.4968
17567TIP3    H274117   3.056   2.455  16.975  1.0971  1.3974 -2.6791
17568TIP3   OH274118   3.303   4.418   2.163  0.3983  0.3836 -0.1283
17568TIP3    H174119   3.373   4.414   2.097 -0.4015 -0.1120 -0.9655
17568TIP3    H274120   3.222   4.413   2.112 -0.2629  1.1133  0.8162
17569TIP3   OH274121   5.798   5.192   5.062 -0.1404 -0.4238  0.4088
17569TIP3    H174122   5.754   5.237   5.134 -0.8468 -1.9211  0.9488
17569TIP3    H274123   5.824   5.108   5.098  1.9501 -0.1628 -0.3132
17570TIP3   OH274124   5.494   5.551  11.568 -0.2176 -0.3728  0.0615
17570TIP3    H174125   5.465   5.634  11.530  1.3814  1.0344  1.7307
17570TIP3    H274126   5.585   5.543  11.542 -0.6982 -2.3431 -1.1852
17571TIP3   OH274127   5.717   0.268   4.511 -0.1755  0.0681 -0.4220
17571TIP3    H174128   5.807   0.254   4.483  0.2280 -0.8281  1.1747
17571TIP3    H274129   5.725   0.315   4.595 -1.1841 -0.0533 -0.2445
17572TIP3   OH274130   5.209   5.449  10.920 -0.3323 -0.0045 -0.2017
17572TIP3    H174131   5.160   5.451  10.838 -0.8567 -1.8729  0.0148
17572TIP3    H274132   5.185   5.531  10.964 -1.3058  0.2779 -1.2007
17573TIP3   OH274133   4.051   1.921  11.601 -0.2353  0.6412 -0.2081
17573TIP3    H174134   4.053   1.830  11.572 -3.6801  0.3557 -0.0465
17573TIP3    H274135   4.070   1.972  11.522 -0.3430 -0.2132 -0.7982
17574TIP3   OH274136   1.804   5.417  11.937  0.3895 -0.1215  0.2067
17574TIP3    H174137   1.778   5.444  12.025  0.4549 -0.3154  0.2865
17574TIP3    H274138   1.898   5.436  11.932  0.2220  0.6632 -0.1102
17575TIP3   OH274139   0.700   4.761  12.810  0.2243 -1.1983 -0.2397
17575TIP3    H174140   0.688   4.710  12.891  0.3435 -2.8418 -1.2230
17575TIP3    H274141   0.629   4.825  12.812 -0.4192 -1.9091  0.6470
17576TIP3   OH274142   6.035   6.543  10.332 -0.0875 -0.3821  0.7488
17576TIP3    H174143   6.100   6.489  10.288  0.1286  0.8591 -0.5121
17576TIP3    H274144   5.980   6.480  10.380  1.1279 -1.5580  0.6409
17577TIP3   OH274145   2.234   3.382  16.673  0.4402  0.1967 -0.7169
17577TIP3    H174146   2.240   3.434  16.753 -0.5034  0.0239 -0.5232
17577TIP3    H274147   2.275   3.298  16.696 -0.1327  0.0219 -0.2955
17578TIP3   OH274148   4.606   3.289   5.280 -0.2179  0.0366 -0.1322
17578TIP3    H174149   4.522   3.315   5.242 -2.0034 -1.7370  2.2494
17578TIP3    H274150   4.657   3.369   5.282 -2.5211  1.6099 -0.1311
17579TIP3   OH274151   1.089   3.806  11.104 -0.0421 -0.1078 -0.7089
17579TIP3    H174152   1.082   3.817  11.198  0.1562 -1.5780 -0.5099
17579TIP3    H274153   1.180   3.780  11.089 -0.7981 -2.8936 -0.9444
17580TIP3   OH274154   4.904   6.664   2.243  0.3677 -0.4098  0.0218
17580TIP3    H174155   4.990   6.700   2.262  0.4101 -0.4829 -0.0316
17580TIP3    H274156   4.916   6.569   2.245  0.2903 -0.4205  0.0061
17581TIP3   OH274157   1.687   0.876   2.161 -0.1864 -0.0574 -1.0399
17581TIP3    H174158   1.713   0.890   2.070  0.7478 -0.8275 -0.9147
17581TIP3    H274159   1.605   0.923   2.171 -0.4290 -0.1782 -2.3575
17582TIP3   OH274160   0.767   5.260  15.702 -0.4631 -0.3565  0.0579
17582TIP3    H174161   0.755   5.228  15.791  1.7846 -1.2110  0.1121
17582TIP3    H274162   0.678   5.273  15.669 -1.3567 -1.0931  2.0265
17583TIP3   OH274163   6.378   0.636  14.712  0.2532 -0.3304  0.5024
17583TIP3    H174164   6.455   0.692  14.708 -0.2200  0.2770 -1.4172
17583TIP3    H274165   6.394   0.568  14.647 -1.4707  0.7597 -1.1927
17584TIP3   OH274166   1.159   4.025  13.570 -0.8067  0.1894  0.5078
17584TIP3    H174167   1.132   4.041  13.661  0.2772 -1.5726  1.1938
17584TIP3    H274168   1.102   3.953  13.541 -0.3873 -0.0088  0.1740
17585TIP3   OH274169   1.680   0.192   4.992 -0.3752  0.2993 -0.2484
17585TIP3    H174170   1.744   0.258   4.965  0.8814 -1.0966 -0.8320
17585TIP3    H274171   1.732   0.123   5.032 -1.3253 -1.4435 -1.8479
17586TIP3   OH274172   3.063   4.084  12.726  0.0657 -0.4829 -0.1234
17586TIP3    H174173   3.155   4.059  12.711 -0.4245 -1.5413 -1.7226
17586TIP3    H274174   3.034   4.118  12.641 -1.4958 -1.8009 -0.1558
17587TIP3   OH274175   3.882   0.497   0.593 -0.3152  0.0789  0.0874
17587TIP3    H174176   3.912   0.416   0.552 -0.2658  0.4815 -0.6942
17587TIP3    H274177   3.787   0.488   0.597 -0.4534  0.5944 -1.3855
17588TIP3   OH274178   6.225   2.238   1.732  0.2598  0.2043  0.1131
17588TIP3    H174179   6.235   2.146   1.706  2.5412  0.1603  0.9334
17588TIP3    H274180   6.146   2.239   1.786  1.4562 -1.7858  2.0636
17589TIP3   OH274181   3.582   1.730   0.746 -0.2440  0.2316  0.5867
17589TIP3    H174182   3.535   1.677   0.682  0.1019  1.5503 -0.8150
17589TIP3    H274183   3.516   1.791   0.780  0.3365  2.0757 -1.3737
17590TIP3   OH274184   0.886   5.440   2.821  0.2925  0.9863 -0.3467
17590TIP3    H174185   0.980   5.429   2.835  0.5634  2.1090 -1.1199
17590TIP3    H274186   0.857   5.496   2.892 -0.2442 -0.9952  1.1002
17591TIP3   OH274187   2.163   6.559  12.858 -0.1053 -0.3381 -0.5574
17591TIP3    H174188   2.095   6.517  12.806 -0.3846  1.7295 -1.9755
17591TIP3    H274189   2.130   6.557  12.947 -1.2020 -0.9124 -0.9526
17592TIP3   OH274190   0.435   6.421  11.758 -0.0610 -0.4493  0.3121
17592TIP3    H174191   0.512   6.377  11.720  0.3585 -0.3598  1.0372
17592TIP3    H274192   0.451   6.514  11.743 -0.1073 -0.4399  0.3229
17593TIP3   OH274193   0.866   3.886   3.574 -0.3230 -0.7070  0.0693
17593TIP3    H174194   0.774   3.897   3.598 -0.2587 -0.9623  0.4368
17593TIP3    H274195   0.891   3.971   3.536  0.4883  1.0217  3.9267
17594TIP3   OH274196   0.770   6.335   5.244  1.4333 -0.3790 -0.1013
17594TIP3    H174197   0.767   6.316   5.338  0.9558 -1.9662 -0.4186
17594TIP3    H274198   0.850   6.292   5.213  1.5936  0.1424 -0.4389
17595TIP3   OH274199   1.649   4.840   1.979  0.1401  0.0589  0.3245
17595TIP3    H174200   1.600   4.778   2.033 -3.2751  0.6120 -1.8591
17595TIP3    H274201   1.701   4.785   1.921  0.7964 -0.5874  1.4781
17596TIP3   OH274202   6.303   6.663   1.080 -0.1984  0.3006 -0.5060
17596TIP3    H174203   6.271   6.699   0.998 -0.0413 -0.8968 -1.1153
17596TIP3    H274204   6.394   6.637   1.061  0.7126  2.3209  0.7773
17597TIP3   OH274205   3.103   5.791  11.202  0.0391 -0.0701  1.2231
17597TIP3    H174206   3.074   5.753  11.120 -0.3060 -0.8184  1.6783
17597TIP3    H274207   3.029   5.780  11.261  0.9555 -1.3290  2.1967
17598TIP3   OH274208   4.116   5.076   1.988 -0.4869 -0.2886 -0.3975
17598TIP3    H174209   4.086   5.013   2.055 -0.3320 -0.6699 -0.6809
17598TIP3    H274210   4.209   5.057   1.978 -0.0353  1.1818  0.7838
17599TIP3   OH274211   5.734   1.786  14.821 -0.1469  0.1392 -0.0563
17599TIP3    H174212   5.649   1.831  14.825 -0.7397 -0.9956  0.5770
17599TIP3    H274213   5.746   1.765  14.729  0.1413  1.5594 -0.3703
17600TIP3   OH274214   4.015   3.948  12.337  1.4990 -0.7427 -0.4168
17600TIP3    H174215   3.962   3.938  12.258  1.5219  0.1819 -0.5579
17600TIP3    H274216   4.102   3.974  12.305  0.8380  2.2756 -0.0286
17601TIP3   OH274217   3.185   3.011   4.628  0.0959 -0.1809 -0.2806
17601TIP3    H174218   3.237   2.967   4.561  1.6772 -1.5029  1.6757
17601TIP3    H274219   3.149   2.939   4.681 -2.2521  0.7753 -0.4812
17602TIP3   OH274220   0.424   2.586  14.869 -0.3175  0.5355  0.4439
17602TIP3    H174221   0.373   2.538  14.804  0.7069  0.6667 -0.4753
17602TIP3    H274222   0.401   2.677  14.855 -0.6100  0.5089  0.7313
17603TIP3   OH274223   2.535   3.453  17.034  0.1130  0.0448 -0.3733
17603TIP3    H174224   2.598   3.483  16.968 -1.2265  0.2140 -1.6080
17603TIP3    H274225   2.588   3.401  17.095  1.3684 -0.2201 -1.6322
17604TIP3   OH274226   0.657   2.854  14.264 -0.6450 -0.2750 -0.0202
17604TIP3    H174227   0.586   2.801  14.301 -0.6032 -0.4416 -0.1731
17604TIP3    H274228   0.717   2.869  14.337 -0.2992 -1.0443 -0.1387
17605TIP3   OH274229   0.027   2.419   0.811  0.6381  0.5865  0.5110
17605TIP3    H174230  -0.007   2.505   0.791  0.2910  0.3545  0.0952
17605TIP3    H274231  -0.031   2.358   0.766  1.7949  0.1932 -0.5121
17606TIP3   OH274232   4.690   6.483   5.818 -0.0243 -0.7589  0.2105
17606TIP3    H174233   4.701   6.400   5.771 -0.6612 -1.8612  1.9305
17606TIP3    H274234   4.779   6.516   5.828  0.3247 -1.6869  0.2889
17607TIP3   OH274235   4.701   3.868   6.057  0.2200 -0.0894  0.1448
17607TIP3    H174236   4.764   3.933   6.089  0.8423 -0.7166  0.2242
17607TIP3    H274237   4.686   3.810   6.131  1.2256 -1.2094 -0.4906
17608TIP3   OH274238   3.090   1.761  11.149  0.2600 -0.2437  0.1379
17608TIP3    H174239   3.143   1.764  11.228  1.3833  1.2591 -0.6156
17608TIP3    H274240   3.030   1.688  11.163  1.0827 -0.6312  1.9404
17609TIP3   OH274241   1.210   0.091  14.514 -0.0919 -0.1565 -0.3324
17609TIP3    H174242   1.170   0.009  14.487  1.2278 -0.3054 -1.9608
17609TIP3    H274243   1.239   0.132  14.433  3.6316 -0.3957  0.6991
17610TIP3   OH274244   3.524   0.127  12.797  0.0743 -0.2070  0.4581
17610TIP3    H174245   3.603   0.096  12.752 -0.4803 -2.6388  1.0097
17610TIP3    H274246   3.537   0.221  12.806  1.5837 -0.0632 -2.0556
17611TIP3   OH274247   0.345   6.454  16.357  0.2456  0.0458 -0.0405
17611TIP3    H174248   0.426   6.480  16.312 -0.0954 -0.9158 -1.2596
17611TIP3    H274249   0.281   6.518  16.326  0.2420  0.0217 -0.0825
17612TIP3   OH274250   3.941   3.238   3.583 -0.3653  0.0252 -0.2443
17612TIP3    H174251   3.912   3.260   3.494 -1.6050  0.1325  0.1651
17612TIP3    H274252   4.035   3.226   3.575  0.1064  3.2808 -0.9673
17613TIP3   OH274253   4.853   5.371  15.611  0.6599 -0.0896  0.7789
17613TIP3    H174254   4.780   5.425  15.583 -0.5423 -1.9521  0.1001
17613TIP3    H274255   4.852   5.376  15.707  1.7934  2.5134  0.7275
17614TIP3   OH274256   5.225   3.469  11.956  0.2513  0.3693  0.0208
17614TIP3    H174257   5.217   3.519  11.875  1.2513 -0.1774 -0.4426
17614TIP3    H274258   5.289   3.401  11.935  2.5918  1.8011  1.9964
17615TIP3   OH274259   4.697   1.065  11.031  1.0331 -0.4552 -0.2750
17615TIP3    H174260   4.755   1.097  11.099  1.5169 -0.3619 -0.7264
17615TIP3    H274261   4.745   1.080  10.949 -0.5665  1.8325 -0.8896
17616TIP3   OH274262   6.300   3.776   2.785  0.0448  0.0160 -0.1712
17616TIP3    H174263   6.381   3.726   2.777  0.0813  0.0703 -0.1435
17616TIP3    H274264   6.309   3.846   2.720  1.2414  1.6716  1.6656
17617TIP3   OH274265   3.503   3.937   2.516 -0.0217 -0.4547 -0.4288
17617TIP3    H174266   3.498   4.032   2.505  1.3201 -0.4812 -1.6298
17617TIP3    H274267   3.588   3.913   2.477  0.4115 -1.9517  1.3099
17618TIP3   OH274268   4.294   5.915   1.561 -0.5090 -0.2960  0.4686
17618TIP3    H174269   4.306   5.856   1.486 -0.3520 -0.1023  0.3403
17618TIP3    H274270   4.202   5.943   1.555  0.4271  2.9223 -2.0563
17619TIP3   OH274271   5.461   4.754   6.668 -0.0016  0.5392  0.4740
17619TIP3    H174272   5.393   4.696   6.705  0.4458  0.0918  0.6085
17619TIP3    H274273   5.542   4.726   6.712  0.1652  1.5053  0.7977
17620TIP3   OH274274   3.041   4.452   0.004  0.2935  0.2209 -0.3278
17620TIP3    H174275   2.989   4.375   0.026  0.1395  0.3520 -0.2259
17620TIP3    H274276   3.021   4.469  -0.088 -0.6556  0.8806 -0.0190
17621TIP3   OH274277   4.112   3.942   3.537 -0.3081 -0.0369  0.1591
17621TIP3    H174278   4.026   3.917   3.572 -1.0495  1.3064 -0.6172
17621TIP3    H274279   4.147   4.003   3.602  0.1071 -0.6486  0.5163
17622TIP3   OH274280   3.992   4.444  13.931 -0.1130 -0.1021  0.5215
17622TIP3    H174281   3.959   4.378  13.991 -3.1544  1.0358  0.2964
17622TIP3    H274282   3.971   4.528  13.973 -1.8309  0.7174 -1.7476
17623TIP3   OH274283   5.616   6.405   2.663 -0.0070 -0.2138  0.1375
17623TIP3    H174284   5.540   6.365   2.704 -2.2186  0.8320 -2.5675
17623TIP3    H274285   5.602   6.499   2.671  0.4742  0.0052 -1.2357
17624TIP3   OH274286   0.831   6.023   3.493 -0.2121  0.2571  0.1494
17624TIP3    H174287   0.878   5.974   3.560 -0.4844 -0.3339 -0.0820
17624TIP3    H274288   0.761   6.068   3.540  0.5870  1.1582  0.4991
17625TIP3   OH274289   0.927   4.959   1.389 -0.3172 -0.0522 -0.2072
17625TIP3    H174290   0.962   4.968   1.478 -0.9909 -0.3478  0.0928
17625TIP3    H274291   0.902   5.048   1.364  1.4514  0.3163 -0.7716
17626TIP3   OH274292   5.018   3.084   1.751  0.0573  0.0254  0.3528
17626TIP3    H174293   5.030   3.079   1.656 -0.0001  1.1787  0.2694
17626TIP3    H274294   4.992   3.175   1.767  2.6369  0.6003  1.7712
17627TIP3   OH274295   1.520   5.156  17.006 -0.1404 -0.1819  0.5262
17627TIP3    H174296   1.453   5.099  17.045 -0.5058 -0.7577 -0.8866
17627TIP3    H274297   1.601   5.106  17.015 -0.1142 -0.0560  1.0486
17628TIP3   OH274298   5.250   0.806  10.601 -0.0824 -0.0956 -0.0980
17628TIP3    H174299   5.293   0.892  10.593  0.8377 -0.4173  1.1158
17628TIP3    H274300   5.157   0.824  10.586 -0.2494  1.5325  2.4134
17629TIP3   OH274301   4.360   5.820  14.054  0.4768 -0.0847  0.0329
17629TIP3    H174302   4.429   5.769  14.097 -1.5882 -3.0893  0.0725
17629TIP3    H274303   4.387   5.825  13.962  1.7587  0.7335  0.4241
17630TIP3   OH274304   4.164   2.921   1.068  0.1604 -0.0259  0.5246
17630TIP3    H174305   4.149   3.016   1.069  0.8782  0.0928  0.7849
17630TIP3    H274306   4.133   2.892   1.154 -1.3526 -0.2555 -0.0647
17631TIP3   OH274307   4.642   6.582  13.813 -0.6588  0.1242 -0.0257
17631TIP3    H174308   4.660   6.666  13.857  0.6688 -1.1820  2.1318
17631TIP3    H274309   4.627   6.520  13.885 -3.1313 -1.2366 -1.5785
17632TIP3   OH274310   2.330   2.890   5.074 -0.3469  0.5950  0.3191
17632TIP3    H174311   2.351   2.843   4.993  2.4539  2.7823 -0.3887
17632TIP3    H274312   2.344   2.825   5.143  1.4148 -0.2249 -0.7328
17633TIP3   OH274313   5.316   2.885   5.901  0.3674 -0.2091  0.1052
17633TIP3    H174314   5.331   2.974   5.933  2.2559 -0.5861  0.3335
17633TIP3    H274315   5.273   2.840   5.974 -2.0213  0.8700 -0.5356
17634TIP3   OH274316   3.252   3.815   2.537 -0.0014  0.8760 -0.4201
17634TIP3    H174317   3.224   3.788   2.450  0.0730  2.0658 -0.8304
17634TIP3    H274318   3.336   3.860   2.523  0.6115  0.0494  0.4133
17635TIP3   OH274319   4.826   4.407   2.523  0.4127 -0.1619  0.0623
17635TIP3    H174320   4.820   4.500   2.543 -0.3974 -0.2855  0.4027
17635TIP3    H274321   4.743   4.385   2.481  0.1540 -0.9584  0.9608
17636TIP3   OH274322   6.050   6.699   2.787 -0.2524  0.5087  0.2601
17636TIP3    H174323   6.123   6.656   2.831 -1.0460 -0.9153  0.2465
17636TIP3    H274324   5.986   6.630   2.772 -0.2062  0.9524 -2.7864
17637TIP3   OH274325   3.331   6.307  16.438 -0.9366  0.3124  0.1332
17637TIP3    H174326   3.273   6.352  16.500 -2.5642 -0.0738 -1.0398
17637TIP3    H274327   3.291   6.221  16.425  0.1762 -0.1530 -0.3462
17638TIP3   OH274328   2.531   6.242  12.688 -0.2216  0.2546 -0.0576
17638TIP3    H174329   2.560   6.197  12.609 -1.5281  0.0645 -0.4456
17638TIP3    H274330   2.439   6.263  12.672 -0.5284  0.1739  1.4331
17639TIP3   OH274331   6.527   0.817  11.358 -0.2585 -0.3882  0.0544
17639TIP3    H174332   6.570   0.854  11.281 -0.6833 -2.0543 -1.0490
17639TIP3    H274333   6.461   0.882  11.383  1.6923  1.4271  0.7402
17640TIP3   OH274334   5.198   6.699   3.762 -0.4436 -0.1177  0.6571
17640TIP3    H174335   5.173   6.790   3.776 -0.6383 -0.0646 -0.0072
17640TIP3    H274336   5.193   6.659   3.849  0.1204  0.6169  1.0397
17641TIP3   OH274337   5.596   3.155   2.539 -0.0653 -0.0491 -0.1687
17641TIP3    H174338   5.521   3.214   2.545  1.1672  1.5573  0.3255
17641TIP3    H274339   5.618   3.152   2.446 -0.0559  0.3951 -0.1809
17642TIP3   OH274340   3.662   0.573  11.564  0.6987  0.3162 -0.1123
17642TIP3    H174341   3.634   0.488  11.530  0.8335  0.1723  0.1290
17642TIP3    H274342   3.757   0.571  11.557  0.6975  0.4810 -0.1808
17643TIP3   OH274343   4.945   3.337   5.821 -0.0541 -0.6615 -0.2090
17643TIP3    H174344   4.994   3.291   5.889 -0.5382  0.4846  0.9712
17643TIP3    H274345   4.971   3.429   5.832 -1.0909 -0.2908 -0.7517
17644TIP3   OH274346   2.070   1.592  12.579  0.1694  0.1034  0.8443
17644TIP3    H174347   2.013   1.595  12.656 -0.5717 -0.0632  0.3227
17644TIP3    H274348   2.063   1.680  12.541  0.2357  0.0766  0.7697
17645TIP3   OH274349   2.181   1.315  12.718  0.1610  0.2700  0.3619
17645TIP3    H174350   2.180   1.404  12.684 -0.8555  0.2596  0.3504
17645TIP3    H274351   2.090   1.296  12.741  0.4092 -0.6592  0.6396
17646TIP3   OH274352   2.796   6.593  13.965  0.2522 -0.9376  0.2010
17646TIP3    H174353   2.864   6.660  13.961 -1.0169  0.4917  1.4535
17646TIP3    H274354   2.803   6.556  14.053 -0.1917 -1.2025  0.1287
17647TIP3   OH274355   3.470   6.351  15.152  0.4609 -0.4465 -0.2171
17647TIP3    H174356   3.455   6.357  15.058 -2.0179 -0.2727  0.1219
17647TIP3    H274357   3.504   6.263  15.166  0.5956 -0.5668 -1.2418
17648TIP3   OH274358   3.479   0.316  12.317 -0.3040  0.1293 -0.3376
17648TIP3    H174359   3.499   0.380  12.385 -2.0387  0.8874 -0.5020
17648TIP3    H274360   3.518   0.235  12.349  1.2373  1.0659  0.2557
17649TIP3   OH274361   1.822   0.411   3.057 -0.2762 -0.1090  0.1837
17649TIP3    H174362   1.917   0.402   3.048 -0.3902 -1.4828  0.1386
17649TIP3    H274363   1.789   0.402   2.967 -0.4383  0.6021  0.1684
17650TIP3   OH274364   1.292   4.198   1.245  0.3406 -0.1866  0.1705
17650TIP3    H174365   1.268   4.107   1.233 -0.6156  0.1997 -1.0298
17650TIP3    H274366   1.364   4.196   1.307 -0.0668 -1.7076  0.6328
17651TIP3   OH274367   0.180   0.123   0.154  0.4076  0.3201 -0.1534
17651TIP3    H174368   0.162   0.129   0.061 -0.2993 -2.5573 -0.2930
17651TIP3    H274369   0.094   0.123   0.196  0.7019  1.2094  0.4921
17652TIP3   OH274370   6.041   2.812  12.437  0.4572  0.3298  0.4209
17652TIP3    H174371   5.955   2.771  12.427 -0.2452  1.5699  1.1253
17652TIP3    H274372   6.050   2.867  12.360 -0.3985  1.9187  1.4058
17653TIP3   OH274373   5.999   5.589  13.111  0.1247  0.2310  0.2259
17653TIP3    H174374   6.063   5.519  13.099  0.8930  1.0095 -0.3127
17653TIP3    H274375   5.920   5.557  13.067  1.1416  0.6008 -2.0090
17654TIP3   OH274376   4.144   4.661   0.392 -0.3267 -0.1023 -0.0543
17654TIP3    H174377   4.187   4.635   0.473  1.2656  0.8287 -0.5430
17654TIP3    H274378   4.056   4.622   0.397  0.1186 -0.9869  1.5840
17655TIP3   OH274379   6.348   4.748   0.813  0.3721 -0.7291 -0.2527
17655TIP3    H174380   6.361   4.732   0.906  1.2423 -0.5150 -0.3322
17655TIP3    H274381   6.259   4.783   0.807  0.0315 -1.4624  0.4051
17656TIP3   OH274382   1.462   0.429   4.813  0.1201  0.3917  0.4228
17656TIP3    H174383   1.420   0.512   4.792  0.0785  0.5863  1.2304
17656TIP3    H274384   1.544   0.431   4.765  0.0485  0.8381  0.3143
17657TIP3   OH274385   3.873   2.102  16.608  0.4712 -0.1336 -0.4469
17657TIP3    H174386   3.821   2.166  16.656 -1.0269  0.1717 -2.3526
17657TIP3    H274387   3.921   2.154  16.544  1.8670 -0.6072  0.1765
17658TIP3   OH274388   3.714   1.531  11.526  0.5659 -0.5796  0.1498
17658TIP3    H174389   3.706   1.527  11.430  0.1874 -1.8042  0.2176
17658TIP3    H274390   3.807   1.545  11.541  0.3464  2.0997 -0.4183
17659TIP3   OH274391   2.160   0.337   2.676 -0.5907 -0.0364 -0.1414
17659TIP3    H174392   2.075   0.311   2.641 -0.1302 -1.6898 -0.1205
17659TIP3    H274393   2.222   0.320   2.605 -0.0519 -0.5675  0.4356
17660TIP3   OH274394   4.389   5.305  12.383  0.0585 -0.3742  0.3287
17660TIP3    H174395   4.335   5.345  12.314  0.7311  1.2957  0.7153
17660TIP3    H274396   4.475   5.294  12.342  0.0682 -0.7541  0.4533
17661TIP3   OH274397   3.943   4.150   4.150 -0.2069  0.2721  0.2405
17661TIP3    H174398   3.900   4.209   4.212  0.7836  0.9119  0.3377
17661TIP3    H274399   3.953   4.201   4.070 -0.3960 -0.1523 -0.0587
17662TIP3   OH274400   5.254   5.526   0.990  0.5019  0.2514  0.1844
17662TIP3    H174401   5.278   5.434   0.976  1.3307  0.3826  0.7009
17662TIP3    H274402   5.188   5.523   1.059 -1.8948 -0.2036 -1.9570
17663TIP3   OH274403   2.193   2.693   4.601 -0.0950  0.5215 -0.5469
17663TIP3    H174404   2.137   2.649   4.538 -0.3507  0.4014 -0.2351
17663TIP3    H274405   2.135   2.715   4.674  0.1872  0.7070 -0.3758
17664TIP3   OH274406   2.935   0.170   4.832  0.0555 -0.7400 -0.0885
17664TIP3    H174407   2.958   0.263   4.822  0.4932 -0.9832 -1.6111
17664TIP3    H274408   2.996   0.137   4.898 -0.8353  0.2862  1.2971
17665TIP3   OH274409   2.738   3.907   3.632 -0.5724  0.8132  0.6882
17665TIP3    H174410   2.829   3.936   3.626 -1.1977  2.7629 -0.0084
17665TIP3    H274411   2.714   3.923   3.723 -0.2429  0.3107  0.8691
17666TIP3   OH274412   3.453   4.592   1.448  0.2614  0.5653  0.1351
17666TIP3    H174413   3.381   4.576   1.508  0.7052 -0.1906  0.4681
17666TIP3    H274414   3.433   4.677   1.408 -0.6402  0.5064  0.4639
17667TIP3   OH274415   0.136   5.858   2.567 -0.0718  0.0923  0.7691
17667TIP3    H174416   0.120   5.767   2.542  1.5315 -0.2636  0.8951
17667TIP3    H274417   0.111   5.863   2.659  2.1802 -0.9463  1.5182
17668TIP3   OH274418   6.108   2.887  13.814  0.0469  0.2173 -0.3584
17668TIP3    H174419   6.077   2.976  13.799  1.4636  0.4091 -2.4824
17668TIP3    H274420   6.031   2.839  13.842 -0.9623  1.8626 -0.1929
17669TIP3   OH274421   3.783   2.709   4.453 -0.2831  0.2243 -0.4721
17669TIP3    H174422   3.825   2.746   4.375 -1.8504  0.3934 -1.2683
17669TIP3    H274423   3.794   2.777   4.520  2.2262 -0.4424 -0.0806
17670TIP3   OH274424   1.347   1.662  12.400  0.0386 -0.3096  0.2899
17670TIP3    H174425   1.314   1.751  12.390  0.6745 -0.0184  0.6850
17670TIP3    H274426   1.270   1.609  12.422 -0.9870 -0.5004 -3.1128
17671TIP3   OH274427   2.237   2.434   4.227 -0.4499 -0.0768 -0.0315
17671TIP3    H174428   2.282   2.446   4.143 -0.4990 -0.3682 -0.1007
17671TIP3    H274429   2.305   2.402   4.286 -1.3025 -4.7161 -1.1637
17672TIP3   OH274430   3.795   2.637  11.309  0.1253  0.6399 -0.0390
17672TIP3    H174431   3.842   2.566  11.352 -1.7384 -0.6375 -0.0382
17672TIP3    H274432   3.863   2.685  11.262  1.2423 -2.1091 -1.4222
17673TIP3   OH274433   4.745   5.117   2.688 -0.1679  0.2752  0.4546
17673TIP3    H174434   4.727   5.063   2.765 -1.3740  0.4260  0.2840
17673TIP3    H274435   4.804   5.062   2.635  2.5048  1.0073  2.4283
17674TIP3   OH274436   3.100   0.074   5.093 -0.1670 -0.1447  0.5084
17674TIP3    H174437   3.194   0.089   5.079 -0.4434 -0.7698 -2.8371
17674TIP3    H274438   3.090  -0.021   5.091 -0.9082 -0.0754  0.6138
17675TIP3   OH274439   5.309   0.691  16.074 -0.2110  0.3315 -0.3138
17675TIP3    H174440   5.288   0.647  16.156 -0.2003  0.3476 -0.3025
17675TIP3    H274441   5.393   0.734  16.090  0.1409 -0.2548 -0.5639
17676TIP3   OH274442   4.243   2.433  15.059 -0.2847  0.1912  0.0691
17676TIP3    H174443   4.157   2.390  15.066 -0.0187 -0.5212 -0.8666
17676TIP3    H274444   4.266   2.426  14.967 -0.3068  2.5604 -0.1651
17677TIP3   OH274445   3.576   0.915   1.701 -0.3667 -0.0053 -0.7086
17677TIP3    H174446   3.493   0.916   1.749 -0.1307 -1.1511 -0.2424
17677TIP3    H274447   3.640   0.948   1.764 -0.2882 -0.1936 -0.6882
17678TIP3   OH274448   4.767   2.199   1.045 -0.2238  0.1258  0.3989
17678TIP3    H174449   4.737   2.134   1.109 -2.0798 -0.4013 -0.9424
17678TIP3    H274450   4.849   2.232   1.082  1.4174 -3.7189  0.6528
17679TIP3   OH274451   5.571   4.634   1.000 -0.0848 -0.2450  0.2792
17679TIP3    H174452   5.635   4.586   0.947 -0.2128  0.3525 -0.4313
17679TIP3    H274453   5.486   4.596   0.975  0.0381 -1.7991  2.0220
17680TIP3   OH274454   0.313   3.456   1.129  0.4848 -0.3123 -0.1031
17680TIP3    H174455   0.319   3.551   1.135  1.0605  0.1470 -4.6219
17680TIP3    H274456   0.403   3.427   1.118  0.1370 -1.0617 -1.1218
17681TIP3   OH274457   0.740   0.811  13.119 -0.7634  0.1072  0.5968
17681TIP3    H174458   0.673   0.838  13.056 -1.3757  1.2211  1.6861
17681TIP3    H274459   0.822   0.815  13.070 -1.2530  0.7289 -0.1912
17682TIP3   OH274460   5.728   6.110  12.558  0.2668 -0.1580 -0.3626
17682TIP3    H174461   5.733   6.139  12.467  0.0953  0.5178 -0.1595
17682TIP3    H274462   5.668   6.035  12.556  0.3719 -0.2285 -0.8286
17683TIP3   OH274463   3.241   1.120  12.507 -0.0805 -0.0900  0.1427
17683TIP3    H174464   3.221   1.029  12.529  0.2157 -0.0888  0.4264
17683TIP3    H274465   3.314   1.142  12.564 -1.0542  0.7723  1.1039
17684TIP3   OH274466   4.604   4.846   1.621  0.2576  0.3531 -0.0765
17684TIP3    H174467   4.636   4.816   1.536 -0.9089  1.6585 -1.0215
17684TIP3    H274468   4.557   4.770   1.656 -0.0637  0.0900 -1.0367
17685TIP3   OH274469   6.620   3.208  14.166 -0.1446 -0.1321  0.3887
17685TIP3    H174470   6.638   3.251  14.249  0.6471  0.5949 -0.1529
17685TIP3    H274471   6.538   3.247  14.136  0.5961  1.0707 -0.1301
17686TIP3   OH274472   1.564   2.637   1.064  0.0933  0.0230 -0.6122
17686TIP3    H174473   1.610   2.707   1.017 -0.7524  0.3915 -0.9259
17686TIP3    H274474   1.486   2.620   1.011 -0.7287  0.2380  0.4895
17687TIP3   OH274475   5.004   0.653  10.646 -0.1156 -0.0435 -0.4036
17687TIP3    H174476   5.039   0.584  10.703  1.8422 -1.1078 -2.7030
17687TIP3    H274477   4.980   0.724  10.705  1.0292 -1.3815  1.7827
17688TIP3   OH274478   5.907   6.365  15.031 -0.3720 -0.5287  0.3404
17688TIP3    H174479   5.946   6.277  15.030 -1.0904 -0.9048 -2.0740
17688TIP3    H274480   5.884   6.382  14.939 -2.3227  1.2605  1.0681
17689TIP3   OH274481   0.525   2.985   5.300 -0.1084 -0.4226 -0.7163
17689TIP3    H174482   0.577   3.003   5.222 -0.3516 -0.7895 -0.9698
17689TIP3    H274483   0.554   2.898   5.328  0.9208  0.2524  0.3797
17690TIP3   OH274484   4.473   2.241   5.487  0.4590  0.2182 -0.0029
17690TIP3    H174485   4.382   2.250   5.515  0.2591 -0.7164 -0.3074
17690TIP3    H274486   4.504   2.331   5.475 -0.7582  0.5296 -0.9465
17691TIP3   OH274487   5.717   1.906  12.125 -0.0225  0.8232  0.1050
17691TIP3    H174488   5.724   1.997  12.099 -1.3493  1.1815  0.8963
17691TIP3    H274489   5.623   1.886  12.117  0.3925 -0.8501 -1.2553
17692TIP3   OH274490   4.179   6.531  10.635  0.0680 -0.6219 -0.2088
17692TIP3    H174491   4.225   6.512  10.553 -0.1047 -1.2299 -0.1690
17692TIP3    H274492   4.248   6.561  10.694  0.4142 -1.4644 -0.1724
17693TIP3   OH274493   1.503   4.323  16.559  0.0942 -0.3343 -0.1194
17693TIP3    H174494   1.515   4.228  16.561  0.2146 -0.3418 -0.8045
17693TIP3    H274495   1.587   4.359  16.586  0.2993 -0.4226 -0.6228
17694TIP3   OH274496   0.928   5.731   4.887 -0.8292 -0.6122 -0.5740
17694TIP3    H174497   0.983   5.806   4.911 -1.5870 -0.0783 -0.4603
17694TIP3    H274498   0.899   5.751   4.798  1.0639 -2.0461 -1.5891
17695TIP3   OH274499   5.393   3.418  15.458 -0.0042  0.3654  0.4204
17695TIP3    H174500   5.337   3.383  15.527 -0.7228  1.7648  0.5833
17695TIP3    H274501   5.477   3.434  15.502  0.3455 -1.1216  0.3339
17696TIP3   OH274502   2.754   4.375  15.722 -0.4827  0.2534  0.1088
17696TIP3    H174503   2.845   4.346  15.720  0.1951  2.2627 -0.9798
17696TIP3    H274504   2.724   4.354  15.810  0.6125 -1.5829  0.0865
17697TIP3   OH274505   0.065   4.794  11.393  0.2191 -0.4842 -0.1369
17697TIP3    H174506   0.041   4.809  11.301  0.9655  2.2260  0.0079
17697TIP3    H274507  -0.019   4.794  11.439 -0.0688 -0.0179 -0.6406
17698TIP3   OH274508   2.187   3.089   4.013  0.6694 -0.1973  0.6213
17698TIP3    H174509   2.110   3.135   4.047  0.4150 -0.6684  0.6887
17698TIP3    H274510   2.152   3.025   3.951  1.0926  0.3442 -0.2081
17699TIP3   OH274511   6.067   4.618   4.538  0.9790  0.2700  0.1300
17699TIP3    H174512   6.114   4.596   4.458  0.6072 -0.2500  0.0512
17699TIP3    H274513   6.024   4.537   4.564  1.8400  0.1780  1.3580
17700TIP3   OH274514   4.943   0.403  15.781 -0.2594  0.1505  0.1449
17700TIP3    H174515   4.961   0.453  15.702  0.2142 -1.5953 -0.8995
17700TIP3    H274516   4.857   0.363  15.765  0.1853 -0.8382  0.1605
17701TIP3   OH274517   1.766   5.205   5.033  0.8894 -0.2796  0.7495
17701TIP3    H174518   1.813   5.276   4.991  1.2774 -0.0302  1.5808
17701TIP3    H274519   1.751   5.235   5.123 -0.6425 -0.4585  0.5796
17702TIP3   OH274520   1.139   0.405   4.096  0.1503  0.3092  0.2523
17702TIP3    H174521   1.109   0.495   4.101 -1.8522 -0.3138  0.3485
17702TIP3    H274522   1.231   0.408   4.123 -0.4080  2.0515  2.1954
17703TIP3   OH274523   0.337   3.117   4.687  0.5625 -0.2657  0.0880
17703TIP3    H174524   0.387   3.164   4.620 -0.5314  0.8408  0.0131
17703TIP3    H274525   0.392   3.042   4.710  1.8821  0.4691 -0.5578
17704TIP3   OH274526   6.278   6.748  13.537  0.0516 -0.0724 -0.7128
17704TIP3    H174527   6.247   6.747  13.628 -0.1718  1.5245 -0.7477
17704TIP3    H274528   6.213   6.800  13.490 -0.4129 -1.7626 -2.0413
17705TIP3   OH274529   3.168   0.065  13.225  0.4196 -0.3200 -0.5401
17705TIP3    H174530   3.077   0.086  13.246  0.1773 -0.4663 -1.4047
17705TIP3    H274531   3.188   0.118  13.147  1.0349 -0.3790 -0.4277
17706TIP3   OH274532   3.151   4.740   3.563 -0.1667  0.0588 -0.5632
17706TIP3    H174533   3.119   4.825   3.533 -0.8101  0.3027  0.7312
17706TIP3    H274534   3.092   4.677   3.521  0.1176  0.2581 -1.2799
17707TIP3   OH274535   5.162   2.580  13.087  0.3989 -0.5037  0.2686
17707TIP3    H174536   5.180   2.672  13.070 -0.3022 -0.5233 -0.6114
17707TIP3    H274537   5.085   2.559  13.033  0.0614 -1.3950  1.0621
17708TIP3   OH274538   6.243   1.432  16.226  0.1569 -0.1716  0.1956
17708TIP3    H174539   6.275   1.520  16.210 -1.8309  0.3557 -1.2850
17708TIP3    H274540   6.188   1.440  16.304  0.0567 -0.1216  0.1193
17709TIP3   OH274541   6.235   0.857  15.161 -0.1340  0.4130  0.0080
17709TIP3    H174542   6.228   0.837  15.068 -0.4707  0.6726 -0.0237
17709TIP3    H274543   6.314   0.910  15.169  1.7447 -2.2493  0.3153
17710TIP3   OH274544   5.636   6.740   2.098 -0.5809 -0.2305 -0.6136
17710TIP3    H174545   5.567   6.734   2.032 -1.2115  0.5074 -0.0481
17710TIP3    H274546   5.717   6.751   2.049 -1.0317  0.2268 -1.2677
17711TIP3   OH274547   5.978   1.406  13.026  0.4218  0.5558  0.5035
17711TIP3    H174548   5.886   1.428  13.014  0.4288 -0.2981 -1.5127
17711TIP3    H274549   6.025   1.487  13.007  0.1110  1.0939  1.8950
17712TIP3   OH274550   4.623   3.354  12.640 -0.5589 -0.1025 -0.3978
17712TIP3    H174551   4.529   3.355  12.620 -0.3395  0.9399 -1.4752
17712TIP3    H274552   4.646   3.446  12.651  0.2760 -0.3716  0.1995
17713TIP3   OH274553   6.118   2.378   5.853  0.6542 -0.5184 -0.4300
17713TIP3    H174554   6.210   2.350   5.855  0.9836  0.5000  1.5414
17713TIP3    H274555   6.113   2.440   5.781  1.5817 -0.4186 -0.4239
17714TIP3   OH274556   4.358   1.724  15.583  0.8856  0.0456  0.7472
17714TIP3    H174557   4.341   1.818  15.587 -0.1944 -0.0032 -1.3028
17714TIP3    H274558   4.377   1.707  15.491  1.6857 -1.6642  1.1917
17715TIP3   OH274559   0.037   1.419  13.756 -0.3679 -0.4553  0.4750
17715TIP3    H174560   0.007   1.505  13.726 -0.7980 -0.7410  0.0713
17715TIP3    H274561   0.041   1.366  13.676 -0.7816 -1.0064  0.8154
17716TIP3   OH274562   5.581   3.051   3.414  0.2972  0.2801 -0.0421
17716TIP3    H174563   5.587   2.974   3.356  0.0371 -0.5346  0.9851
17716TIP3    H274564   5.540   3.118   3.359  0.0823 -0.4614 -0.8201
17717TIP3   OH274565   0.413   0.124   5.374  0.0408 -0.1084  0.2285
17717TIP3    H174566   0.391   0.031   5.376 -2.7807  0.4738  1.6120
17717TIP3    H274567   0.503   0.127   5.341  0.7268 -3.3825  1.4305
17718TIP3   OH274568   3.382   5.050  15.050 -0.2830 -0.3782  0.0947
17718TIP3    H174569   3.340   5.016  14.971 -1.0243 -0.4319  0.5058
17718TIP3    H274570   3.475   5.052  15.029 -0.5740  0.7268 -1.2195
17719TIP3   OH274571   2.351   1.854   5.823  0.3197  0.1674 -0.0482
17719TIP3    H174572   2.413   1.812   5.762  0.2084  1.6728 -1.2619
17719TIP3    H274573   2.337   1.941   5.786  0.5485  1.2983  2.3801
17720TIP3   OH274574   2.283   5.866  10.906 -0.2429  0.0731 -0.2536
17720TIP3    H174575   2.351   5.920  10.865  0.0781 -0.3328 -0.2653
17720TIP3    H274576   2.205   5.923  10.908  0.6299  1.3143  1.6640
17721TIP3   OH274577   2.005   6.004   3.232 -0.2176  0.0194  0.4032
17721TIP3    H174578   2.000   5.919   3.190  1.2897 -0.2673  0.7709
17721TIP3    H274579   1.983   5.987   3.324  0.6301 -0.0819  0.5937
17722TIP3   OH274580   1.849   3.357  14.115 -0.0835 -0.7037  0.0153
17722TIP3    H174581   1.893   3.403  14.187 -0.0464 -0.9397  0.1432
17722TIP3    H274582   1.767   3.404  14.103  0.1814 -0.2879 -0.1933
17723TIP3   OH274583   2.673   2.945  13.775 -0.2238 -0.0537  0.0386
17723TIP3    H174584   2.680   2.888  13.699  0.3817 -0.8297  0.6593
17723TIP3    H274585   2.650   3.031  13.739  1.3859 -0.0774 -1.1635
17724TIP3   OH274586   0.068   1.866  16.190 -0.3540  0.5721  0.1862
17724TIP3    H174587  -0.003   1.898  16.245 -0.2747  0.7839  0.1663
17724TIP3    H274588   0.094   1.783  16.229 -0.9042  0.2765 -0.0646
17725TIP3   OH274589   2.402   3.639  14.009 -0.2633 -0.2732 -0.0527
17725TIP3    H174590   2.356   3.655  14.091  0.4962  0.7044  0.1947
17725TIP3    H274591   2.335   3.602  13.951 -1.4938  1.5162  0.1464
17726TIP3   OH274592   3.231   5.785  16.395  0.6036 -0.7189  0.1922
17726TIP3    H174593   3.185   5.718  16.344  0.7055  1.1802 -2.5733
17726TIP3    H274594   3.323   5.766  16.381  0.6332 -0.4346 -0.0019
17727TIP3   OH274595   6.026   2.811  11.847 -0.0039  0.1479 -0.1606
17727TIP3    H174596   6.051   2.900  11.871  0.3683  0.0009  0.0001
17727TIP3    H274597   5.946   2.794  11.897 -0.0429  0.3671 -0.1477
17728TIP3   OH274598   4.465   3.626  14.962 -0.1847  0.1425 -0.1883
17728TIP3    H174599   4.380   3.627  15.007 -1.1278  0.5894 -1.8845
17728TIP3    H274600   4.457   3.692  14.893  0.4538 -1.7935 -2.2731
17729TIP3   OH274601   0.851   3.662  12.443 -0.1224 -0.2056 -0.1822
17729TIP3    H174602   0.946   3.670  12.442 -0.2285  1.7128  0.4736
17729TIP3    H274603   0.834   3.568  12.445  1.7563 -0.5637  0.0879
17730TIP3   OH274604   6.278   0.480   3.048 -0.4554  0.6312 -0.0953
17730TIP3    H174605   6.188   0.450   3.057 -0.1427 -0.7016 -1.1980
17730TIP3    H274606   6.288   0.498   2.955  0.4417  0.7284  0.0109
17731TIP3   OH274607   1.614   1.299   0.760 -0.5464 -0.1200 -0.1472
17731TIP3    H174608   1.591   1.357   0.832 -0.1092 -0.7250  0.4918
17731TIP3    H274609   1.562   1.220   0.774 -0.6013 -0.1713 -0.6041
17732TIP3   OH274610   0.627   6.034   3.818  0.2459  0.0272  0.0118
17732TIP3    H174611   0.642   6.118   3.775 -0.2477 -0.5088 -1.2310
17732TIP3    H274612   0.578   5.983   3.755 -0.1306 -0.9380  1.0603
17733TIP3   OH274613   3.168   4.165  13.532  0.2854  0.0900 -0.0284
17733TIP3    H174614   3.209   4.184  13.448 -1.0398 -0.2343 -0.7699
17733TIP3    H274615   3.207   4.082  13.559  0.7525  0.2190 -0.2938
17734TIP3   OH274616   0.739   1.883   1.665  0.2349  0.4234 -0.1422
17734TIP3    H174617   0.686   1.869   1.587 -0.0007 -1.1248  0.2647
17734TIP3    H274618   0.681   1.930   1.725 -0.2724 -0.1486 -0.1714
17735TIP3   OH274619   5.762   4.973  11.804 -0.5984 -0.0982 -0.2785
17735TIP3    H174620   5.775   4.880  11.825 -1.8199 -0.2073  0.0926
17735TIP3    H274621   5.811   4.986  11.723  1.1115 -0.6009  0.6358
17736TIP3   OH274622   6.809   0.531   1.985  0.2921  0.2694 -0.1517
17736TIP3    H174623   6.726   0.572   2.005  0.3620 -0.4842  2.0012
17736TIP3    H274624   6.875   0.596   2.010  0.4074  1.0733 -2.3485
17737TIP3   OH274625   3.401   4.622  14.466  0.4009 -0.0126  0.5174
17737TIP3    H174626   3.444   4.598  14.548  1.9706 -0.7815 -0.4834
17737TIP3    H274627   3.361   4.541  14.435 -1.7635  0.6738  1.3853
17738TIP3   OH274628   0.146   6.243  13.620 -0.1910 -0.2825  0.2047
17738TIP3    H174629   0.099   6.228  13.702 -0.6685  1.1310  0.2090
17738TIP3    H274630   0.082   6.225  13.552  0.4599 -2.3506  0.0753
17739TIP3   OH274631   3.592   3.535  12.857  0.5217 -0.3067 -0.2301
17739TIP3    H174632   3.642   3.571  12.931 -0.0886  0.4224 -0.1617
17739TIP3    H274633   3.540   3.609  12.825  0.4506 -0.7312 -1.1153
17740TIP3   OH274634   0.078   3.840   5.054 -0.1258  0.3945  0.3280
17740TIP3    H174635   0.121   3.818   4.972 -1.7154  1.2125 -0.7908
17740TIP3    H274636   0.149   3.848   5.117  1.1934  0.1985 -1.0713
17741TIP3   OH274637   3.435   5.440  16.422 -0.0124  0.5391 -0.2184
17741TIP3    H174638   3.366   5.391  16.466  0.4079 -0.2571 -0.4340
17741TIP3    H274639   3.516   5.404  16.458  0.4184 -1.3114 -2.8130
17742TIP3   OH274640   6.277   6.047   1.247 -0.3149  0.5915 -0.0046
17742TIP3    H174641   6.313   6.127   1.209 -0.7836  0.8931  0.1761
17742TIP3    H274642   6.347   6.015   1.304 -0.0128  0.7142 -0.3038
17743TIP3   OH274643   2.962   3.858   0.005  0.2107 -0.4224 -0.0135
17743TIP3    H174644   3.015   3.782   0.027  0.1334 -0.3760  0.3513
17743TIP3    H274645   2.963   3.862  -0.090  1.9012  0.2952  0.0019
17744TIP3   OH274646   1.846   3.167   1.046  0.0728  0.3884 -0.1655
17744TIP3    H174647   1.875   3.077   1.062  2.7264  0.7197 -2.5435
17744TIP3    H274648   1.923   3.221   1.062 -0.6681  1.9378 -1.4985
17745TIP3   OH274649   1.380   4.163  16.190  0.4968  0.5405  0.0408
17745TIP3    H174650   1.391   4.088  16.132  0.7490  0.3044  0.3910
17745TIP3    H274651   1.469   4.188  16.214  0.4049  0.8115  0.1064
17746TIP3   OH274652   5.310   4.215  14.999  0.1394 -0.4154 -0.0837
17746TIP3    H174653   5.233   4.229  14.943  0.7733 -1.7602 -1.3792
17746TIP3    H274654   5.300   4.126  15.030  1.3593 -0.7476 -0.6024
17747TIP3   OH274655   2.845   1.051  10.391  0.1640 -0.5892 -0.1578
17747TIP3    H174656   2.802   1.095  10.318  1.1844 -0.7695 -0.8800
17747TIP3    H274657   2.903   0.987  10.350  0.2717 -1.1443  0.8280
17748TIP3   OH274658   2.853   5.302  13.272 -0.3358 -0.5046 -0.0572
17748TIP3    H174659   2.776   5.247  13.261 -1.7689  1.3069  0.5517
17748TIP3    H274660   2.905   5.256  13.338 -2.0956 -0.5290  1.3724
17749TIP3   OH274661   5.226   4.292   1.228 -0.3251 -0.2109  0.4719
17749TIP3    H174662   5.175   4.257   1.301 -0.0905 -0.7834  0.3696
17749TIP3    H274663   5.255   4.214   1.180  0.8404  0.0955  0.6542
17750TIP3   OH274664   0.563   4.788   2.152 -0.6273  0.0261  0.6899
17750TIP3    H174665   0.480   4.806   2.197 -0.7295 -0.1007  0.5516
17750TIP3    H274666   0.542   4.798   2.059 -0.3032  0.7794  0.6849
17751TIP3   OH274667   2.080   1.993  13.662 -0.2712 -0.1213 -0.0234
17751TIP3    H174668   2.118   2.041  13.589 -0.8907 -0.3613 -0.5204
17751TIP3    H274669   2.071   2.057  13.732  1.4363 -0.1660  0.2599
17752TIP3   OH274670   4.172   0.317   1.639 -0.4504 -0.3044  0.1678
17752TIP3    H174671   4.257   0.289   1.673  0.0271 -0.2120 -0.8990
17752TIP3    H274672   4.192   0.349   1.551 -1.5667 -0.1010 -0.0155
17753TIP3   OH274673   6.806   4.702   5.503 -0.1483 -0.2372  0.7019
17753TIP3    H174674   6.899   4.679   5.498 -0.5064 -1.7774  0.7804
17753TIP3    H274675   6.777   4.668   5.587 -1.1871 -1.3419 -0.0827
17754TIP3   OH274676   4.635   4.833   1.347  0.2396 -0.5508 -0.4335
17754TIP3    H174677   4.595   4.878   1.272  1.1952 -1.8363 -1.7790
17754TIP3    H274678   4.697   4.771   1.307 -0.2408 -2.2928  1.3662
17755TIP3   OH274679   3.980   3.228   0.283  0.2105 -0.3747 -0.6136
17755TIP3    H174680   3.975   3.278   0.365 -0.8150 -2.4897  0.6888
17755TIP3    H274681   3.889   3.221   0.253  0.6359  1.0978 -2.4763
17756TIP3   OH274682   1.075   1.650  16.986 -0.0835 -0.1733  0.7750
17756TIP3    H174683   1.034   1.693  16.911  2.4548 -0.2443 -0.7507
17756TIP3    H274684   1.015   1.579  17.008 -0.7456 -0.3961 -1.4605
17757TIP3   OH274685   4.211   4.563   3.550  0.3600  0.0954  0.1932
17757TIP3    H174686   4.244   4.473   3.552  1.2156  0.4130  1.0335
17757TIP3    H274687   4.118   4.554   3.530  0.6379 -0.9131 -0.7288
17758TIP3   OH274688   4.864   1.926  13.233  0.1874 -0.4270 -0.2333
17758TIP3    H174689   4.853   1.936  13.327 -0.5351  0.3785 -0.3972
17758TIP3    H274690   4.806   1.853  13.209 -0.7748  0.3281 -0.2685
17759TIP3   OH274691   5.683   1.545   1.623  0.2963  0.0685  0.3203
17759TIP3    H174692   5.733   1.622   1.594  0.6473  0.3996  1.7514
17759TIP3    H274693   5.613   1.537   1.559  1.2804  0.5094 -0.8683
17760TIP3   OH274694   3.770   0.936  14.482 -0.2694  0.2377  0.5182
17760TIP3    H174695   3.790   1.001  14.550 -0.6066  0.6658  0.2165
17760TIP3    H274696   3.680   0.957  14.455 -1.2562 -1.7494  1.9839
17761TIP3   OH274697   4.578   1.801   5.228 -0.1587  0.4982 -0.0825
17761TIP3    H174698   4.538   1.887   5.239  0.2770  0.5419  1.3909
17761TIP3    H274699   4.504   1.740   5.231 -0.5705  0.8445 -2.0645
17762TIP3   OH274700   1.993   5.358  11.572  0.9016  0.0123 -0.3511
17762TIP3    H174701   2.041   5.335  11.493  0.0255 -1.4676 -0.4794
17762TIP3    H274702   2.061   5.373  11.638  1.6142  0.7179 -1.2194
17763TIP3   OH274703   3.823   2.337   5.773  0.0092  0.9751  0.1358
17763TIP3    H174704   3.918   2.342   5.758  0.1323  1.4684  1.0161
17763TIP3    H274705   3.785   2.391   5.704  0.2356 -0.5918 -1.2910
17764TIP3   OH274706   5.830   2.214   6.142  0.2162 -0.2284 -0.4097
17764TIP3    H174707   5.829   2.179   6.231  1.5086  1.8076  0.4829
17764TIP3    H274708   5.900   2.166   6.098 -0.7229 -1.5540 -0.4877
17765TIP3   OH274709   6.282   1.471  15.493  0.7389  0.1683 -0.6540
17765TIP3    H174710   6.256   1.403  15.554  1.9781  0.1119 -0.1594
17765TIP3    H274711   6.231   1.548  15.519  1.1440  0.1076  0.3765
17766TIP3   OH274712   6.695   4.899   1.252 -0.0679 -0.2141  0.3524
17766TIP3    H174713   6.743   4.819   1.273  0.0505 -0.0803  0.5998
17766TIP3    H274714   6.652   4.923   1.335  0.1039  0.1169  0.3452
17767TIP3   OH274715   6.167   0.800   0.177 -0.2062 -0.1961 -0.3320
17767TIP3    H174716   6.210   0.884   0.159  1.1210 -0.1014  2.7088
17767TIP3    H274717   6.229   0.734   0.146  0.4318 -0.0453  0.5972
17768TIP3   OH274718   5.475   3.337   4.468  0.1556 -0.5145  0.0363
17768TIP3    H174719   5.447   3.260   4.519 -0.7497 -1.1036 -1.2988
17768TIP3    H274720   5.570   3.336   4.474  0.1245 -1.3255  0.6298
17769TIP3   OH274721   0.568   5.678  13.749  0.1146 -0.0120  0.2347
17769TIP3    H174722   0.600   5.588  13.751  2.1913  0.6348 -0.8861
17769TIP3    H274723   0.641   5.730  13.783 -1.0781  1.2593  0.9359
17770TIP3   OH274724   1.302   1.447  13.622  0.3023 -0.5092 -0.2349
17770TIP3    H174725   1.260   1.532  13.603 -0.8489 -1.1444 -0.6210
17770TIP3    H274726   1.229   1.387  13.636  1.1146 -1.3404  0.5289
17771TIP3   OH274727   5.973   3.340   1.922  0.1036 -0.0444  0.3928
17771TIP3    H174728   6.067   3.324   1.926  0.0410 -0.7614 -0.6371
17771TIP3    H274729   5.949   3.319   1.832 -0.7373  1.8874  0.1149
17772TIP3   OH274730   2.541   5.147  11.313  0.8506  0.0875  0.1108
17772TIP3    H174731   2.614   5.181  11.365 -0.1822  0.1860  1.5715
17772TIP3    H274732   2.516   5.065  11.356  0.6311 -0.3785 -0.8745
17773TIP3   OH274733   5.221   6.560   3.999  0.2746  0.2378  0.3828
17773TIP3    H174734   5.311   6.531   3.985 -0.7626 -2.8175 -1.0019
17773TIP3    H274735   5.192   6.510   4.076 -0.2105  1.2689  0.8801
17774TIP3   OH274736   4.506   6.097   2.456  0.6683  0.3861  0.2156
17774TIP3    H174737   4.449   6.076   2.529  0.5604  0.7921  0.2514
17774TIP3    H274738   4.477   6.183   2.426 -0.5330 -0.5617 -1.5083
17775TIP3   OH274739   4.359   1.615   2.783  0.2468  0.7206  0.1387
17775TIP3    H174740   4.364   1.535   2.836 -0.5955  0.0211 -0.7865
17775TIP3    H274741   4.337   1.684   2.845 -1.6632 -0.2451  0.6156
17776TIP3   OH274742   4.273   3.573   3.112 -0.1932 -0.4441  0.6037
17776TIP3    H174743   4.361   3.559   3.146 -0.2539 -1.2086  0.4633
17776TIP3    H274744   4.254   3.494   3.062 -1.6850 -1.1602  2.1856
17777TIP3   OH274745   6.681   5.447   0.824 -0.1446 -0.3344  0.3019
17777TIP3    H174746   6.641   5.373   0.779 -0.0536 -1.5137  2.1060
17777TIP3    H274747   6.745   5.409   0.884  2.0153  1.3681 -0.7437
17778TIP3   OH274748   5.484   5.665   1.993 -0.4105  0.7261 -0.0806
17778TIP3    H174749   5.412   5.605   1.976 -0.7579  1.0342  0.2972
17778TIP3    H274750   5.554   5.637   1.934 -0.7568  0.2792 -0.2735
17779TIP3   OH274751   1.699   5.325  11.309  0.1752 -0.1007  0.3228
17779TIP3    H174752   1.754   5.397  11.276 -0.7141  0.5650  0.2538
17779TIP3    H274753   1.646   5.366  11.378 -0.8460 -0.5196 -0.1964
17780TIP3   OH274754   5.511   5.279  15.111  0.8188 -0.9845  0.5223
17780TIP3    H174755   5.595   5.246  15.080  1.3459 -0.9475  1.8438
17780TIP3    H274756   5.500   5.363  15.066  2.4620 -0.0286  1.7680
17781TIP3   OH274757   5.573   3.398  11.036  0.4153 -0.0549 -0.3386
17781TIP3    H174758   5.525   3.318  11.011  1.1250  0.1860 -2.7274
17781TIP3    H274759   5.600   3.436  10.953  0.9685  2.1713  0.7971
17782TIP3   OH274760   6.142   1.242  13.301  0.6999  0.0132  0.3566
17782TIP3    H174761   6.221   1.289  13.271  0.2355  0.4357 -0.2304
17782TIP3    H274762   6.092   1.308  13.349 -0.9318  0.7605 -2.1726
17783TIP3   OH274763   3.985   6.497  14.169  0.0266  0.1267 -0.2550
17783TIP3    H174764   4.036   6.424  14.132  0.0298  1.1114 -2.3668
17783TIP3    H274765   4.027   6.575  14.133 -0.1909  1.1923  1.6811
17784TIP3   OH274766   2.812   2.926   5.398 -0.4912 -0.1482 -0.1018
17784TIP3    H174767   2.877   2.947   5.330  1.1312  1.4387  1.8332
17784TIP3    H274768   2.818   2.832   5.408  2.3584  0.0420  0.7474
17785TIP3   OH274769   5.794   6.068   1.678 -0.0440 -0.4838  0.5388
17785TIP3    H174770   5.869   6.041   1.625 -0.5369 -0.9637  0.0713
17785TIP3    H274771   5.810   6.028   1.763  0.8525  0.4554  0.8375
17786TIP3   OH274772   2.414   2.208  11.253  0.4356  0.4374 -0.4156
17786TIP3    H174773   2.382   2.152  11.323  2.4989 -0.2376  0.0462
17786TIP3    H274774   2.424   2.150  11.178  1.0031  0.5182 -0.4100
17787TIP3   OH274775   3.328   3.551  12.431  0.2134 -0.3423 -0.0644
17787TIP3    H174776   3.357   3.485  12.494  0.5023 -0.2847 -0.1337
17787TIP3    H274777   3.270   3.608  12.480 -2.0442 -2.0487 -0.5689
17788TIP3   OH274778   5.173   3.563   5.580  0.0018 -0.0163 -1.1087
17788TIP3    H174779   5.221   3.645   5.591  0.4448 -0.0504 -2.5862
17788TIP3    H274780   5.230   3.496   5.618  0.4999  0.1324 -1.5788
17789TIP3   OH274781   0.617   0.329   0.860  0.1025 -0.3229 -0.0241
17789TIP3    H174782   0.535   0.288   0.831 -1.2556  2.1071  0.1580
17789TIP3    H274783   0.660   0.357   0.780 -0.1749  0.0847 -0.0311
17790TIP3   OH274784   2.634   4.849   0.915  0.0331  0.1273 -0.1897
17790TIP3    H174785   2.694   4.921   0.894  0.4725 -0.5303 -1.2559
17790TIP3    H274786   2.691   4.780   0.949 -0.3987  0.2985  0.9250
17791TIP3   OH274787   1.926   6.559   0.948  0.3251  0.1699 -0.3406
17791TIP3    H174788   1.957   6.477   0.910  0.7588 -0.1602  0.6729
17791TIP3    H274789   1.968   6.627   0.896  1.0351 -0.2714 -0.3567
17792TIP3   OH274790   4.698   1.460   4.599  1.0060 -0.1163 -0.1890
17792TIP3    H174791   4.647   1.509   4.534 -1.4293 -2.1411  0.0369
17792TIP3    H274792   4.785   1.453   4.561 -0.2131 -0.8710 -3.1081
17793TIP3   OH274793   2.447   4.048   4.838 -0.3861 -0.3592  0.4305
17793TIP3    H174794   2.365   4.055   4.789  0.0515  0.5671 -0.1960
17793TIP3    H274795   2.478   3.959   4.821  1.2012  0.7274 -3.4265
17794TIP3   OH274796   3.161   6.079  10.886 -0.1282  0.8031  0.3505
17794TIP3    H174797   3.207   6.020  10.945  0.8531  0.0175 -1.1147
17794TIP3    H274798   3.196   6.057  10.799 -1.0859  2.2930 -0.4522
17795TIP3   OH274799   4.116   0.295   2.188  0.3694 -0.4977  0.7489
17795TIP3    H174800   4.164   0.377   2.198  0.1386 -0.0809 -1.1028
17795TIP3    H274801   4.116   0.279   2.094 -0.1034 -2.3282  1.0211
17796TIP3   OH274802   1.852   0.152  16.822  0.7923 -0.5418 -0.4575
17796TIP3    H174803   1.872   0.122  16.734 -0.6001  1.0159 -1.3634
17796TIP3    H274804   1.875   0.078  16.878  0.3051 -2.1503 -2.2598
17797TIP3   OH274805   6.059   5.226   4.154  0.8636  0.3579 -0.0291
17797TIP3    H174806   6.118   5.168   4.203  0.6288 -0.4315 -0.6747
17797TIP3    H274807   5.985   5.240   4.213  1.0946  0.3150  0.2759
17798TIP3   OH274808   5.323   0.303   1.415  0.4069  0.0253 -0.2714
17798TIP3    H174809   5.301   0.218   1.453 -1.0875  0.7621  0.5976
17798TIP3    H274810   5.388   0.340   1.475 -0.5657  0.3958  0.5778
17799TIP3   OH274811   1.728   4.260   5.574  0.2650 -0.2661 -0.2269
17799TIP3    H174812   1.723   4.181   5.519 -0.8549 -0.3718  0.0148
17799TIP3    H274813   1.682   4.327   5.523  2.9108  0.8313 -1.3641
17800TIP3   OH274814   4.879   6.537  10.959  0.1656  0.2287  0.0133
17800TIP3    H174815   4.927   6.525  10.878  0.0049  0.1418 -0.0697
17800TIP3    H274816   4.942   6.517  11.028  0.4248  0.7240 -0.0779
17801TIP3   OH274817   4.482   6.764  14.883  0.2076 -0.4234  0.2878
17801TIP3    H174818   4.541   6.787  14.810  0.3309  0.6268  0.6993
17801TIP3    H274819   4.412   6.713  14.842  1.8568 -2.5556 -0.0776
17802TIP3   OH274820   6.550   4.113  15.272 -0.0027  0.5560  0.6597
17802TIP3    H174821   6.523   4.035  15.320  2.7263 -1.2551 -0.5108
17802TIP3    H274822   6.598   4.080  15.196  2.0590  3.3677  0.5633
17803TIP3   OH274823   4.780   2.090   2.894  0.4437  0.3519  0.1691
17803TIP3    H174824   4.713   2.099   2.827  1.6173  0.0305 -1.0881
17803TIP3    H274825   4.815   2.179   2.905 -0.3842  0.5799  1.0595
17804TIP3   OH274826   3.467   2.990  14.451  0.3900  0.6145 -0.5032
17804TIP3    H174827   3.385   3.023  14.488 -1.4365 -0.3937 -3.2893
17804TIP3    H274828   3.497   2.925  14.515 -1.3351  0.5833  0.3401
17805TIP3   OH274829   6.419   5.812   4.924 -0.1403  0.3165  0.0949
17805TIP3    H174830   6.428   5.807   5.019 -0.7342  1.3304  0.2222
17805TIP3    H274831   6.502   5.848   4.894 -0.3866  1.1336  0.3626
17806TIP3   OH274832   2.608   0.452   1.484  0.2981 -0.0428  0.7373
17806TIP3    H174833   2.602   0.357   1.480 -0.7195 -0.0220  1.4499
17806TIP3    H274834   2.529   0.483   1.439  0.3596  0.4480  0.9558
17807TIP3   OH274835   2.159   6.285   2.558 -0.3665 -0.5249  0.1151
17807TIP3    H174836   2.170   6.212   2.618  1.2451 -1.5652 -1.3166
17807TIP3    H274837   2.175   6.363   2.611  2.4954 -1.4624  0.8515
17808TIP3   OH274838   4.224   4.724  15.221 -0.2256  0.2785 -0.1734
17808TIP3    H174839   4.288   4.730  15.149  0.1613 -0.4490  0.0946
17808TIP3    H274840   4.278   4.723  15.300 -0.5069 -1.0682  0.0302
17809TIP3   OH274841   5.017   2.756   3.428 -0.1804  0.2098 -0.0748
17809TIP3    H174842   5.047   2.669   3.402 -1.1964 -0.8787  2.1811
17809TIP3    H274843   4.932   2.742   3.469 -0.7350  2.3763 -0.3454
17810TIP3   OH274844   2.338   2.907  15.160 -0.1624  0.2623  0.2919
17810TIP3    H174845   2.275   2.970  15.196  0.0714  0.0109  1.1622
17810TIP3    H274846   2.354   2.846  15.232 -0.7435 -1.0809 -0.6880
17811TIP3   OH274847   3.834   2.668   3.845 -0.0684 -0.5978  0.4776
17811TIP3    H174848   3.854   2.737   3.782 -1.4432 -0.7130 -0.1220
17811TIP3    H274849   3.894   2.684   3.918  0.0185  0.8909  0.1144
17812TIP3   OH274850   3.578   3.510   5.794  0.2394 -0.0911 -0.1859
17812TIP3    H174851   3.617   3.557   5.721 -0.4401  0.5930 -0.1259
17812TIP3    H274852   3.490   3.547   5.802  0.3311 -0.0891  1.0293
17813TIP3   OH274853   5.899   1.998   0.572 -0.2159  0.3719 -0.1423
17813TIP3    H174854   5.848   2.074   0.544  0.5479  1.1424  0.5093
17813TIP3    H274855   5.834   1.933   0.597 -0.8772  1.2690  0.5117
17814TIP3   OH274856   0.082   1.556   1.165 -0.1896 -1.0365 -0.0648
17814TIP3    H174857   0.007   1.607   1.136  0.7609 -0.2437 -1.2324
17814TIP3    H274858   0.063   1.534   1.256 -1.6677 -0.5816 -0.2406
17815TIP3   OH274859   6.149   0.120  12.940  0.0219  0.1359 -0.3704
17815TIP3    H174860   6.231   0.095  12.898  0.8163 -1.4043  1.9335
17815TIP3    H274861   6.094   0.041  12.935 -0.6094  0.5583 -0.2353
17816TIP3   OH274862   2.475   4.162   2.788  0.1763  0.4131 -0.5321
17816TIP3    H174863   2.511   4.134   2.704  0.9482 -0.2942  0.0186
17816TIP3    H274864   2.516   4.104   2.853 -1.9412 -0.4601  0.1308
17817TIP3   OH274865   3.015   3.029   4.014 -0.5401 -0.4427  0.5253
17817TIP3    H174866   2.932   3.075   4.028 -0.4226 -0.5243  1.5482
17817TIP3    H274867   3.080   3.098   4.010 -0.6018 -0.4047  0.1332
17818TIP3   OH274868   5.127   6.012  15.709  0.0869 -0.1553 -0.1270
17818TIP3    H174869   5.042   6.055  15.707  0.1796  0.1480  1.2326
17818TIP3    H274870   5.187   6.076  15.670  0.3763  1.4463  2.6337
17819TIP3   OH274871   0.998   6.309   5.688  0.0891 -0.4576  0.8217
17819TIP3    H174872   0.936   6.371   5.651 -0.5120 -0.6969  1.4317
17819TIP3    H274873   0.989   6.230   5.633  2.4850  0.6671 -1.4616
17820TIP3   OH274874   6.492   4.486   1.770 -0.0629 -0.1815 -0.5811
17820TIP3    H174875   6.585   4.510   1.767  0.0360 -0.0294  1.8883
17820TIP3    H274876   6.446   4.569   1.759  0.2023  0.3720  1.9071
17821TIP3   OH274877   6.377   1.501  11.865  0.6450 -0.1836  0.4622
17821TIP3    H174878   6.334   1.453  11.795  1.5811  0.8951 -0.8918
17821TIP3    H274879   6.414   1.433  11.921 -1.2559 -1.1008  0.7185
17822TIP3   OH274880   4.704   2.362   2.370 -0.0858 -0.6000 -0.2616
17822TIP3    H174881   4.661   2.371   2.455 -0.0544 -1.4379 -0.1506
17822TIP3    H274882   4.640   2.318   2.314 -0.1554  0.0665 -0.7130
17823TIP3   OH274883   0.351   3.397  16.557 -0.6900 -0.0338 -0.4318
17823TIP3    H174884   0.413   3.465  16.532 -0.9071  0.7223  0.9865
17823TIP3    H274885   0.395   3.349  16.627 -1.0502 -0.5215 -0.5429
17824TIP3   OH274886   6.531   5.492  15.966  0.0005 -0.4902 -0.2508
17824TIP3    H174887   6.607   5.440  15.990  0.5866  0.4898  0.0889
17824TIP3    H274888   6.515   5.471  15.874  0.8318 -0.5243 -0.3931
17825TIP3   OH274889   1.207   6.670  15.158  0.4799  0.1279  0.0737
17825TIP3    H174890   1.197   6.718  15.076  0.6037 -2.2796 -1.4633
17825TIP3    H274891   1.138   6.705  15.215  0.6560  2.1480 -0.8806
17826TIP3   OH274892   0.134   2.423  16.931  0.2294 -0.3355  0.2523
17826TIP3    H174893   0.211   2.375  16.962 -0.9471 -0.5926  3.0321
17826TIP3    H274894   0.079   2.355  16.890  0.1487 -0.7161  0.9784
17827TIP3   OH274895   6.630   1.567  11.545  0.7555  0.2981  0.5107
17827TIP3    H174896   6.676   1.592  11.625 -0.2582 -1.0162  1.5540
17827TIP3    H274897   6.562   1.634  11.535  0.5778  0.2030  1.0421
17828TIP3   OH274898   1.210   3.062   5.795  0.4210  0.3061  0.0558
17828TIP3    H174899   1.211   3.105   5.710 -0.1660  0.8916  0.3341
17828TIP3    H274900   1.142   3.108   5.844 -0.2584 -0.9820  0.3488
17829TIP3   OH274901   6.216   6.039  11.886 -0.1144 -0.4847  0.2042
17829TIP3    H174902   6.233   5.971  11.951 -2.9455 -0.7552  0.8094
17829TIP3    H274903   6.219   6.121  11.936  2.3727 -0.1597 -0.3457
17830TIP3   OH274904   1.456   0.694  13.732  0.0580 -0.0627 -0.3832
17830TIP3    H174905   1.430   0.643  13.655  0.5199  1.2736 -1.4555
17830TIP3    H274906   1.530   0.646  13.768  0.2301 -0.3761 -1.1335
17831TIP3   OH274907   4.590   0.531   5.298 -0.7074 -0.4440  0.0290
17831TIP3    H174908   4.657   0.466   5.277 -1.5635 -1.6996  1.0829
17831TIP3    H274909   4.522   0.518   5.232 -0.3450  0.2343 -0.4987
17832TIP3   OH274910   6.100   3.501   2.715 -0.3456  0.1782 -0.0083
17832TIP3    H174911   6.068   3.572   2.771  1.4800  0.1450  1.1742
17832TIP3    H274912   6.182   3.474   2.756  0.8453 -0.1799 -2.4521
17833TIP3   OH274913   6.232   4.160  11.628 -0.2126  0.3776 -0.2326
17833TIP3    H174914   6.198   4.233  11.681 -1.9687 -1.4822  1.4017
17833TIP3    H274915   6.327   4.166  11.638 -0.4213  0.3508  2.9988
17834TIP3   OH274916   0.516   5.142   2.185 -0.3200  0.0669  0.6281
17834TIP3    H174917   0.542   5.129   2.276 -0.8107 -2.6657  0.4704
17834TIP3    H274918   0.598   5.143   2.136 -0.0747  1.1844  1.0381
17835TIP3   OH274919   1.129   1.235   3.760  0.2754 -0.0916  0.0370
17835TIP3    H174920   1.192   1.224   3.688  0.4278  0.4735  0.0782
17835TIP3    H274921   1.174   1.291   3.823 -0.4677  0.7698 -0.1854
17836TIP3   OH274922   2.313   6.408   2.292  0.2977  0.3721  0.7013
17836TIP3    H174923   2.316   6.496   2.255  1.9366  0.7762  1.6805
17836TIP3    H274924   2.405   6.381   2.298 -0.0280 -0.5563  2.3307
17837TIP3   OH274925   2.137   6.128   0.099 -0.6232  0.3582  0.3835
17837TIP3    H174926   2.196   6.128   0.174 -0.5958  2.1254  0.4156
17837TIP3    H274927   2.054   6.095   0.133  0.3314 -2.3410  0.2909
17838TIP3   OH274928   5.879   0.974  14.189 -0.1589  0.8193  0.2945
17838TIP3    H174929   5.903   0.964  14.281  0.5291  3.3132  0.4612
17838TIP3    H274930   5.962   0.974  14.142 -0.5683 -3.0343 -0.7836
17839TIP3   OH274931   5.547   4.961  11.449  0.0059 -0.2753  0.4383
17839TIP3    H174932   5.631   4.997  11.421  0.9564 -1.2696  1.8317
17839TIP3    H274933   5.491   4.965  11.371  1.3013  0.5056 -0.4882
17840TIP3   OH274934   6.004   2.064   2.535 -0.0274  0.0496 -0.7499
17840TIP3    H174935   6.024   2.047   2.627  0.7400  0.5608 -0.8134
17840TIP3    H274936   6.070   2.127   2.507 -1.2490  1.1880 -1.2015
17841TIP3   OH274937   6.075   6.659   5.377  0.0827 -0.3578 -0.0426
17841TIP3    H174938   6.042   6.588   5.321 -0.1332 -0.1665 -0.1617
17841TIP3    H274939   6.063   6.738   5.324 -1.9505  0.0990  0.9739
17842TIP3   OH274940   1.137   4.426   1.340 -0.9245 -0.0388 -0.3365
17842TIP3    H174941   1.098   4.380   1.414 -1.0217  0.6629  0.0557
17842TIP3    H274942   1.196   4.362   1.300 -0.5559 -0.2951  0.5967
17843TIP3   OH274943   3.836   3.267   2.432  0.9289  0.0227 -0.0209
17843TIP3    H174944   3.768   3.232   2.490  0.8447 -0.7400 -0.5558
17843TIP3    H274945   3.885   3.189   2.404 -0.0769  0.1165 -2.2967
17844TIP3   OH274946   0.973   1.420   1.226 -0.5130  0.2709 -0.4963
17844TIP3    H174947   0.895   1.411   1.280 -0.0045  0.4609  0.2932
17844TIP3    H274948   1.022   1.339   1.242  0.1418  0.7906  0.1579
17845TIP3   OH274949   1.787   6.167   4.141 -0.2302 -0.6067  0.3047
17845TIP3    H174950   1.781   6.121   4.225  1.0251  1.4013  1.5954
17845TIP3    H274951   1.763   6.258   4.162 -2.6461 -0.5464 -2.1221
17846TIP3   OH274952   3.221   6.451   3.871 -0.1711 -0.1073 -0.1821
17846TIP3    H174953   3.245   6.393   3.799  1.1966  2.9120 -2.4298
17846TIP3    H274954   3.130   6.429   3.890 -0.8398 -0.6649 -3.3635
17847TIP3   OH274955   6.763   4.726  10.418  0.2986 -0.2810  0.1588
17847TIP3    H174956   6.811   4.774  10.486 -0.9060  0.5854  0.4198
17847TIP3    H274957   6.680   4.772  10.410 -0.4901 -1.7330 -0.3060
17848TIP3   OH274958   0.747   0.576  14.428 -0.1311  0.4241  0.1334
17848TIP3    H174959   0.683   0.643  14.453 -1.0025  0.0871 -1.1005
17848TIP3    H274960   0.820   0.625  14.391  1.5375  1.0060  3.7518
17849TIP3   OH274961   1.855   0.778   5.290 -0.2098 -0.5907 -0.1976
17849TIP3    H174962   1.840   0.780   5.195  3.5994 -1.1588 -0.9589
17849TIP3    H274963   1.803   0.704   5.321  0.1837 -1.7943 -2.2536
17850TIP3   OH274964   1.870   5.307   2.560  0.0595  0.0680  0.0046
17850TIP3    H174965   1.799   5.251   2.529 -0.3183 -0.7925  2.2572
17850TIP3    H274966   1.942   5.289   2.501 -1.1733 -0.0116 -1.5471
17851TIP3   OH274967   2.207   2.156  12.413  0.1941  0.3960  0.2874
17851TIP3    H174968   2.256   2.078  12.388 -0.3985  0.7239 -2.1833
17851TIP3    H274969   2.270   2.210  12.460  0.8665 -1.1338  1.2169
17852TIP3   OH274970   1.392   0.811  14.884  0.0259  0.0430 -0.3817
17852TIP3    H174971   1.316   0.869  14.894  1.9171  2.8424 -0.8654
17852TIP3    H274972   1.387   0.753  14.960 -0.7866  2.4543  1.5923
17853TIP3   OH274973   3.228   5.622  11.427  0.2454 -0.4570 -0.5066
17853TIP3    H174974   3.277   5.663  11.499  0.2322 -1.1392 -0.1029
17853TIP3    H274975   3.232   5.686  11.356 -2.8287  1.9396  1.2073
17854TIP3   OH274976   1.428   3.053  11.264 -0.1201 -0.5851 -0.0354
17854TIP3    H174977   1.482   3.100  11.201  1.9094 -1.2794  1.1083
17854TIP3    H274978   1.462   2.964  11.263 -0.1880 -0.6660  1.8442
17855TIP3   OH274979   6.191   4.618   4.282 -0.5431 -0.6202 -0.3470
17855TIP3    H174980   6.244   4.544   4.313 -0.3805 -0.9528 -1.3629
17855TIP3    H274981   6.230   4.641   4.198 -0.3847  0.8596  0.1174
17856TIP3   OH274982   6.127   2.139  10.312  0.7027  0.4920  0.4666
17856TIP3    H174983   6.168   2.224  10.329 -0.7100  1.0651  1.1535
17856TIP3    H274984   6.053   2.136  10.372 -0.7190 -0.1647 -1.2153
17857TIP3   OH274985   0.952   5.444  15.583  0.4409 -0.0541  0.4589
17857TIP3    H174986   1.014   5.496  15.634  0.9696 -0.0039 -0.2188
17857TIP3    H274987   0.911   5.386  15.647 -0.6600  1.6429  1.3450
17858TIP3   OH274988   1.547   2.134   4.539 -0.3234 -0.2563 -0.2568
17858TIP3    H174989   1.537   2.057   4.596 -0.9334 -0.5770 -0.7760
17858TIP3    H274990   1.583   2.202   4.596  1.9165 -1.4100 -0.1887
17859TIP3   OH274991   4.807   3.834  12.806 -0.4676 -0.5961 -0.7725
17859TIP3    H174992   4.796   3.746  12.840 -0.4645 -0.0264  0.7742
17859TIP3    H274993   4.819   3.889  12.883  0.4943  0.6303 -1.7434
17860TIP3   OH274994   2.613   3.202   5.215  0.0775  0.2021 -0.1274
17860TIP3    H174995   2.683   3.256   5.252  0.7947 -0.3066 -0.6829
17860TIP3    H274996   2.659   3.141   5.157 -0.9701  0.9358 -1.8227
17861TIP3   OH274997   5.937   2.541   4.307  0.8748 -0.0601  0.2479
17861TIP3    H174998   6.024   2.534   4.345  1.3294  1.0193 -0.5376
17861TIP3    H274999   5.880   2.497   4.370  1.9381 -0.4981  0.9313
17862TIP3   OH275000   1.264   3.550  13.071  0.2791 -0.6871 -0.0458
17862TIP3    H175001   1.193   3.485  13.072  0.5471 -0.9740  0.2715
17862TIP3    H275002   1.337   3.504  13.029  1.2716 -1.4419  2.3586
17863TIP3   OH275003   1.247   5.762   5.756  0.0415 -0.3245  0.1230
17863TIP3    H175004   1.293   5.738   5.836  0.1056  0.1056  0.2206
17863TIP3    H275005   1.316   5.771   5.690  0.5110  3.0614  0.9058
17864TIP3   OH275006   6.485   3.537  14.066 -0.0294  0.7271  0.2470
17864TIP3    H175007   6.456   3.466  14.122 -0.3905  0.3937 -0.3461
17864TIP3    H275008   6.450   3.616  14.107 -0.8470  0.4294  0.1524
17865TIP3   OH275009   0.836   2.826   3.152  0.3959 -0.2959 -0.0913
17865TIP3    H175010   0.767   2.890   3.138  0.2877 -0.6643 -1.4181
17865TIP3    H275011   0.898   2.869   3.210  0.9253  1.4885 -1.8888
17866TIP3   OH275012   6.469   3.508   0.709 -0.2453 -0.8736  0.3833
17866TIP3    H175013   6.553   3.464   0.721  0.1662 -0.4365 -0.8286
17866TIP3    H275014   6.458   3.560   0.789  1.1510 -0.1021  0.0982
17867TIP3   OH275015   5.279   4.862  15.261  0.0037 -0.4889 -0.4042
17867TIP3    H175016   5.260   4.941  15.211  0.4557 -0.1791 -0.0943
17867TIP3    H275017   5.373   4.863  15.274 -0.2669  0.3578  1.9419
17868TIP3   OH275018   2.755   6.804   3.413 -0.0640 -0.3546  0.0672
17868TIP3    H175019   2.838   6.819   3.369  0.5538 -2.3667  0.4391
17868TIP3    H275020   2.695   6.776   3.343 -0.2352  0.4102 -0.0949
17869TIP3   OH275021   2.063   0.747  13.382  0.3484  0.0488 -0.3876
17869TIP3    H175022   2.094   0.693  13.309  0.6345 -0.4689  0.1105
17869TIP3    H275023   2.079   0.837  13.353  0.5305 -0.1544 -0.9353
17870TIP3   OH275024   1.467   2.820  13.747 -0.1801 -0.2046  0.2683
17870TIP3    H175025   1.518   2.825  13.666  1.5556 -0.7679  1.2825
17870TIP3    H275026   1.432   2.909  13.757 -0.9452 -0.2721 -1.3905
17871TIP3   OH275027   1.379   6.561  17.041 -0.5203  0.1255 -0.2797
17871TIP3    H175028   1.473   6.540  17.044 -0.1391  1.2920 -2.3444
17871TIP3    H275029   1.374   6.652  17.070 -1.0007  0.0815 -0.2202
17872TIP3   OH275030   4.631   2.094  16.641  0.0765 -0.2007  0.4507
17872TIP3    H175031   4.573   2.020  16.624 -0.3647 -0.2467  2.0190
17872TIP3    H275032   4.591   2.140  16.714  0.1758  1.7898 -0.6723
17873TIP3   OH275033   6.812   0.952  11.665 -0.3937  0.1941  0.3985
17873TIP3    H175034   6.764   0.876  11.632 -2.3512  0.9786  1.2901
17873TIP3    H275035   6.826   0.933  11.758 -1.6271  1.2240  0.8248
17874TIP3   OH275036   6.785   0.638   0.625  0.4008  0.1214 -0.4032
17874TIP3    H175037   6.785   0.715   0.682  0.7996 -0.9138  1.0421
17874TIP3    H275038   6.877   0.615   0.617  0.2145 -0.8570  0.1195
17875TIP3   OH275039   6.797   2.937   2.080  0.0482 -0.6263  0.1934
17875TIP3    H175040   6.757   2.862   2.036  0.4979 -0.9439  0.3105
17875TIP3    H275041   6.819   2.906   2.167  0.1498 -0.3289  0.2776
17876TIP3   OH275042   1.010   2.697  14.896 -0.2898 -0.6186 -0.5213
17876TIP3    H175043   0.946   2.767  14.908  0.9402  0.2443  1.4382
17876TIP3    H275044   0.977   2.625  14.949 -0.4887 -0.8028 -0.8866
17877TIP3   OH275045   1.147   0.962   6.524  0.4454  0.2563  0.2177
17877TIP3    H175046   1.202   0.884   6.529  1.3221  0.7300 -1.2691
17877TIP3    H275047   1.187   1.015   6.454 -1.3314  1.0797 -0.2370
17878TIP3   OH275048   4.914   1.061  15.772 -0.4456 -0.0539  1.2473
17878TIP3    H175049   4.837   1.014  15.805 -0.0925 -0.6259  1.2656
17878TIP3    H275050   4.982   0.994  15.765  0.1862  0.5293  1.6620
17879TIP3   OH275051   4.954   1.382   5.131 -0.5627 -0.3052  0.5623
17879TIP3    H175052   5.036   1.354   5.171 -1.1625 -2.2284  0.5198
17879TIP3    H275053   4.892   1.312   5.150 -1.7458  0.2815 -0.9076
17880TIP3   OH275054   3.942   5.655  13.476 -1.0383 -0.0178 -0.4881
17880TIP3    H175055   3.974   5.569  13.506  0.8762  0.7163 -0.3446
17880TIP3    H275056   3.867   5.634  13.421 -0.8158 -1.7685 -0.1906
17881TIP3   OH275057   5.525   1.109   2.012  0.0729  1.2162 -0.4604
17881TIP3    H175058   5.547   1.016   2.011  1.3178  1.5027 -1.0260
17881TIP3    H275059   5.440   1.113   2.056 -0.1192 -0.2061 -0.6702
17882TIP3   OH275060   5.908   5.364  13.667 -0.4819 -0.6142 -0.5700
17882TIP3    H175061   5.877   5.278  13.696  0.3341 -0.4253  0.9851
17882TIP3    H275062   5.831   5.420  13.670 -1.0145 -1.2583 -1.5659
17883TIP3   OH275063   5.776   5.747  16.382  0.0385 -0.0006  0.4742
17883TIP3    H175064   5.804   5.661  16.353 -0.6611  0.0974 -0.5336
17883TIP3    H275065   5.698   5.731  16.435 -1.0901  0.0949 -1.0739
17884TIP3   OH275066   2.715   5.890   3.914  0.3196  0.2591 -0.0110
17884TIP3    H175067   2.768   5.839   3.976  0.2316 -0.3564 -0.4389
17884TIP3    H275068   2.677   5.960   3.968  0.5134 -0.0669  0.5631
17885TIP3   OH275069   3.242   4.200  11.776 -0.2509  0.3592 -0.1398
17885TIP3    H175070   3.173   4.260  11.745  0.3866  0.6696 -0.9940
17885TIP3    H275071   3.297   4.254  11.832 -0.6188  0.1463  0.4301
17886TIP3   OH275072   2.230   4.496  16.721  0.1835  0.3042 -0.2626
17886TIP3    H175073   2.138   4.515  16.703 -0.3294 -0.7653  1.1040
17886TIP3    H275074   2.248   4.541  16.803  0.8124  0.2753 -0.3830
17887TIP3   OH275075   4.104   4.787  12.257  0.2867  0.2066  0.3780
17887TIP3    H175076   4.163   4.786  12.181 -0.7995  0.9989 -0.5032
17887TIP3    H275077   4.144   4.725  12.319  0.3986 -1.6559 -1.4535
17888TIP3   OH275078   3.683   5.943   2.448 -0.1411 -0.1471 -0.1518
17888TIP3    H175079   3.592   5.943   2.418  0.0266  0.0531 -0.6636
17888TIP3    H275080   3.730   5.996   2.383  0.4619 -0.8078 -0.2569
17889TIP3   OH275081   0.271   5.246  15.978 -0.0304  0.0518  0.0322
17889TIP3    H175082   0.274   5.271  15.886 -2.0652 -0.7412 -0.3016
17889TIP3    H275083   0.181   5.216  15.992  0.5294 -0.8952  1.9982
17890TIP3   OH275084   0.801   1.465  16.839 -0.2950  0.3151 -0.5635
17890TIP3    H175085   0.824   1.446  16.930  0.3406 -0.2694 -0.8449
17890TIP3    H275086   0.829   1.388  16.790 -2.8002 -0.4468 -0.9524
17891TIP3   OH275087   1.680   5.627  11.138  0.1801 -0.9219 -0.7133
17891TIP3    H175088   1.695   5.706  11.087  0.7642  0.4315  1.4519
17891TIP3    H275089   1.713   5.556  11.082 -1.0423  0.1985 -3.0089
17892TIP3   OH275090   2.627   0.414  16.362  0.2031  0.6465 -0.1047
17892TIP3    H175091   2.638   0.320  16.347  1.9790  0.8619 -0.3710
17892TIP3    H275092   2.533   0.429  16.353  0.0154 -0.9222 -1.1368
17893TIP3   OH275093   1.548   3.115   0.446  0.1058 -0.5531 -0.4636
17893TIP3    H175094   1.543   3.119   0.351  1.5752 -0.6214 -0.5741
17893TIP3    H275095   1.509   3.197   0.476 -1.3962 -1.0175 -1.0466
17894TIP3   OH275096   6.757   1.485   3.280  0.3627 -0.2714 -0.5970
17894TIP3    H175097   6.692   1.444   3.222 -0.5134  0.8801 -0.4677
17894TIP3    H275098   6.821   1.524   3.221 -0.7984  1.3395 -0.8618
17895TIP3   OH275099   3.923   3.020  14.272  0.0620 -0.5079 -0.1164
17895TIP3    H175100   3.973   3.100  14.287  0.2568 -0.3267 -1.6151
17895TIP3    H275101   3.987   2.950  14.280  0.1443 -0.4241 -0.0354
17896TIP3   OH275102   3.989   0.049  12.656 -0.7447  0.3520 -0.1339
17896TIP3    H175103   4.073   0.090  12.676  0.1674 -0.6224 -1.7721
17896TIP3    H275104   3.986   0.047  12.560 -0.7486 -3.3261 -0.1813
17897TIP3   OH275105   0.589   2.856   1.506  0.7691 -0.0435  0.2891
17897TIP3    H175106   0.568   2.944   1.538  1.1369  0.0360  0.3107
17897TIP3    H275107   0.506   2.824   1.471  0.9360  0.8444 -0.9741
17898TIP3   OH275108   6.755   4.206  16.888 -0.2807 -0.4030  0.4371
17898TIP3    H175109   6.736   4.292  16.850  1.1901  0.7498  2.1060
17898TIP3    H275110   6.670   4.173  16.916 -1.6182 -1.6980 -4.2697
17899TIP3   OH275111   0.703   5.605  15.607  0.4555  0.4318  0.1017
17899TIP3    H175112   0.778   5.546  15.608  0.2407  0.1328 -0.5441
17899TIP3    H275113   0.741   5.692  15.604  0.7777  0.2996  0.3249
17900TIP3   OH275114   1.666   6.725   0.711  0.2699 -0.2981  0.3925
17900TIP3    H175115   1.635   6.685   0.792 -4.2397  1.9711  0.0674
17900TIP3    H275116   1.602   6.700   0.645  2.7511 -0.4881 -2.1721
17901TIP3   OH275117   2.492   6.249   4.921  0.0401  0.3868 -0.5156
17901TIP3    H175118   2.508   6.344   4.920  1.2841  0.2081 -0.2730
17901TIP3    H275119   2.579   6.211   4.908 -0.5114 -0.7260 -1.0642
17902TIP3   OH275120   6.139   0.233   5.994 -0.4021 -0.4448  0.3562
17902TIP3    H175121   6.064   0.291   6.006 -0.3235 -0.0678 -0.8780
17902TIP3    H275122   6.205   0.266   6.055 -1.1424 -0.6468  1.2979
17903TIP3   OH275123   2.527   3.487  11.366  0.0069 -0.1336 -0.7315
17903TIP3    H175124   2.602   3.523  11.414  0.7239 -2.8742  0.4116
17903TIP3    H275125   2.554   3.490  11.274  2.0351 -1.9228 -0.2875
17904TIP3   OH275126   4.244   2.685  12.752 -0.2229  0.2178  0.1499
17904TIP3    H175127   4.315   2.721  12.804 -0.9367 -2.1608  3.0501
17904TIP3    H275128   4.172   2.674  12.814 -2.2219 -0.0098 -2.0587
17905TIP3   OH275129   5.924   1.803  11.734  0.3638 -0.4076 -0.2034
17905TIP3    H175130   5.951   1.813  11.825 -0.6629 -2.2562  0.3622
17905TIP3    H275131   5.965   1.721  11.705 -0.6524 -0.7135 -0.8522
17906TIP3   OH275132   4.461   2.990   6.371 -0.4666  0.6522  0.2873
17906TIP3    H175133   4.536   3.011   6.316 -0.4674 -0.5356 -0.2028
17906TIP3    H275134   4.499   2.960   6.453 -0.4046  0.4441  0.1845
17907TIP3   OH275135   4.225   6.023   2.574 -0.1788 -0.1420  0.1725
17907TIP3    H175136   4.184   6.025   2.661 -0.5394 -0.3689  0.0111
17907TIP3    H275137   4.187   6.098   2.528  0.1644  0.0971  0.2760
17908TIP3   OH275138   2.934   1.360   6.064 -0.1434  0.1974 -0.1233
17908TIP3    H175139   3.024   1.334   6.043 -0.3011  0.2762 -0.9013
17908TIP3    H275140   2.914   1.311   6.144  0.3239 -0.4228 -0.3703
17909TIP3   OH275141   1.568   5.000   5.009 -0.2595 -0.5722  0.5318
17909TIP3    H175142   1.500   5.068   5.010  1.6775  1.5513 -1.6612
17909TIP3    H275143   1.626   5.023   5.081 -0.9608 -1.5151  1.4426
17910TIP3   OH275144   3.837   3.311  14.257  0.4872  0.2385  0.2438
17910TIP3    H175145   3.753   3.355  14.267  0.5046  0.0111  1.6228
17910TIP3    H275146   3.836   3.278  14.168 -0.5221  0.9741 -0.0427
17911TIP3   OH275147   0.706   0.185   3.890  0.2921  0.0231  0.0180
17911TIP3    H175148   0.712   0.223   3.978 -1.2543 -1.7756  0.9636
17911TIP3    H275149   0.630   0.227   3.851  1.5159  1.5193 -0.8994
17912TIP3   OH275150   1.652   2.340   5.908  0.4560  0.4839  0.0965
17912TIP3    H175151   1.725   2.402   5.907 -0.1821  1.2573 -0.5376
17912TIP3    H275152   1.584   2.385   5.957  0.2441 -0.0388  0.2874
17913TIP3   OH275153   1.263   1.916  10.617 -0.6994 -0.0432 -0.2003
17913TIP3    H175154   1.267   1.834  10.667  0.4290 -0.3052 -0.6860
17913TIP3    H275155   1.175   1.949  10.632 -1.0515 -1.1617  0.3023
17914TIP3   OH275156   0.953   0.945   6.213 -0.3698  0.3867  0.2081
17914TIP3    H175157   0.880   1.005   6.199  0.8541  1.7682 -0.5182
17914TIP3    H275158   1.019   0.997   6.259 -0.1060 -1.0409  1.5323
17915TIP3   OH275159   2.770   4.715   5.769  0.1051  0.3190  0.2118
17915TIP3    H175160   2.691   4.676   5.806  0.4009  1.4019  2.1403
17915TIP3    H275161   2.741   4.799   5.734  0.2237  0.2811  0.0226
17916TIP3   OH275162   5.254   5.744  12.010 -0.0533  0.0841 -0.0998
17916TIP3    H175163   5.268   5.837  11.990 -1.6220  0.2875 -0.3128
17916TIP3    H275164   5.343   5.707  12.010  0.5920  1.5414 -0.1562
17917TIP3   OH275165   3.914   1.327   5.046 -0.9211  0.3123  0.1666
17917TIP3    H175166   3.939   1.298   4.958 -2.4217  2.7940 -1.2051
17917TIP3    H275167   3.997   1.340   5.091 -0.1152 -1.1613 -0.8242
17918TIP3   OH275168   1.994   3.216   6.373 -0.1899 -0.1230 -0.2240
17918TIP3    H175169   1.900   3.198   6.386  0.1838 -1.1952  1.2579
17918TIP3    H275170   2.009   3.296   6.423 -0.2393 -0.1646 -0.1411
17919TIP3   OH275171   4.595   0.603  14.536  0.1910  0.0708  0.4964
17919TIP3    H175172   4.517   0.656  14.520  1.6135  1.0769 -5.2335
17919TIP3    H275173   4.560   0.514  14.551 -2.0669  0.7142 -0.4854
17920TIP3   OH275174   1.932   1.218   1.773  0.3173  0.0457  0.2141
17920TIP3    H175175   1.858   1.232   1.714  2.6559  0.2799 -2.9001
17920TIP3    H275176   1.937   1.299   1.824 -1.7070 -0.1207  0.7753
17921TIP3   OH275177   6.741   1.451   4.332 -0.1745 -0.0245  0.0288
17921TIP3    H175178   6.778   1.535   4.305 -1.5045  0.6247  0.1143
17921TIP3    H275179   6.713   1.466   4.422 -0.7767 -0.4286 -0.0880
17922TIP3   OH275180   5.967   0.923  14.438 -0.4809  0.2124 -0.1570
17922TIP3    H175181   6.004   0.847  14.482  0.8007  1.2808  0.6859
17922TIP3    H275182   5.966   0.992  14.504 -1.4008  1.0093 -0.9617
17923TIP3   OH275183   2.132   5.613   4.747  0.3517  0.1104 -0.4758
17923TIP3    H175184   2.101   5.574   4.829  2.1018 -1.6520 -0.5473
17923TIP3    H275185   2.171   5.696   4.773  0.0692 -0.0012  0.3390
17924TIP3   OH275186   0.187   4.037  16.130  0.2579 -0.1395  0.1880
17924TIP3    H175187   0.248   4.065  16.198 -1.9112  1.7850  1.4927
17924TIP3    H275188   0.106   4.015  16.178 -0.0198 -3.1692 -1.3854
17925TIP3   OH275189   4.315   3.906  14.688 -0.6766 -0.3277  0.1115
17925TIP3    H175190   4.291   3.818  14.659 -2.1557  0.5430 -1.4606
17925TIP3    H275191   4.380   3.891  14.757 -0.0900 -2.6093 -0.8280
17926TIP3   OH275192   5.075   5.255   1.223 -0.3358 -0.0217 -0.7427
17926TIP3    H175193   5.091   5.348   1.243  0.6560 -0.6321  1.5909
17926TIP3    H275194   5.151   5.210   1.259 -0.3671 -1.7035 -2.6431
17927TIP3   OH275195   1.542   2.266   6.172  0.6363 -0.0448  0.4340
17927TIP3    H175196   1.633   2.274   6.199  1.1152  1.3731 -1.4124
17927TIP3    H275197   1.521   2.350   6.131 -1.5868 -0.2462  1.0095
17928TIP3   OH275198   5.244   0.571  16.312  0.0905  0.2573  0.0370
17928TIP3    H175199   5.308   0.626  16.357 -0.8279  1.7419 -0.3933
17928TIP3    H275200   5.160   0.596  16.350 -0.2731 -1.8486  0.7907
17929TIP3   OH275201   0.437   3.230  14.715  0.1342 -0.5848 -0.0946
17929TIP3    H175202   0.425   3.317  14.676  1.5642 -0.0291  0.6381
17929TIP3    H275203   0.434   3.245  14.809 -0.9042 -1.5506  0.0429
17930TIP3   OH275204   4.581   1.671  15.713  0.0246  0.1897 -0.0089
17930TIP3    H175205   4.647   1.652  15.646 -0.1656  0.7039 -0.3483
17930TIP3    H275206   4.507   1.708  15.665 -1.5988 -2.7769  0.0134
17931TIP3   OH275207   1.510   4.901   2.503 -0.1011 -0.1522  0.1730
17931TIP3    H175208   1.423   4.936   2.483 -0.3002 -1.6300 -1.9125
17931TIP3    H275209   1.493   4.817   2.546  0.2135 -1.0737 -1.4205
17932TIP3   OH275210   6.011   3.773  16.946  0.2047 -0.0118 -0.2928
17932TIP3    H175211   5.931   3.820  16.966 -0.9184 -2.3785  1.2269
17932TIP3    H275212   5.992   3.726  16.865  1.0453  1.4405 -1.3774
17933TIP3   OH275213   2.858   3.079   1.847 -0.2927  0.1666 -0.0854
17933TIP3    H175214   2.948   3.102   1.872 -0.5567  1.7030 -0.4011
17933TIP3    H275215   2.863   3.060   1.753 -0.3590  0.7046 -0.2028
17934TIP3   OH275216   1.831   5.770  14.558  0.7155  0.2037  0.2618
17934TIP3    H175217   1.834   5.696  14.497  2.2549 -0.5957  1.2363
17934TIP3    H275218   1.771   5.743  14.627  1.4416 -0.2573  0.7278
17935TIP3   OH275219   2.193   0.477  10.800  0.1661 -0.1443  0.3125
17935TIP3    H175220   2.230   0.454  10.714  1.9898 -0.1207  1.0361
17935TIP3    H275221   2.270   0.485  10.857 -1.0004 -0.0689  1.9316
17936TIP3   OH275222   2.969   3.410  11.618  0.3252  0.1269  0.5447
17936TIP3    H175223   3.033   3.350  11.580  1.5684  0.3036  2.2070
17936TIP3    H275224   2.927   3.359  11.688 -0.8178  0.2600 -0.0191
17937TIP3   OH275225   6.787   4.968   5.424 -0.8855 -0.2130  0.0571
17937TIP3    H175226   6.869   4.986   5.469  0.3977 -1.0679 -1.7789
17937TIP3    H275227   6.756   4.886   5.461 -0.5722 -0.2135  0.3162
17938TIP3   OH275228   1.317   2.251  16.493 -0.0667  0.3523 -0.1284
17938TIP3    H175229   1.298   2.189  16.563 -1.1537 -0.1213 -0.8098
17938TIP3    H275230   1.386   2.209  16.441 -1.9219 -1.1474 -1.5546
17939TIP3   OH275231   0.517   5.403   5.640 -0.2774  0.3783 -0.6102
17939TIP3    H175232   0.444   5.348   5.668  1.1600 -0.7295  1.2426
17939TIP3    H275233   0.520   5.474   5.704 -0.1477  0.8045 -1.0840
17940TIP3   OH275234   6.008   2.903  16.087  0.7269  0.7544  0.1288
17940TIP3    H175235   5.947   2.902  16.161 -0.0457  0.7023 -0.4966
17940TIP3    H275236   6.072   2.836  16.108 -0.8768 -1.0481 -0.3596
17941TIP3   OH275237   3.727   0.718   2.037  0.4463 -0.2417  0.1229
17941TIP3    H175238   3.737   0.762   2.121  1.0052 -0.2479  0.0669
17941TIP3    H275239   3.648   0.665   2.046 -0.3118  0.8551  0.1553
17942TIP3   OH275240   3.406   6.021  11.863  0.0876 -0.0530 -0.0830
17942TIP3    H175241   3.490   6.015  11.908  0.6811  0.0541 -1.1708
17942TIP3    H275242   3.345   6.048  11.932  0.1865 -3.5248  1.5901
17943TIP3   OH275243   3.046   6.185   0.847 -0.4535  0.2149 -0.6235
17943TIP3    H175244   3.082   6.098   0.833 -0.6654  0.0702 -0.2902
17943TIP3    H275245   3.096   6.220   0.922 -2.2243 -0.7217  1.0952
17944TIP3   OH275246   2.162   6.793   2.617  0.1141  0.1509  0.1354
17944TIP3    H175247   2.182   6.822   2.705  0.1839 -0.8304  0.4528
17944TIP3    H275248   2.233   6.828   2.563  0.7384 -0.2751  0.6656
17945TIP3   OH275249   6.396   0.377   5.193  0.4817  1.0361  0.1363
17945TIP3    H175250   6.458   0.405   5.125  1.0316 -2.0487 -0.7800
17945TIP3    H275251   6.449   0.325   5.254 -0.6034  1.2303  1.3033
17946TIP3   OH275252   5.753   5.606   2.258  0.2598 -0.3046 -0.2168
17946TIP3    H175253   5.691   5.534   2.246  0.7508 -0.5870 -1.1092
17946TIP3    H275254   5.734   5.666   2.186  0.6325 -0.0989 -0.1447
17947TIP3   OH275255   1.010   3.652  13.457  0.1443  0.1556 -0.1347
17947TIP3    H175256   1.009   3.562  13.488  0.4113  0.0891 -0.3168
17947TIP3    H275257   1.090   3.690  13.493  0.3557  0.1339 -0.5763
17948TIP3   OH275258   1.909   1.147   3.802  0.4911  0.9379  0.7045
17948TIP3    H175259   1.971   1.144   3.729 -0.0891 -1.0599  0.2271
17948TIP3    H275260   1.964   1.158   3.879  1.4131  0.0057  0.2163
17949TIP3   OH275261   0.633   3.141  12.577  0.2129  0.5357  0.0985
17949TIP3    H175262   0.706   3.127  12.517 -0.3295 -1.0435 -0.2322
17949TIP3    H275263   0.675   3.144  12.664  0.6166 -1.3486  0.0129
17950TIP3   OH275264   2.797   2.064  13.922 -0.5730 -0.2180  0.1589
17950TIP3    H175265   2.723   2.006  13.904 -0.1224  0.0111 -2.9855
17950TIP3    H275266   2.810   2.058  14.017 -3.0169 -2.1673  0.4706
17951TIP3   OH275267   1.534   4.942   0.843 -0.4325 -0.8950 -0.0105
17951TIP3    H175268   1.466   5.007   0.825  1.6235  1.3812 -0.0269
17951TIP3    H275269   1.520   4.919   0.935 -1.4614 -0.8015 -0.1236
17952TIP3   OH275270   1.761   3.149  13.952 -0.5246 -1.0099 -0.3869
17952TIP3    H175271   1.790   3.203  14.026 -0.1373 -1.9364  0.1501
17952TIP3    H275272   1.709   3.079  13.992 -2.1931 -0.2861 -1.2019
17953TIP3   OH275273   1.098   1.801  14.155  0.2656 -0.1877 -0.3207
17953TIP3    H175274   1.134   1.717  14.185 -0.8121 -0.8585 -0.8625
17953TIP3    H275275   1.137   1.865  14.213  0.1532 -1.1957  0.9146
17954TIP3   OH275276   3.833   3.571  15.358 -0.1971  0.8338 -0.0922
17954TIP3    H175277   3.816   3.479  15.380  0.0587  1.0283  0.9691
17954TIP3    H275278   3.880   3.606  15.434 -0.3215  1.8584 -0.4694
17955TIP3   OH275279   3.173   4.903  14.343  0.1369 -0.4613 -0.4923
17955TIP3    H175280   3.160   4.963  14.269  0.2542 -0.1980 -0.2982
17955TIP3    H275281   3.245   4.941  14.393 -1.8318  0.9952  1.4142
17956TIP3   OH275282   2.577   6.300  13.695 -0.8407  0.3857  0.2161
17956TIP3    H175283   2.596   6.207  13.682 -0.1922  0.4009  1.0132
17956TIP3    H275284   2.486   6.302  13.725 -1.1515  0.0906 -0.6553
17957TIP3   OH275285   5.826   0.150  13.452 -0.2804  0.2875 -0.1968
17957TIP3    H175286   5.730   0.146  13.443 -0.2390 -1.3304 -0.1388
17957TIP3    H275287   5.840   0.184  13.541 -0.8544 -1.8413  0.7627
17958TIP3   OH275288   6.749   2.756   2.453  0.7297  0.4335  0.1392
17958TIP3    H175289   6.715   2.760   2.543  0.0286  1.4869 -0.1462
17958TIP3    H275290   6.735   2.666   2.426  1.2445  0.0179  1.1955
17959TIP3   OH275291   4.896   2.515   2.254  0.0368  0.3315 -0.7851
17959TIP3    H175292   4.851   2.592   2.289  0.2812 -0.9811  2.9287
17959TIP3    H275293   4.836   2.443   2.272  0.2654 -0.5496 -3.2337
17960TIP3   OH275294   5.363   3.491  16.793  0.2080  0.4693 -0.5829
17960TIP3    H175295   5.366   3.528  16.704 -3.3514  0.5195 -0.8246
17960TIP3    H275296   5.275   3.454  16.800  0.7387 -0.4394  2.6157
17961TIP3   OH275297   4.519   5.716  15.226  0.2182  0.6746 -0.1831
17961TIP3    H175298   4.452   5.777  15.257  0.7559  0.8660  0.6498
17961TIP3    H275299   4.516   5.644  15.289  0.5205  0.4969 -0.3735
17962TIP3   OH275300   5.039   2.979   2.584 -0.1683  0.1653  0.1043
17962TIP3    H175301   5.114   3.032   2.556  0.2317 -1.5338 -2.3793
17962TIP3    H275302   5.076   2.893   2.603 -1.2100 -0.0775  1.1631
17963TIP3   OH275303   5.351   5.281   3.417 -0.2474 -0.6945 -0.9017
17963TIP3    H175304   5.397   5.198   3.417  0.8518 -0.1135 -1.8186
17963TIP3    H275305   5.286   5.273   3.487  0.1346 -2.1444 -0.6935
17964TIP3   OH275306   5.234   3.515   0.699 -0.1319  0.3585  0.3103
17964TIP3    H175307   5.299   3.454   0.732 -0.9285 -0.3546  0.6155
17964TIP3    H275308   5.173   3.527   0.773 -1.7183 -0.9467 -0.7021
17965TIP3   OH275309   1.251   4.637   3.991  0.3074  0.1033  0.0673
17965TIP3    H175310   1.259   4.722   4.035 -0.2263 -0.0178  0.4122
17965TIP3    H275311   1.297   4.576   4.048 -0.2983 -0.0361  0.4204
17966TIP3   OH275312   5.705   3.275   1.551  0.5080 -0.6783 -0.0440
17966TIP3    H175313   5.639   3.267   1.482  0.2479  0.3866  0.0624
17966TIP3    H275314   5.789   3.272   1.504  0.3255  1.1678 -0.5855
17967TIP3   OH275315   0.991   5.186   2.219 -0.2538 -0.0730 -0.0316
17967TIP3    H175316   0.985   5.110   2.162 -3.2183 -0.0468  0.1172
17967TIP3    H275317   0.991   5.261   2.159  0.9394 -0.1012 -0.1008
17968TIP3   OH275318   4.102   3.703  12.953 -0.2738 -0.4632 -0.3415
17968TIP3    H175319   4.030   3.683  12.893 -0.2775 -0.4330 -0.3469
17968TIP3    H275320   4.129   3.792  12.930 -0.0531 -0.5761 -0.5253
17969TIP3   OH275321   6.032   3.628  12.730 -0.0007  0.5302 -0.1405
17969TIP3    H175322   5.970   3.610  12.658  1.0758 -1.1465 -0.7173
17969TIP3    H275323   6.045   3.543  12.771  2.0687  0.7903 -0.1751
17970TIP3   OH275324   0.810   4.252   4.121  0.3650 -0.0663 -0.2458
17970TIP3    H175325   0.784   4.332   4.166  0.9263  0.0111 -0.0564
17970TIP3    H275326   0.811   4.185   4.189 -2.0288 -0.6953 -0.7358
17971TIP3   OH275327   6.102   5.345   5.288  0.0294  0.0525 -0.2116
17971TIP3    H175328   6.076   5.257   5.261 -0.1592  0.5962 -1.8985
17971TIP3    H275329   6.021   5.384   5.322 -0.4905  0.3955 -1.7748
17972TIP3   OH275330   0.697   0.597  15.217  1.1908 -0.5878 -0.4256
17972TIP3    H175331   0.682   0.555  15.132  1.0123 -0.3578 -0.5102
17972TIP3    H275332   0.639   0.550  15.277 -1.3113  1.4482 -1.0902
17973TIP3   OH275333   4.154   0.995  13.152 -0.4938 -0.5178 -0.1730
17973TIP3    H175334   4.074   1.010  13.201  0.3228 -2.1233  1.8353
17973TIP3    H275335   4.167   0.900  13.156 -0.3144 -0.7820 -3.5508
17974TIP3   OH275336   0.452   2.916  15.153  0.6306 -0.1201 -0.0482
17974TIP3    H175337   0.513   2.879  15.216 -0.2148  2.2827  2.3651
17974TIP3    H275338   0.397   2.976  15.204 -1.9792 -0.1212 -2.5783
17975TIP3   OH275339   3.145   5.370  16.833 -0.4329 -0.6278  0.1248
17975TIP3    H175340   3.123   5.426  16.908 -1.2081 -2.4190  1.3308
17975TIP3    H275341   3.240   5.370  16.829 -0.4272  0.9618 -0.0816
17976TIP3   OH275342   3.363   1.344   3.641  0.0965 -0.6188 -0.3017
17976TIP3    H175343   3.318   1.417   3.598 -1.6235  0.0520  2.3306
17976TIP3    H275344   3.418   1.386   3.707  0.1082 -1.6565  0.3695
17977TIP3   OH275345   6.108   2.915   2.127 -0.7438  0.2458  0.1495
17977TIP3    H175346   6.096   2.952   2.040 -0.8491 -0.7161 -0.2578
17977TIP3    H275347   6.019   2.902   2.160 -0.7135  0.0432  0.1523
17978TIP3   OH275348   0.073   5.302   4.408  0.1368  0.5600  0.5913
17978TIP3    H175349   0.093   5.288   4.500  1.2961 -3.0900 -0.0677
17978TIP3    H275350   0.117   5.384   4.386  3.1684 -0.4093  2.4420
17979TIP3   OH275351   5.697   3.901  12.106 -0.0739  0.3228 -0.4476
17979TIP3    H175352   5.737   3.971  12.157  4.6597 -1.6090 -1.0465
17979TIP3    H275353   5.725   3.918  12.016 -0.6633 -1.1735 -0.9381
17980TIP3   OH275354   1.434   3.701  13.566 -0.0283  0.5091  0.1490
17980TIP3    H175355   1.410   3.638  13.498  0.3784 -1.1101  1.4371
17980TIP3    H275356   1.505   3.752  13.528 -0.4916  0.3359 -0.9988
17981TIP3   OH275357   1.518   3.467  15.803 -0.6492  0.1246  0.4920
17981TIP3    H175358   1.612   3.484  15.801 -0.2178 -1.7044  2.2363
17981TIP3    H275359   1.506   3.394  15.742 -0.8348 -0.0273  0.7104
17982TIP3   OH275360   5.691   1.421  11.675  0.7123  0.1532 -0.4211
17982TIP3    H175361   5.688   1.515  11.696 -1.6431  0.7480 -2.9088
17982TIP3    H275362   5.650   1.379  11.750  2.9154  0.8788  1.3160
17983TIP3   OH275363   1.147   0.673   4.111  0.1233  0.6903 -0.0247
17983TIP3    H175364   1.225   0.677   4.165  0.6725  1.5515 -0.8693
17983TIP3    H275365   1.112   0.762   4.110  0.3774  0.8028 -1.4419
17984TIP3   OH275366   3.846   3.215  16.222 -0.8204  0.3780  0.0992
17984TIP3    H175367   3.807   3.270  16.290 -0.7558 -0.5933  0.9483
17984TIP3    H275368   3.891   3.277  16.164 -3.0154  1.4711 -0.5381
17985TIP3   OH275369   2.071   6.688  10.720 -0.4982 -0.3347  0.0797
17985TIP3    H175370   2.117   6.761  10.679 -0.2072 -0.5145  0.0874
17985TIP3    H275371   2.122   6.667  10.798 -1.3616  0.3878  0.8683
17986TIP3   OH275372   3.824   1.303   0.543  0.6896  0.2859  0.6885
17986TIP3    H175373   3.799   1.382   0.494 -1.5362 -1.6588 -1.5891
17986TIP3    H275374   3.870   1.249   0.479 -0.4725 -1.4716  1.2633
17987TIP3   OH275375   3.995   1.518   4.432 -0.0074 -0.0073  0.4914
17987TIP3    H175376   4.051   1.458   4.384 -0.6626 -1.0183  0.9367
17987TIP3    H275377   3.942   1.461   4.488  0.2381  1.0644  1.8918
17988TIP3   OH275378   1.215   2.261   3.490 -0.0841 -0.2729  0.3051
17988TIP3    H175379   1.245   2.293   3.405  0.1986 -1.2332  0.0271
17988TIP3    H275380   1.195   2.168   3.475  0.6662 -0.6415  1.4527
17989TIP3   OH275381   6.474   3.532   3.907  0.3070 -0.2301  0.2500
17989TIP3    H175382   6.562   3.558   3.879 -0.0895 -0.1610 -0.9634
17989TIP3    H275383   6.468   3.439   3.884 -0.4308  0.1063 -0.9612
17990TIP3   OH275384   6.609   1.769  15.548  0.9064  0.1798  0.7928
17990TIP3    H175385   6.694   1.767  15.593  0.7168 -0.4008  1.1325
17990TIP3    H275386   6.597   1.861  15.524  0.6261  0.6757  2.6834
17991TIP3   OH275387   6.298   0.381  16.203 -0.3546  0.7409 -0.2907
17991TIP3    H175388   6.206   0.382  16.176  0.1886  0.8175 -2.2562
17991TIP3    H275389   6.329   0.470  16.188  0.4661  0.3053 -1.2718
17992TIP3   OH275390   4.332   6.593  16.656  0.0303 -0.4496 -0.3935
17992TIP3    H175391   4.421   6.628  16.665 -0.7573  1.4271  0.6371
17992TIP3    H275392   4.332   6.549  16.571  1.5466  0.7076 -1.0397
17993TIP3   OH275393   1.394   3.526   4.294 -0.6224  0.5122 -0.3966
17993TIP3    H175394   1.417   3.608   4.252  1.7382 -0.6300 -1.4843
17993TIP3    H275395   1.325   3.489   4.239  0.1408  0.5660 -1.4093
17994TIP3   OH275396   1.682   4.366  15.760 -0.3250 -0.7988 -0.1568
17994TIP3    H175397   1.686   4.457  15.790  0.5919 -0.7609 -0.3814
17994TIP3    H275398   1.601   4.362  15.709  1.0277  0.6461 -2.5566
17995TIP3   OH275399   2.341   0.871   2.795 -0.0269  0.2851  0.7764
17995TIP3    H175400   2.417   0.889   2.849 -1.1669  0.9256  2.2463
17995TIP3    H275401   2.269   0.917   2.839 -1.2037 -0.0279 -0.7312
17996TIP3   OH275402   2.170   0.852   2.315 -0.1772  0.1879  0.3354
17996TIP3    H175403   2.156   0.930   2.260  0.7087 -0.1432 -0.4000
17996TIP3    H275404   2.253   0.816   2.283 -0.7875 -1.3068  0.3695
17997TIP3   OH275405   0.734   3.476   4.642  0.4718  0.4779  0.2719
17997TIP3    H175406   0.813   3.460   4.694  0.7272  1.5892  0.2499
17997TIP3    H275407   0.676   3.523   4.702  0.1696  0.4338  0.0154
17998TIP3   OH275408   2.386   1.463   2.125 -0.2371 -0.6119 -0.3350
17998TIP3    H175409   2.410   1.414   2.046 -0.0189 -1.2273  0.0999
17998TIP3    H275410   2.312   1.517   2.099  0.4357 -0.0993 -1.2140
17999TIP3   OH275411   6.578   2.576  16.322  0.0708 -0.1279  0.2560
17999TIP3    H175412   6.518   2.597  16.395 -1.2954 -0.5539 -0.6982
17999TIP3    H275413   6.609   2.488  16.342  0.0294 -0.0817  0.5373
18000TIP3   OH275414   5.273   3.377   1.230  0.4629  0.1547 -0.0538
18000TIP3    H175415   5.260   3.357   1.323  1.0612 -1.0110 -0.2127
18000TIP3    H275416   5.348   3.436   1.229  1.2956 -0.8789  0.1194
18001TIP3   OH275417   6.317   0.468   4.117  0.7844  0.2002  0.3686
18001TIP3    H175418   6.240   0.431   4.074 -0.2320  2.5860 -0.0513
18001TIP3    H275419   6.282   0.510   4.196  1.8810  0.0574  0.9456
18002TIP3   OH275420   0.691   6.191  11.967 -0.1812 -0.3180 -0.0805
18002TIP3    H175421   0.682   6.283  11.990 -0.1110 -0.6748  1.4596
18002TIP3    H275422   0.766   6.189  11.907 -2.3837  1.0613 -3.1722
18003TIP3   OH275423   5.068   6.379  15.177 -0.0817  0.7571 -0.0545
18003TIP3    H175424   5.150   6.339  15.206 -1.2554 -0.6084  1.6103
18003TIP3    H275425   5.038   6.429  15.252 -2.3711 -1.4705  0.6451
18004TIP3   OH275426   5.818   4.712   0.307 -0.3813 -0.0129 -0.1324
18004TIP3    H175427   5.773   4.628   0.299  1.4880 -1.0201 -0.6265
18004TIP3    H275428   5.787   4.763   0.232 -1.1209 -0.4570 -0.1383
18005TIP3   OH275429   3.868   1.555   5.879  0.2918  0.1798 -0.2243
18005TIP3    H175430   3.820   1.560   5.962 -0.6006 -1.0990 -0.6205
18005TIP3    H275431   3.888   1.646   5.858  0.8921  0.5172  1.5705
18006TIP3   OH275432   2.015   6.137   2.989 -1.0332  0.6586 -0.1381
18006TIP3    H175433   1.924   6.160   2.973 -1.4897 -0.6374  0.4132
18006TIP3    H275434   2.019   6.119   3.083 -0.2610  0.4776 -0.1949
18007TIP3   OH275435   1.790   0.985  15.713 -0.4474  0.2173  0.1683
18007TIP3    H175436   1.827   0.909  15.668 -1.8896  0.6931 -2.0195
18007TIP3    H275437   1.750   0.950  15.792  0.6405 -0.9610  0.2252
18008TIP3   OH275438   2.129   5.138  11.929 -0.0418 -0.1949 -0.5279
18008TIP3    H175439   2.196   5.201  11.902 -0.1501  0.1466 -0.0217
18008TIP3    H275440   2.179   5.064  11.964  0.2006 -1.7321 -3.7801
18009TIP3   OH275441   1.842   2.109  13.410  0.1660  0.0648  0.6095
18009TIP3    H175442   1.933   2.081  13.399  0.2878  0.5202  0.4337
18009TIP3    H275443   1.802   2.040  13.463 -0.0058 -1.4094 -1.3180
18010TIP3   OH275444   1.909   2.775   2.438  0.0250  0.1665  0.8742
18010TIP3    H175445   1.896   2.869   2.450 -0.3753  0.1917  0.2535
18010TIP3    H275446   1.821   2.740   2.426  0.1431 -0.3353  1.4203
18011TIP3   OH275447   5.721   2.211   0.565 -0.0604  0.0127 -0.7920
18011TIP3    H175448   5.789   2.223   0.632 -0.1317  0.5916 -0.8184
18011TIP3    H275449   5.639   2.212   0.614 -0.0264 -1.4558 -0.6646
18012TIP3   OH275450   5.486   3.500   2.167 -0.0263 -0.4146  0.6561
18012TIP3    H175451   5.539   3.532   2.241 -1.3122  1.9575  0.6475
18012TIP3    H275452   5.402   3.476   2.206 -0.7349  0.9024  0.0128
18013TIP3   OH275453   1.805   6.554   4.328 -0.7447  0.1960 -0.0681
18013TIP3    H175454   1.877   6.553   4.265 -1.0507  1.2134 -0.4599
18013TIP3    H275455   1.732   6.513   4.281 -0.6394 -0.1223  0.0474
18014TIP3   OH275456   5.351   0.424  15.746 -0.4791  0.3025 -0.8334
18014TIP3    H175457   5.298   0.472  15.682 -2.5520 -1.6096 -0.6703
18014TIP3    H275458   5.372   0.341  15.703  1.0477  0.3607 -0.2657
18015TIP3   OH275459   2.661   3.178  15.747  1.2162 -0.6325  0.1367
18015TIP3    H175460   2.574   3.165  15.710  1.3255  0.9097 -0.7491
18015TIP3    H275461   2.669   3.110  15.813 -0.1450 -1.6276 -0.6635
18016TIP3   OH275462   3.883   0.707   1.045  0.4543 -0.5325 -0.3935
18016TIP3    H175463   3.851   0.675   0.961  0.7842 -2.5354  0.1893
18016TIP3    H275464   3.812   0.761   1.079  0.2524  0.1722 -1.8581
18017TIP3   OH275465   5.381   1.242  14.001 -0.0826  0.4453  0.0747
18017TIP3    H175466   5.373   1.263  14.094 -0.8511 -2.0837  0.6689
18017TIP3    H275467   5.309   1.182  13.983  2.3702 -2.4623 -1.0344
18018TIP3   OH275468   5.668   3.856   4.757  0.2540 -0.6228  0.3418
18018TIP3    H175469   5.583   3.872   4.798 -0.2717 -2.6593  0.1662
18018TIP3    H275470   5.725   3.831   4.830  1.0557  1.7796  0.6149
18019TIP3   OH275471   0.650   4.461  14.833 -0.2266  0.1275  0.2199
18019TIP3    H175472   0.594   4.465  14.755 -0.9272  0.7308  0.7413
18019TIP3    H275473   0.601   4.507  14.901  0.7810  0.4314  0.7744
18020TIP3   OH275474   3.838   4.617   0.011  0.2054  0.1697  0.3466
18020TIP3    H175475   3.891   4.567  -0.051  1.3547  1.0998  0.5385
18020TIP3    H275476   3.785   4.675  -0.043 -0.8244 -0.9388  0.1420
18021TIP3   OH275477   0.074   0.595  12.579  0.9528  0.0474 -0.0600
18021TIP3    H175478   0.080   0.572  12.486  0.0589 -1.6870  0.2587
18021TIP3    H275479   0.139   0.539  12.621  0.6667  0.0907  0.4484
18022TIP3   OH275480   2.268   4.530  11.598 -0.1849  0.6539 -0.1026
18022TIP3    H175481   2.297   4.505  11.686 -1.1668  2.6742  0.8841
18022TIP3    H275482   2.190   4.583  11.614  0.3542  2.1506 -2.1147
18023TIP3   OH275483   6.723   1.959   3.371 -0.2113 -0.0920  0.5442
18023TIP3    H175484   6.696   2.051   3.378 -0.9123 -0.3390  1.0930
18023TIP3    H275485   6.699   1.920   3.455 -0.1185 -0.8361  0.2285
18024TIP3   OH275486   2.749   0.614  16.507  0.1156 -0.7915  0.9269
18024TIP3    H175487   2.673   0.634  16.561 -1.1112  1.1342 -1.2855
18024TIP3    H275488   2.716   0.552  16.442  0.9510 -1.3662  1.0330
18025TIP3   OH275489   2.872   1.033   4.874 -0.0265  0.0615 -0.0103
18025TIP3    H175490   2.965   1.009   4.877 -0.2629 -0.9792 -0.6060
18025TIP3    H275491   2.835   0.977   4.806 -1.4818 -0.8513  1.4632
18026TIP3   OH275492   5.344   0.499  12.996  0.0263  0.0381  0.4239
18026TIP3    H175493   5.329   0.499  12.901 -1.9935  1.8864  0.6449
18026TIP3    H275494   5.369   0.409  13.017  0.1405 -0.5098 -1.7959
18027TIP3   OH275495   4.890   0.693   3.050 -0.3514 -0.9415 -0.0597
18027TIP3    H175496   4.912   0.761   2.986  0.9598 -0.9598  0.3323
18027TIP3    H275497   4.825   0.639   3.006 -0.7825  0.0696 -0.7005
18028TIP3   OH275498   1.518   5.424  11.529  0.6530  0.3697 -0.3189
18028TIP3    H175499   1.598   5.386  11.565  1.0483  0.2743 -1.2517
18028TIP3    H275500   1.526   5.518  11.548  0.2497  0.1557  0.9281
18029TIP3   OH275501   2.877   6.635  15.512 -0.1234 -0.2581  0.2168
18029TIP3    H175502   2.896   6.583  15.590 -3.0037 -3.1568 -0.7669
18029TIP3    H275503   2.841   6.572  15.449 -1.8964  2.5876 -1.8915
18030TIP3   OH275504   3.258   4.183   0.426  0.0274  0.1483 -0.0555
18030TIP3    H175505   3.222   4.149   0.344  1.2310  1.8692 -1.3701
18030TIP3    H275506   3.292   4.105   0.471 -2.0045 -1.0257 -0.4171
18031TIP3   OH275507   3.129   4.816   1.814  0.1461 -0.8042  0.0214
18031TIP3    H175508   3.206   4.864   1.782 -0.0034 -1.4727 -1.4053
18031TIP3    H275509   3.163   4.762   1.885  0.5870  0.3535  0.7266
18032TIP3   OH275510   5.244   6.311  12.995  0.4169 -0.3842 -0.3068
18032TIP3    H175511   5.272   6.352  13.076  0.3009 -0.8994  0.0028
18032TIP3    H275512   5.315   6.328  12.933  1.5634 -1.8961  0.5262
18033TIP3   OH275513   1.246   5.358  11.614  0.2470  0.0401 -0.1515
18033TIP3    H175514   1.247   5.304  11.694  1.5146 -2.2631 -1.6243
18033TIP3    H275515   1.326   5.410  11.620  1.5318 -1.7623 -0.9001
18034TIP3   OH275516   2.737   6.481  15.017  0.3597 -0.0159  0.3670
18034TIP3    H175517   2.734   6.560  14.962  0.9766  0.9015  1.6018
18034TIP3    H275518   2.709   6.410  14.959  1.3783  0.8456 -1.2491
18035TIP3   OH275519   5.298   1.272   6.325 -0.2275 -0.9688  0.2198
18035TIP3    H175520   5.349   1.227   6.392  0.3657 -0.5460  0.0570
18035TIP3    H275521   5.302   1.214   6.249 -1.9895 -2.0901  0.9142
18036TIP3   OH275522   4.434   6.560  14.470  0.1403  0.4674  0.0729
18036TIP3    H175523   4.384   6.529  14.395  0.8347 -0.3744 -0.0655
18036TIP3    H275524   4.519   6.585  14.433  0.8969 -1.0299  0.6925
18037TIP3   OH275525   3.132   3.702  12.570 -0.3017  0.1827 -0.7545
18037TIP3    H175526   3.051   3.673  12.612  0.7922 -0.0947  1.2964
18037TIP3    H275527   3.111   3.788  12.535 -1.2199  0.5609  0.6287
18038TIP3   OH275528   2.742   2.719  14.634  0.6043 -0.6348  0.0002
18038TIP3    H175529   2.715   2.790  14.693 -2.6085 -2.3667  0.8327
18038TIP3    H275530   2.800   2.762  14.571  1.1264  2.0890  2.1317
18039TIP3   OH275531   5.566   0.110  13.578 -0.2798  0.6865  0.2472
18039TIP3    H175532   5.566   0.027  13.627 -0.1351  0.4570 -0.1361
18039TIP3    H275533   5.487   0.155  13.606 -0.1807  0.5722  0.7195
18040TIP3   OH275534   4.333   0.666  12.206 -0.4128 -0.2975  0.6347
18040TIP3    H175535   4.254   0.718  12.191 -0.2730 -0.2636 -0.0353
18040TIP3    H275536   4.400   0.707  12.151 -0.0575 -0.6274  0.8110
18041TIP3   OH275537   1.312   1.670   0.686  0.2676  0.3273  0.0732
18041TIP3    H175538   1.336   1.592   0.636 -0.8060  0.4556 -0.6835
18041TIP3    H275539   1.387   1.686   0.743  2.1557  0.8781 -2.3500
18042TIP3   OH275540   0.923   1.583   2.491 -0.2431  0.8135  0.2349
18042TIP3    H175541   0.872   1.614   2.566 -0.9312  0.9559 -0.2859
18042TIP3    H275542   0.858   1.547   2.431  0.2380  1.3079 -0.5905
18043TIP3   OH275543   4.733   4.928  11.617  0.0984  0.1863 -0.4374
18043TIP3    H175544   4.726   4.957  11.526 -0.3268  1.5879  0.0239
18043TIP3    H275545   4.827   4.922  11.633  0.1803 -0.9118 -1.2106
18044TIP3   OH275546   3.189   5.722   1.729  0.7077 -0.0526  0.3898
18044TIP3    H175547   3.163   5.695   1.641 -0.7853  0.5785  0.6009
18044TIP3    H275548   3.206   5.816   1.721 -1.6369  0.5052  1.1806
18045TIP3   OH275549   1.367   5.404   0.648  0.0175 -0.2049  0.7359
18045TIP3    H175550   1.282   5.406   0.693 -0.2393 -0.0636  0.2481
18045TIP3    H275551   1.430   5.428   0.716 -0.2371 -1.1337  1.3169
18046TIP3   OH275552   0.915   5.117   4.283  0.2242 -0.2137  0.2082
18046TIP3    H175553   0.840   5.057   4.288  0.5717 -0.7455 -0.6070
18046TIP3    H275554   0.878   5.201   4.257 -0.0041 -0.7175 -1.2011
18047TIP3   OH275555   4.968   1.245   1.087  0.4995  0.6219 -0.2832
18047TIP3    H175556   4.982   1.169   1.030 -0.9309 -0.0488  0.1942
18047TIP3    H275557   4.873   1.253   1.093  0.6069  1.1285  1.4150
18048TIP3   OH275558   0.394   0.776   3.935 -0.0207  0.1420 -0.2565
18048TIP3    H175559   0.399   0.754   3.842  0.5356 -0.5520 -0.0709
18048TIP3    H275560   0.418   0.868   3.939 -0.8984  0.4161 -0.8888
18049TIP3   OH275561   1.949   5.499  12.629  0.2177 -0.5268  0.0726
18049TIP3    H175562   1.924   5.591  12.629 -2.3195 -1.1375 -0.5119
18049TIP3    H275563   1.973   5.480  12.538  1.1115 -0.3596  0.2708
18050TIP3   OH275564   3.574   3.108  13.449  0.1033 -0.0824  0.0300
18050TIP3    H175565   3.555   3.022  13.410  2.0963 -0.6569  0.1894
18050TIP3    H275566   3.585   3.166  13.374  0.5590 -0.4148 -0.1746
18051TIP3   OH275567   3.562   0.445  11.137 -0.0301  0.3481  0.2833
18051TIP3    H175568   3.650   0.482  11.145  0.6438 -1.3808  1.2076
18051TIP3    H275569   3.573   0.368  11.082 -0.6365 -0.8213  1.7286
18052TIP3   OH275570   6.510   0.698   4.844  0.1148  0.1427 -0.1343
18052TIP3    H175571   6.495   0.685   4.751 -2.3500  0.8939  0.0815
18052TIP3    H275572   6.582   0.761   4.849  0.2063  0.1730 -1.5152
18053TIP3   OH275573   2.664   2.926   4.119  0.0463 -0.2700  0.0504
18053TIP3    H175574   2.680   2.975   4.038  0.4338  0.9735  0.8397
18053TIP3    H275575   2.572   2.944   4.139 -0.3494 -1.4264 -0.6348
18054TIP3   OH275576   5.112   6.437  14.240 -0.0754 -0.0760  0.3353
18054TIP3    H175577   5.069   6.522  14.250  1.2920  1.0280 -2.2611
18054TIP3    H275578   5.062   6.394  14.170  0.6791 -0.3669 -0.0367
18055TIP3   OH275579   4.685   5.738  17.045 -0.0052 -0.3617  0.2464
18055TIP3    H175580   4.612   5.795  17.020 -0.7630 -1.6273 -0.5001
18055TIP3    H275581   4.649   5.650  17.044  1.1060 -0.8642  1.5670
18056TIP3   OH275582   0.761   3.472  12.816 -0.1698 -0.2751  0.3697
18056TIP3    H175583   0.730   3.409  12.881  0.6370 -0.8330  0.2281
18056TIP3    H275584   0.824   3.526  12.863 -0.9863  0.5692  0.5391
18057TIP3   OH275585   4.895   3.626  13.946  0.2484 -0.2127 -0.6087
18057TIP3    H175586   4.831   3.559  13.972 -1.3995  1.0524 -1.2978
18057TIP3    H275587   4.878   3.641  13.854  1.5667  0.1668 -0.8079
18058TIP3   OH275588   2.314   6.721   1.419  0.1919  0.2472  0.4526
18058TIP3    H175589   2.409   6.716   1.420  0.1604 -0.9053 -0.4895
18058TIP3    H275590   2.294   6.808   1.384  0.9209 -0.2283 -1.2392
18059TIP3   OH275591   6.816   5.832  13.315  0.1592 -0.0781 -0.4630
18059TIP3    H175592   6.862   5.809  13.235  2.0673 -3.0906  1.2993
18059TIP3    H275593   6.864   5.907  13.349 -0.7887  1.3503 -2.1369
18060TIP3   OH275594   3.049   1.299  11.098 -0.4019  0.1240 -0.4822
18060TIP3    H175595   3.088   1.375  11.053 -1.0511 -0.0435 -1.3708
18060TIP3    H275596   3.123   1.241  11.115  0.1101  0.9509  0.2192
18061TIP3   OH275597   2.051   2.919  14.576  0.2937 -0.1116 -0.4009
18061TIP3    H175598   1.994   2.979  14.624  1.9293  0.5324  0.8302
18061TIP3    H275599   2.016   2.832  14.594 -1.3039  0.3480 -1.1091
18062TIP3   OH275600   0.197   4.836   2.819  0.0041 -0.1975 -0.3729
18062TIP3    H175601   0.112   4.855   2.779 -1.9396 -1.1738  2.8997
18062TIP3    H275602   0.258   4.898   2.779 -2.7195  2.0777 -1.2764
18063TIP3   OH275603   6.657   3.389   5.309  0.1016 -0.1193 -0.0279
18063TIP3    H175604   6.741   3.360   5.345 -0.5686 -0.7572  1.0781
18063TIP3    H275605   6.599   3.313   5.319 -1.5226  1.3108  2.3323
18064TIP3   OH275606   1.568   1.495  16.318 -0.2979  0.0535 -0.3013
18064TIP3    H175607   1.620   1.575  16.327 -1.4440  0.7422  0.3419
18064TIP3    H275608   1.540   1.475  16.408  1.1233 -1.8735 -0.2216
18065TIP3   OH275609   0.279   3.868   0.423  0.4768  0.1565  0.0847
18065TIP3    H175610   0.321   3.950   0.398  1.3442 -0.0993  0.6558
18065TIP3    H275611   0.340   3.827   0.484  0.2052 -1.0507 -0.4107
18066TIP3   OH275612   6.455   5.477  14.859 -0.2947 -0.0256  0.4753
18066TIP3    H175613   6.488   5.403  14.909 -1.4287 -0.2328  0.9328
18066TIP3    H275614   6.360   5.473  14.868 -0.4071  1.1560  0.0437
18067TIP3   OH275615   1.886   4.024   1.448  0.3600  0.2147 -0.1889
18067TIP3    H175616   1.831   4.031   1.526 -1.4778  0.8795 -1.4632
18067TIP3    H275617   1.967   3.983   1.479 -0.9136 -1.0168  1.7370
18068TIP3   OH275618   1.277   1.268  12.856  0.1221  0.1747  0.2398
18068TIP3    H175619   1.339   1.300  12.790  0.8804 -1.2363  0.2374
18068TIP3    H275620   1.191   1.285  12.818  0.5444 -1.1948 -1.4408
18069TIP3   OH275621   0.966   5.702  11.828  0.3832  0.0987 -0.2042
18069TIP3    H175622   0.986   5.780  11.776  0.3566  0.3866  0.2203
18069TIP3    H275623   0.974   5.730  11.919  0.7713 -0.4960 -0.0449
18070TIP3   OH275624   6.342   5.906   5.451 -0.3944  0.5253 -1.1248
18070TIP3    H175625   6.285   5.841   5.491  0.7645 -0.0495 -0.3521
18070TIP3    H275626   6.371   5.866   5.369 -1.2624  0.9143 -1.6331
18071TIP3   OH275627   4.412   3.618   4.314 -0.6726 -0.1489  0.6452
18071TIP3    H175628   4.465   3.697   4.300  0.0336 -0.9087 -1.3860
18071TIP3    H275629   4.324   3.643   4.288 -0.4246 -0.0597 -0.1244
18072TIP3   OH275630   0.236   0.336  11.239  0.7261 -0.2354  0.2750
18072TIP3    H175631   0.256   0.380  11.322  1.5356 -0.2032  0.0704
18072TIP3    H275632   0.148   0.366  11.217  0.5754 -0.0942  1.0251
18073TIP3   OH275633   4.302   5.329   1.849 -0.4892  0.5320 -0.2813
18073TIP3    H175634   4.313   5.248   1.897 -1.8552  0.5279  0.0679
18073TIP3    H275635   4.382   5.339   1.798 -0.2011 -0.8935 -0.1273
18074TIP3   OH275636   5.221   1.419  17.122 -0.4105 -0.3339 -0.0393
18074TIP3    H175637   5.234   1.335  17.167 -0.9940 -0.2664  0.2608
18074TIP3    H275638   5.278   1.480  17.169  0.5064 -0.6920 -0.6600
18075TIP3   OH275639   1.654   2.513  16.816  0.4623  0.0565 -0.0562
18075TIP3    H175640   1.735   2.480  16.854 -0.5761 -1.8925  0.6573
18075TIP3    H275641   1.599   2.534  16.892  0.4322  1.7890 -0.5254
18076TIP3   OH275642   3.902   1.876  15.919 -0.3656 -0.2215 -0.5370
18076TIP3    H175643   3.996   1.893  15.928 -0.1382 -1.6652  0.1035
18076TIP3    H275644   3.897   1.807  15.853 -0.9605 -0.3750 -0.3349
18077TIP3   OH275645   5.382   5.517   2.956 -0.0037  0.5059  0.3150
18077TIP3    H175646   5.443   5.589   2.943 -1.2877  1.6513  0.4362
18077TIP3    H275647   5.403   5.482   3.042  1.6352 -0.2957 -0.3685
18078TIP3   OH275648   2.521   1.061  11.070 -0.8472 -0.1623  0.5479
18078TIP3    H175649   2.464   1.055  11.147 -2.0116  1.5215 -0.1237
18078TIP3    H275650   2.549   1.152  11.069 -2.0805  0.2461 -1.8394
18079TIP3   OH275651   6.421   1.594   5.176 -0.1935 -0.2225 -0.5192
18079TIP3    H175652   6.479   1.524   5.207 -0.0611  0.4933  0.9179
18079TIP3    H275653   6.451   1.612   5.087  1.3162 -0.3899 -0.0726
18080TIP3   OH275654   6.304   3.945   6.274  0.4380 -0.3094 -0.2862
18080TIP3    H175655   6.241   3.956   6.345 -0.5902 -1.4867 -0.9744
18080TIP3    H275656   6.345   3.860   6.290  0.1939 -0.5896 -1.0876
18081TIP3   OH275657   3.270   2.043  11.739 -0.4907  0.4891  0.0979
18081TIP3    H175658   3.340   2.081  11.686 -0.6728 -0.8264 -1.1476
18081TIP3    H275659   3.190   2.083  11.706 -0.7266 -1.1825 -1.5066
18082TIP3   OH275660   5.385   5.994   4.326 -0.3105 -0.9158  0.1529
18082TIP3    H175661   5.290   6.000   4.319 -0.1861  2.1380 -0.2787
18082TIP3    H275662   5.414   5.968   4.238 -0.7273 -0.8540 -0.0028
18083TIP3   OH275663   3.995   2.572   4.510 -0.6179  0.3200 -0.2703
18083TIP3    H175664   3.995   2.498   4.571 -0.9624 -0.2361 -0.9229
18083TIP3    H275665   3.902   2.593   4.499 -0.5219  0.8115 -0.1344
18084TIP3   OH275666   3.174   1.336  13.380  0.3252 -0.5022  0.0708
18084TIP3    H175667   3.109   1.405  13.395 -0.0489 -1.0373  1.0057
18084TIP3    H275668   3.226   1.333  13.460  0.5574 -1.0670 -0.0924
18085TIP3   OH275669   0.832   4.773  16.205  0.3923 -0.7761  0.1054
18085TIP3    H175670   0.893   4.811  16.143 -1.5620  0.3780 -1.2224
18085TIP3    H275671   0.782   4.848  16.238 -2.0969 -1.8730 -0.9256
18086TIP3   OH275672   2.989   5.627  13.903 -0.1731 -0.3425 -0.2639
18086TIP3    H175673   2.895   5.611  13.892 -0.1473  0.4812 -2.1035
18086TIP3    H275674   3.006   5.610  13.996 -2.6148  1.9456  0.7181
18087TIP3   OH275675   5.265   5.211  13.384 -0.1244  0.1220 -0.0801
18087TIP3    H175676   5.287   5.292  13.430 -0.9317  0.7985 -0.8536
18087TIP3    H275677   5.327   5.207  13.312  3.4650 -2.6567  2.7338
18088TIP3   OH275678   4.149   3.939  11.232 -0.1574  0.1781  0.0801
18088TIP3    H175679   4.059   3.949  11.200  0.5090 -0.7931 -2.4050
18088TIP3    H275680   4.153   3.848  11.261  0.4468 -0.4092 -1.6608
18089TIP3   OH275681   1.018   3.690  10.864  0.0018  0.2257 -0.0690
18089TIP3    H175682   0.944   3.740  10.830 -0.3020  0.0368  0.3239
18089TIP3    H275683   1.051   3.743  10.937  0.4083  0.4294 -0.3908
18090TIP3   OH275684   4.531   3.518  16.674  0.2173  0.0781 -0.0592
18090TIP3    H175685   4.440   3.545  16.684  0.0174 -0.7603  0.5829
18090TIP3    H275686   4.582   3.594  16.701 -0.3198 -0.2634  2.1015
18091TIP3   OH275687   2.891   1.422  16.218  0.1549  0.1422 -0.7966
18091TIP3    H175688   2.874   1.428  16.124  2.1593  0.5250 -1.1756
18091TIP3    H275689   2.965   1.363  16.226  1.9859  2.4145  0.2411
18092TIP3   OH275690   5.656   3.412   5.127  0.0285  0.0419  0.2422
18092TIP3    H175691   5.706   3.402   5.207 -0.0964 -3.4225  0.0536
18092TIP3    H275692   5.565   3.398   5.153  0.1498 -3.3400 -0.6061
18093TIP3   OH275693   6.531   6.807  13.463 -0.2226 -0.0642 -0.5639
18093TIP3    H175694   6.570   6.887  13.498 -2.5234  0.4187  1.2200
18093TIP3    H275695   6.441   6.808  13.496 -0.3678 -3.3955 -0.4481
18094TIP3   OH275696   3.705   4.954   5.587  0.0098 -0.0436 -0.4571
18094TIP3    H175697   3.662   5.037   5.607  0.4057  0.6845 -2.4402
18094TIP3    H275698   3.634   4.891   5.578 -0.3238  0.1641  0.5499
18095TIP3   OH275699   4.962   5.010  11.780 -0.0662 -0.2777 -0.3688
18095TIP3    H175700   4.926   5.072  11.844 -0.7168  0.2470 -1.2151
18095TIP3    H275701   5.037   4.971  11.824 -1.4332 -1.1284  1.3351
18096TIP3   OH275702   2.500   0.845   3.225 -0.1740  0.0492  0.5254
18096TIP3    H175703   2.515   0.874   3.135 -0.1463 -2.3850 -0.3081
18096TIP3    H275704   2.407   0.824   3.229  0.2939 -2.4036  0.1960
18097TIP3   OH275705   6.381   0.219   1.789 -0.3498 -0.2137 -0.7874
18097TIP3    H175706   6.301   0.171   1.769 -0.5394  0.3596 -1.4303
18097TIP3    H275707   6.381   0.226   1.885 -0.2596 -1.5618 -0.6697
18098TIP3   OH275708   5.567   3.638  15.834 -0.4578 -0.1005 -0.2193
18098TIP3    H175709   5.572   3.730  15.858  2.8949  0.0568 -0.9978
18098TIP3    H275710   5.542   3.639  15.741 -0.0528  0.0323 -0.3252
18099TIP3   OH275711   0.175   2.735   0.559  0.2620  0.6898  0.5171
18099TIP3    H175712   0.088   2.700   0.579  0.4149  0.0026  0.0174
18099TIP3    H275713   0.160   2.827   0.537 -0.2432  0.7620  1.1429
18100TIP3   OH275714   5.103   1.015  15.148  0.0607 -0.0964  0.8089
18100TIP3    H175715   5.117   1.042  15.058  0.2415 -2.5266  0.0326
18100TIP3    H275716   5.177   0.958  15.169  0.5965  1.2479  2.9060
18101TIP3   OH275717   3.980   3.429   4.405 -0.6714  0.0589 -0.6375
18101TIP3    H175718   4.028   3.445   4.324 -0.9555  0.6290 -0.7019
18101TIP3    H275719   3.966   3.334   4.407  2.3870 -0.4669  0.5090
18102TIP3   OH275720   1.125   6.329   2.083 -0.1342 -0.5597 -0.5603
18102TIP3    H175721   1.165   6.242   2.077 -0.6357 -0.9351  1.0279
18102TIP3    H275722   1.112   6.343   2.177 -2.0940  0.3006 -0.9163
18103TIP3   OH275723   5.697   6.665  13.370 -0.0977 -0.1744  0.3536
18103TIP3    H175724   5.669   6.678  13.461 -0.0993  0.0671  0.3197
18103TIP3    H275725   5.642   6.594  13.338 -0.1321 -0.2283  0.5268
18104TIP3   OH275726   4.107   4.742  14.474 -0.3811  0.4015 -0.7534
18104TIP3    H175727   4.060   4.670  14.433 -2.0393  0.7128  0.5068
18104TIP3    H275728   4.198   4.711  14.480 -0.8482 -1.1397 -1.1535
18105TIP3   OH275729   6.802   2.914   3.067 -0.2957  0.1940  0.6017
18105TIP3    H175730   6.742   2.840   3.067  0.7471 -0.6721  0.6590
18105TIP3    H275731   6.781   2.962   2.987 -0.0370 -0.9632 -0.1802
18106TIP3   OH275732   2.059   2.107  16.151 -0.3842  0.5412 -0.2542
18106TIP3    H175733   2.111   2.178  16.189  0.0097 -0.2816  0.8100
18106TIP3    H275734   2.044   2.047  16.224  0.6517 -1.2658 -1.4501
18107TIP3   OH275735   0.864   3.077   1.208  0.1846 -0.1859 -0.0167
18107TIP3    H175736   0.771   3.064   1.191  0.0499 -2.1484  1.8304
18107TIP3    H275737   0.867   3.120   1.294  0.9820  0.1572 -0.2063
18108TIP3   OH275738   6.576   3.264  10.993  0.3156  0.0624 -0.1721
18108TIP3    H175739   6.576   3.279  10.898 -0.9120  0.4569 -0.1303
18108TIP3    H275740   6.583   3.169  11.002  2.1332  0.1107 -0.5898
18109TIP3   OH275741   4.337   6.457   0.343 -0.1198 -0.0846 -0.0575
18109TIP3    H175742   4.268   6.483   0.404 -0.7705 -1.2467 -0.2794
18109TIP3    H275743   4.294   6.453   0.258  0.3511 -0.2975 -0.2914
18110TIP3   OH275744   4.506   4.678   0.354  0.4490  0.0369  0.1969
18110TIP3    H175745   4.577   4.734   0.322 -0.4991  0.6683 -0.8948
18110TIP3    H275746   4.545   4.591   0.360  0.8221 -0.0639 -2.4390
18111TIP3   OH275747   4.351   4.602  14.556  0.4661  0.1193  0.0292
18111TIP3    H175748   4.439   4.572  14.534  0.6746  0.5742  0.2430
18111TIP3    H275749   4.345   4.595  14.651  0.0769 -0.4336 -0.0300
18112TIP3   OH275750   2.089   0.077  11.324 -0.4855  0.4615  0.3051
18112TIP3    H175751   2.151   0.131  11.373 -0.6660  0.3774  0.6307
18112TIP3    H275752   2.144   0.013  11.279 -0.3109  0.5908  0.3332
18113TIP3   OH275753   1.401   6.561   5.041 -0.1467  0.1867  0.0200
18113TIP3    H175754   1.455   6.554   5.120 -0.0870  0.8802  0.0509
18113TIP3    H275755   1.340   6.632   5.060  0.4763  0.9974 -0.8926
18114TIP3   OH275756   4.005   5.636   4.305  0.3818 -0.7286  0.2458
18114TIP3    H175757   4.019   5.719   4.261  2.3574 -0.6195  0.9890
18114TIP3    H275758   3.989   5.660   4.397 -1.6490 -1.0672  0.0353
18115TIP3   OH275759   4.519   5.721   1.690  0.0922  0.1958 -0.0935
18115TIP3    H175760   4.586   5.745   1.626 -1.4450  0.6283 -1.6074
18115TIP3    H275761   4.456   5.669   1.641 -0.7920 -0.0440  1.2340
18116TIP3   OH275762   6.449   2.908  13.576 -0.5848  0.2572  0.3261
18116TIP3    H175763   6.511   2.886  13.646 -1.7856 -1.4455  0.9282
18116TIP3    H275764   6.386   2.967  13.617 -1.1138 -0.4992  0.6303
18117TIP3   OH275765   2.111   0.499   2.081 -0.0211 -0.3286 -0.6152
18117TIP3    H175766   2.131   0.462   1.994 -1.8694 -0.4140 -1.0477
18117TIP3    H275767   2.063   0.580   2.062 -2.4164 -1.4501  0.2443
18118TIP3   OH275768   6.560   1.205   1.972 -0.1884 -0.2018 -0.0120
18118TIP3    H175769   6.615   1.226   2.048  0.5982 -0.9122 -0.3797
18118TIP3    H275770   6.494   1.144   2.006  0.5611 -1.0349 -0.0367
18119TIP3   OH275771   0.498   4.476  15.848  0.4788 -0.1894 -1.0514
18119TIP3    H175772   0.509   4.563  15.886 -0.2931 -0.7021  0.4388
18119TIP3    H275773   0.587   4.446  15.830  0.8108  0.5121 -0.6180
18120TIP3   OH275774   1.684   3.525  16.134  0.2916 -0.2826  0.3733
18120TIP3    H175775   1.659   3.616  16.152 -1.7897 -1.0759  1.8832
18120TIP3    H275776   1.779   3.523  16.146  1.0178  2.3964 -3.2110
18121TIP3   OH275777   4.394   6.470  16.389 -0.4750  0.3867 -0.0301
18121TIP3    H175778   4.455   6.397  16.402 -1.0300 -0.2673 -0.9865
18121TIP3    H275779   4.447   6.540  16.352  0.1905  0.7143  1.4634
18122TIP3   OH275780   2.203   6.212  15.642  0.7039 -0.1182  0.2706
18122TIP3    H175781   2.292   6.192  15.670  0.2492 -2.2842  0.3049
18122TIP3    H275782   2.213   6.289  15.585  2.1985  1.4618  2.5159
18123TIP3   OH275783   1.370   6.112  12.744 -0.4701  0.1499 -0.1128
18123TIP3    H175784   1.369   6.045  12.677  1.6224 -0.7243  0.6436
18123TIP3    H275785   1.445   6.089  12.800  1.8775  4.3225 -1.1200
18124TIP3   OH275786   3.031   0.731  15.394 -0.3760 -0.1926 -0.4431
18124TIP3    H175787   3.126   0.722  15.393 -0.4538 -1.2443 -1.5628
18124TIP3    H275788   3.015   0.810  15.445  1.0565 -0.3407  0.3001
18125TIP3   OH275789   0.665   5.565   4.370 -0.0862  0.1041  0.1046
18125TIP3    H175790   0.686   5.476   4.396  1.9742  0.4553 -0.1352
18125TIP3    H275791   0.582   5.585   4.414 -0.2544 -1.6800  0.6723
18126TIP3   OH275792   1.985   3.145   2.210  0.4110 -0.0347 -0.4897
18126TIP3    H175793   1.980   3.056   2.174  1.5964 -0.8242  1.1535
18126TIP3    H275794   2.063   3.182   2.169 -1.3353  1.1612 -2.9430
18127TIP3   OH275795   3.442   1.314   6.111  0.3298 -0.6246  0.1585
18127TIP3    H175796   3.491   1.327   6.030 -1.6540  0.0567 -1.0269
18127TIP3    H275797   3.441   1.400   6.153  0.4505 -0.7216  0.3617
18128TIP3   OH275798   1.843   1.852  11.392  0.7334  0.5089  0.1307
18128TIP3    H175799   1.831   1.933  11.341  0.2674  1.4458  1.6595
18128TIP3    H275800   1.820   1.782  11.331 -0.4490  1.6208 -0.7580
18129TIP3   OH275801   6.449   1.750  11.475  0.2274  0.4012 -0.3646
18129TIP3    H175802   6.416   1.786  11.392 -0.6597 -2.0545 -1.1603
18129TIP3    H275803   6.381   1.772  11.539  0.0806  0.8120 -0.6554
18130TIP3   OH275804   5.066   5.387   6.061  0.3583 -0.7015  0.0323
18130TIP3    H175805   5.063   5.302   6.105  0.4160  0.2395  2.0005
18130TIP3    H275806   5.049   5.450   6.132 -1.3705  0.8525 -1.6426
18131TIP3   OH275807   3.520   6.816   6.392 -0.6537  0.1352 -0.0855
18131TIP3    H175808   3.573   6.867   6.330  1.1039 -1.1886  0.2312
18131TIP3    H275809   3.546   6.850   6.478 -0.6923 -0.1904  0.0543
18132TIP3   OH275810   2.672   5.139  10.558  0.3072  0.1276  0.2108
18132TIP3    H175811   2.587   5.181  10.546 -0.5708 -1.8786 -1.0640
18132TIP3    H275812   2.712   5.141  10.471  0.9660 -0.2191  0.4971
18133TIP3   OH275813   0.487   1.061  16.651 -0.4953 -0.0923 -0.0201
18133TIP3    H175814   0.570   1.093  16.616 -0.9392  0.0590 -0.9629
18133TIP3    H275815   0.441   1.026  16.575 -0.3139 -2.4286  0.8594
18134TIP3   OH275816   4.778   6.282  16.954 -0.4176  1.4125 -0.3237
18134TIP3    H175817   4.873   6.272  16.943 -0.2187  2.5405  0.2598
18134TIP3    H275818   4.769   6.338  17.031 -1.5668  1.4651 -0.4855
18135TIP3   OH275819   5.658   3.257  14.976 -0.4751  1.0825 -0.7903
18135TIP3    H175820   5.670   3.167  14.945 -0.7494  0.9778 -0.5948
18135TIP3    H275821   5.603   3.249  15.054 -0.3858  1.4074 -0.6903
18136TIP3   OH275822   5.589   6.548  14.440 -0.1717 -0.1064 -0.0836
18136TIP3    H175823   5.604   6.622  14.380  1.1529 -0.1156  0.1942
18136TIP3    H275824   5.671   6.498  14.435 -0.1544 -0.2674  1.5109
18137TIP3   OH275825   2.976   0.332  16.395 -0.0874  0.4151 -0.0409
18137TIP3    H175826   2.995   0.399  16.330 -2.3194  0.3999 -0.8006
18137TIP3    H275827   2.949   0.380  16.473  0.5186  0.4161  0.1691
18138TIP3   OH275828   1.507   2.210   3.161 -0.1661 -0.1074 -0.1167
18138TIP3    H175829   1.556   2.259   3.094  1.6395  0.0398  1.2318
18138TIP3    H275830   1.568   2.201   3.234 -1.3091 -2.2125  0.6743
18139TIP3   OH275831   4.338   6.309  15.823  0.1821  0.3888 -0.8767
18139TIP3    H175832   4.264   6.294  15.763  0.7648  0.9318 -1.7539
18139TIP3    H275833   4.387   6.227  15.820 -0.3095  0.0657 -0.3772
18140TIP3   OH275834   2.278   4.267  14.632 -0.4021 -0.3781 -0.0846
18140TIP3    H175835   2.260   4.182  14.671  1.9975  0.0687  2.3375
18140TIP3    H275836   2.252   4.258  14.541 -0.1671 -3.7217  0.0500
18141TIP3   OH275837   1.199   5.687   4.407 -0.0136  0.2004 -0.2078
18141TIP3    H175838   1.211   5.594   4.391 -0.4701  0.2532 -0.9266
18141TIP3    H275839   1.206   5.727   4.320 -1.5025  0.6403 -0.1455
18142TIP3   OH275840   5.629   6.494   1.613  0.0732 -0.2322 -0.1104
18142TIP3    H175841   5.672   6.475   1.530 -1.8071  1.1053 -1.4639
18142TIP3    H275842   5.612   6.408   1.651  1.6939 -0.8462 -0.6649
18143TIP3   OH275843   5.778   6.410  15.512 -0.0528 -0.2980  0.1723
18143TIP3    H175844   5.810   6.325  15.482 -0.2367  0.3976 -2.2346
18143TIP3    H275845   5.714   6.389  15.581 -1.3451 -2.2436 -1.4940
18144TIP3   OH275846   2.234   1.922  14.721  0.4424 -0.2252  0.3344
18144TIP3    H175847   2.162   1.882  14.673  0.2940 -0.0147  0.3775
18144TIP3    H275848   2.313   1.888  14.681  0.3454  1.0226 -1.0007
18145TIP3   OH275849   0.729   1.827  17.046  0.2142  0.4031 -0.7300
18145TIP3    H175850   0.659   1.793  17.101  1.5235 -0.9894  0.1664
18145TIP3    H275851   0.685   1.860  16.968 -1.5010  0.4625  0.2218
18146TIP3   OH275852   6.283   4.310  13.356 -0.6760  0.3061 -0.1835
18146TIP3    H175853   6.368   4.293  13.317 -0.6362  2.3502 -1.1044
18146TIP3    H275854   6.271   4.240  13.420  1.0392 -0.8315 -1.0488
18147TIP3   OH275855   6.709   1.202  11.787  0.6562 -0.6954  0.4816
18147TIP3    H175856   6.738   1.285  11.749  1.2348 -0.5162  1.3079
18147TIP3    H275857   6.749   1.135  11.731  0.3050 -0.4256 -0.1012
18148TIP3   OH275858   5.726   4.841   5.177 -0.2283  0.3920  0.3082
18148TIP3    H175859   5.771   4.905   5.231 -0.4226  0.2395  0.6569
18148TIP3    H275860   5.650   4.814   5.229 -0.6540  0.5504 -0.2152
18149TIP3   OH275861   3.372   6.625   4.349 -0.1597 -0.1651 -0.0694
18149TIP3    H175862   3.303   6.560   4.337  0.5404 -0.8896 -0.2457
18149TIP3    H275863   3.379   6.669   4.264 -1.1277  0.6597  0.2550
18150TIP3   OH275864   3.548   1.296  14.902  0.4245  0.3811  0.9998
18150TIP3    H175865   3.471   1.245  14.876 -0.0002  1.8270 -0.8560
18150TIP3    H275866   3.536   1.313  14.995  0.4724 -2.6027  1.6590
18151TIP3   OH275867   6.164   5.262  14.802 -0.2310 -0.3658 -0.4352
18151TIP3    H175868   6.193   5.329  14.864  0.7515 -0.1899 -1.0602
18151TIP3    H275869   6.073   5.284  14.784 -0.1343  0.3694 -0.0660
18152TIP3   OH275870   1.771   2.396  11.101 -0.1630 -0.3082 -0.0082
18152TIP3    H175871   1.829   2.431  11.034  1.4414 -0.9464  0.9913
18152TIP3    H275872   1.723   2.473  11.133  0.0421  0.2205 -0.9233
18153TIP3   OH275873   0.123   3.137   1.871 -0.0070 -0.4639  0.5310
18153TIP3    H175874   0.094   3.106   1.957 -1.7908 -0.2140  0.0671
18153TIP3    H275875   0.123   3.059   1.817  2.2655 -0.8493  0.9793
18154TIP3   OH275876   2.032   1.466  11.445  0.1246  0.1961  0.0571
18154TIP3    H175877   1.963   1.487  11.508  0.4256 -0.9256  0.7958
18154TIP3    H275878   2.017   1.374  11.424  0.6177  0.3024 -0.7742
18155TIP3   OH275879   4.099   1.610  10.452 -0.1114 -0.0134  0.4069
18155TIP3    H175880   4.190   1.605  10.482  0.1863  1.1896 -0.2484
18155TIP3    H275881   4.057   1.672  10.511 -0.3019  0.0408  0.2128
18156TIP3   OH275882   4.509   0.706   1.102 -0.1219 -0.3278  0.3242
18156TIP3    H175883   4.560   0.776   1.061  1.5340 -0.6499  1.7105
18156TIP3    H275884   4.532   0.628   1.052 -0.1509 -0.2779  0.2316
18157TIP3   OH275885   1.490   1.899   0.087 -0.4211  0.0737  0.3906
18157TIP3    H175886   1.473   1.844   0.010 -2.7963 -0.6024  1.3239
18157TIP3    H275887   1.557   1.851   0.136 -0.4035 -0.5358 -0.2125
18158TIP3   OH275888   4.618   1.996  15.092 -0.4936 -0.1954  0.2688
18158TIP3    H175889   4.568   1.946  15.026  0.7760  0.0784 -0.9438
18158TIP3    H275890   4.610   2.087  15.063 -0.5097  0.0087  0.9134
18159TIP3   OH275891   2.319   5.276  15.610 -0.2632  0.1720 -1.1052
18159TIP3    H175892   2.303   5.187  15.580 -1.3734  0.0973 -0.3313
18159TIP3    H275893   2.415   5.283  15.613 -0.1521 -0.6361 -2.1713
18160TIP3   OH275894   3.414   2.744   5.647 -0.6030 -0.8025 -0.4353
18160TIP3    H175895   3.429   2.658   5.687  1.1148 -0.6160 -0.5729
18160TIP3    H275896   3.435   2.807   5.716 -1.9042 -0.4663 -0.3186
18161TIP3   OH275897   4.692   1.473  12.185 -0.2359 -0.0955  0.4413
18161TIP3    H175898   4.605   1.487  12.224  0.0980  1.6889  0.6080
18161TIP3    H275899   4.673   1.435  12.099 -1.0011 -3.3985  1.9341
18162TIP3   OH275900   1.097   2.452  14.630  0.3067  0.2802 -0.0269
18162TIP3    H175901   1.181   2.475  14.671  0.8241 -1.7341  0.1825
18162TIP3    H275902   1.122   2.394  14.557 -0.8910 -0.4211  0.0986
18163TIP3   OH275903   4.408   2.288  13.931  0.2081 -0.2421 -0.4536
18163TIP3    H175904   4.398   2.210  13.875  0.7942  0.3042 -1.3439
18163TIP3    H275905   4.503   2.297  13.942  0.1419 -2.0382  3.1093
18164TIP3   OH275906   1.629   5.500  16.271 -0.2448  0.0203 -0.0327
18164TIP3    H175907   1.642   5.544  16.186 -0.5458  1.4720  0.6467
18164TIP3    H275908   1.718   5.492  16.307 -0.0459 -1.1564 -0.7227
18165TIP3   OH275909   5.680   6.251   2.183  0.0747 -0.3889  0.5159
18165TIP3    H175910   5.731   6.302   2.119 -1.2315 -0.7951 -0.9193
18165TIP3    H275911   5.689   6.299   2.265 -1.6989  2.6781 -0.9074
18166TIP3   OH275912   3.449   5.353   3.123 -0.1563 -0.0174 -0.8238
18166TIP3    H175913   3.520   5.289   3.112  0.7393  1.1995 -2.5033
18166TIP3    H275914   3.483   5.415   3.187 -0.1532 -0.0331 -0.8102
18167TIP3   OH275915   4.301   1.109  15.916  0.3764  0.7298 -0.3832
18167TIP3    H175916   4.351   1.137  15.839 -0.6232  0.1877 -1.2500
18167TIP3    H275917   4.334   1.164  15.987 -0.3178  2.9417 -1.6676
18168TIP3   OH275918   5.053   3.643  15.445 -0.2189 -0.0864 -0.3483
18168TIP3    H175919   4.987   3.590  15.490 -0.2578 -0.7789 -1.1901
18168TIP3    H275920   5.048   3.614  15.354  1.4627 -0.3709 -0.3840
18169TIP3   OH275921   3.390   1.647   6.031 -0.1291  0.8908 -0.3006
18169TIP3    H175922   3.307   1.605   6.052  0.2861  0.5599  0.7401
18169TIP3    H275923   3.374   1.740   6.044 -0.2023  0.7853  0.3991
18170TIP3   OH275924   2.220   5.354   4.669 -0.3137 -1.0977 -0.2383
18170TIP3    H175925   2.167   5.410   4.725  0.4765 -0.1338 -0.4189
18170TIP3    H275926   2.270   5.299   4.729  1.4828  0.8025  0.1271
18171TIP3   OH275927   1.597   5.203  12.145 -0.1799 -0.2360  0.5923
18171TIP3    H175928   1.675   5.191  12.091 -1.6638 -2.3840 -1.2477
18171TIP3    H275929   1.589   5.298  12.155  1.7845  0.0815 -0.4752
18172TIP3   OH275930   2.750   0.701   0.557 -0.1458 -0.0530  0.2450
18172TIP3    H175931   2.729   0.688   0.650 -0.3673 -0.6948  0.1084
18172TIP3    H275932   2.683   0.762   0.526 -2.1524 -2.3896 -0.2841
18173TIP3   OH275933   1.530   3.607   2.010  0.1016 -0.7459 -0.4517
18173TIP3    H175934   1.569   3.526   2.042  0.5595 -1.6398 -3.0561
18173TIP3    H275935   1.476   3.581   1.935  1.1691  1.4241 -2.1174
18174TIP3   OH275936   3.018   0.002   3.284 -0.2326 -0.1682  0.5833
18174TIP3    H175937   3.067   0.003   3.202 -0.8777  2.4590  0.1542
18174TIP3    H275938   3.084   0.010   3.352  0.2658 -1.8799  0.3453
18175TIP3   OH275939   1.637   5.084  16.721  0.3189  0.1553 -0.0523
18175TIP3    H175940   1.681   5.117  16.643 -0.1805  0.3264 -0.2622
18175TIP3    H275941   1.554   5.048  16.690  0.7077 -1.0269  0.2089
18176TIP3   OH275942   4.690   6.757  14.720  0.2652  0.4374  0.6417
18176TIP3    H175943   4.698   6.811  14.641  1.3222 -0.9763 -0.2505
18176TIP3    H275944   4.778   6.725  14.736 -0.0829  0.0900  1.9772
18177TIP3   OH275945   3.088   4.219   3.535  0.0004  0.3251 -0.0322
18177TIP3    H175946   3.106   4.178   3.450  0.0989  2.4614 -1.1060
18177TIP3    H275947   3.157   4.185   3.593  0.9736  0.1151 -1.2676
18178TIP3   OH275948   1.737   6.444  16.661  0.4945 -0.3281 -0.5879
18178TIP3    H175949   1.722   6.368  16.718  1.4473 -1.0749 -1.2890
18178TIP3    H275950   1.688   6.424  16.581 -0.5681  0.5609 -0.1748
18179TIP3   OH275951   6.525   0.691   4.553  0.8210  0.1682 -0.0973
18179TIP3    H175952   6.543   0.627   4.485  1.7989  1.7772 -1.4509
18179TIP3    H275953   6.520   0.775   4.506  0.4193  1.1970  1.6844
18180TIP3   OH275954   1.076   4.717   5.410 -0.0477 -0.1390  0.6824
18180TIP3    H175955   1.140   4.647   5.399 -0.1979 -0.6284  2.6364
18180TIP3    H275956   1.110   4.770   5.482 -1.1138  0.4521  0.7765
18181TIP3   OH275957   5.749   4.692   3.161  0.6109 -0.1186 -0.3513
18181TIP3    H175958   5.737   4.732   3.247 -1.1870 -1.4895  0.1154
18181TIP3    H275959   5.839   4.661   3.161  0.5362 -0.4308  1.2061
18182TIP3   OH275960   5.899   1.256  11.660 -0.0287 -0.0841  0.0416
18182TIP3    H175961   5.821   1.308  11.640  0.2329  0.1799 -0.3127
18182TIP3    H275962   5.871   1.165  11.650 -1.0250 -0.1101  2.5922
18183TIP3   OH275963   6.783   0.010  15.307 -0.0942  0.4830  0.1940
18183TIP3    H175964   6.836   0.011  15.227 -0.1040 -2.7591  0.0223
18183TIP3    H275965   6.847   0.003  15.378 -0.1703  1.2119  0.3450
18184TIP3   OH275966   0.294   4.975   1.748  0.5810  0.8263 -0.7244
18184TIP3    H175967   0.253   5.056   1.778  1.2762  0.5716  1.0311
18184TIP3    H275968   0.347   5.001   1.673 -0.6550  1.6314 -1.3666
18185TIP3   OH275969   4.208   2.832   1.344  0.1119  0.4465 -0.2042
18185TIP3    H175970   4.268   2.842   1.418  2.1431 -0.3614 -1.6527
18185TIP3    H275971   4.163   2.749   1.361 -1.4241  1.5026  1.3626
18186TIP3   OH275972   3.670   4.892  11.896  0.0760  0.0779  0.4928
18186TIP3    H175973   3.641   4.953  11.964 -0.8714 -0.1007  0.2600
18186TIP3    H275974   3.658   4.939  11.814 -0.4799 -0.3385  0.3261
18187TIP3   OH275975   4.939   2.976  11.625 -0.2788  0.1817  0.1321
18187TIP3    H175976   4.954   2.898  11.571 -1.7206  0.2374 -0.3846
18187TIP3    H275977   4.901   3.040  11.565 -0.8184  0.6522  0.9501
18188TIP3   OH275978   5.439   3.754  13.058 -0.0976  0.3004 -0.1911
18188TIP3    H175979   5.442   3.844  13.027  1.2880 -0.2866 -1.9489
18188TIP3    H275980   5.531   3.733  13.077 -0.4641 -0.5951  0.6415
18189TIP3   OH275981   0.688   5.821  12.858 -0.1733 -0.6463  0.0582
18189TIP3    H175982   0.754   5.753  12.869  2.5381  2.0790  2.2304
18189TIP3    H275983   0.692   5.844  12.765 -0.9775 -3.1184 -0.6681
18190TIP3   OH275984   6.675   6.051  12.591  0.2109  0.1083  0.0076
18190TIP3    H175985   6.745   6.059  12.526  0.7451 -0.3909  0.5178
18190TIP3    H275986   6.661   6.141  12.622  0.5726  0.2214 -0.1498
18191TIP3   OH275987   4.860   2.311   0.343  0.0248 -0.0346  0.1410
18191TIP3    H175988   4.931   2.362   0.304 -0.0571 -0.1577 -0.1720
18191TIP3    H275989   4.903   2.235   0.381  0.0738 -0.0618  0.0337
18192TIP3   OH275990   0.148   5.665   0.928  0.4127 -0.0261 -0.3892
18192TIP3    H175991   0.092   5.696   0.856 -1.9389 -3.9854 -0.5647
18192TIP3    H275992   0.224   5.626   0.884  0.1304 -0.3856 -0.5534
18193TIP3   OH275993   3.012   6.579  14.535  0.3537 -0.0597  0.1136
18193TIP3    H175994   2.994   6.510  14.471  0.4496  0.4093 -0.4375
18193TIP3    H275995   3.103   6.605  14.517  0.2691  0.3091  0.2146
18194TIP3   OH275996   4.085   2.344   5.444 -0.1455 -0.4198 -0.2577
18194TIP3    H175997   4.015   2.302   5.395  0.6136  0.0675 -1.8153
18194TIP3    H275998   4.115   2.277   5.505 -2.8679 -0.2250  1.5056
18195TIP3   OH275999   1.803   4.873   0.816 -0.1211 -0.1484  0.1150
18195TIP3    H176000   1.834   4.853   0.727 -0.4813  0.1386 -0.0758
18195TIP3    H276001   1.712   4.901   0.804 -0.5900 -1.3158  0.7036
18196TIP3   OH276002   2.283   3.225  12.382  0.6622 -0.7233  0.2488
18196TIP3    H176003   2.257   3.266  12.464 -1.1205 -1.8891  0.3290
18196TIP3    H276004   2.256   3.133  12.392  0.8693 -0.9966 -1.4296
18197TIP3   OH276005   3.502   1.182  10.953 -0.2858 -0.1148  0.0089
18197TIP3    H176006   3.538   1.110  10.902 -1.3247  0.8300 -2.2232
18197TIP3    H276007   3.537   1.261  10.911 -1.7896  0.7241  0.2598
18198TIP3   OH276008   0.718   6.768  12.654 -0.1068  1.0689  0.8484
18198TIP3    H176009   0.764   6.822  12.589  0.0969  1.7274  1.5293
18198TIP3    H276010   0.633   6.811  12.664  0.3482  1.7451  1.9755
18199TIP3   OH276011   0.772   3.846  13.301  0.1960  0.2173  0.1276
18199TIP3    H176012   0.758   3.782  13.231  2.9851  0.2268 -0.5565
18199TIP3    H276013   0.830   3.801  13.363  2.7500  2.1317 -0.6709
18200TIP3   OH276014   1.306   6.151  13.997 -0.3705  0.4278  0.0984
18200TIP3    H176015   1.302   6.165  13.903  0.8417 -0.2125 -0.0636
18200TIP3    H276016   1.398   6.133  14.015 -0.8239 -0.9794  1.1757
18201TIP3   OH276017   4.364   5.747  16.192 -0.2642  0.3893 -0.0772
18201TIP3    H176018   4.418   5.706  16.260  0.8398  0.2272 -1.0043
18201TIP3    H276019   4.426   5.764  16.121 -1.7399 -1.3543 -1.9004
18202TIP3   OH276020   1.170   6.166  12.159  0.0044  1.2193  0.2530
18202TIP3    H176021   1.131   6.101  12.218  2.4490 -0.8304 -0.1968
18202TIP3    H276022   1.191   6.116  12.080  0.7712  2.8963 -0.6549
18203TIP3   OH276023   2.650   2.231  10.393 -0.4700  0.1084  0.6207
18203TIP3    H176024   2.730   2.241  10.444  0.1119 -1.5487  0.1112
18203TIP3    H276025   2.587   2.291  10.433  1.0683  1.5751  0.9186
18204TIP3   OH276026   4.551   5.101  10.617  0.6397  0.0688 -0.2607
18204TIP3    H176027   4.587   5.020  10.653  0.9275 -0.5331 -1.8282
18204TIP3    H276028   4.533   5.156  10.694  0.9520 -1.2588  0.7917
18205TIP3   OH276029   2.665   4.642   5.214  0.7754  0.3462 -0.6156
18205TIP3    H176030   2.635   4.554   5.193  0.9784  0.3847 -1.0791
18205TIP3    H276031   2.703   4.675   5.133 -0.6639  1.4377 -0.8992
18206TIP3   OH276032   4.489   2.541  14.650  0.7856 -0.1175 -0.4428
18206TIP3    H176033   4.481   2.505  14.562  0.3554 -0.8949 -0.0968
18206TIP3    H276034   4.566   2.598  14.646  0.6175  0.0522 -1.3818
18207TIP3   OH276035   3.786   3.396   5.511  0.2261 -0.3643  0.3036
18207TIP3    H176036   3.833   3.407   5.594  3.3279  1.6163 -1.5093
18207TIP3    H276037   3.734   3.317   5.523  0.4279 -0.1062  4.1329
18208TIP3   OH276038   2.582   1.647   1.943 -0.9647  0.0065  0.0134
18208TIP3    H176039   2.617   1.617   2.027 -2.7044  0.7453  1.0432
18208TIP3    H276040   2.532   1.572   1.910 -2.0877  0.4234  0.7158
18209TIP3   OH276041   2.818   5.501   2.779 -0.1237  0.0178  0.0192
18209TIP3    H176042   2.876   5.534   2.710 -2.8537  1.4543 -1.7638
18209TIP3    H276043   2.788   5.416   2.747 -1.6581  0.8361 -0.7988
18210TIP3   OH276044   0.212   5.312   0.706 -0.3432  0.0485  0.2242
18210TIP3    H176045   0.216   5.281   0.616 -0.0918  1.5976 -0.3282
18210TIP3    H276046   0.121   5.299   0.732 -0.1920 -1.3766  0.1383
18211TIP3   OH276047   5.744   0.706  13.174 -0.2292  0.2377  0.0332
18211TIP3    H176048   5.663   0.666  13.205 -1.7605  2.3635 -1.0071
18211TIP3    H276049   5.724   0.737  13.086  1.3389  1.8280  0.1801
18212TIP3   OH276050   0.154   6.445  17.071  0.0507 -0.7533 -0.0681
18212TIP3    H176051   0.110   6.490  17.143  0.9494 -1.6539  1.0836
18212TIP3    H276052   0.089   6.383  17.038 -0.5805  0.1125 -0.4750
18213TIP3   OH276053   3.624   2.861  10.600 -1.1650 -0.0909  0.3808
18213TIP3    H176054   3.711   2.900  10.590 -0.7188 -1.1660 -0.0687
18213TIP3    H276055   3.564   2.936  10.603 -0.0301  0.8673  3.3801
18214TIP3   OH276056   3.506   5.802   5.478  0.7177 -0.8389  0.2385
18214TIP3    H176057   3.455   5.770   5.403  0.5102 -1.2853  0.5666
18214TIP3    H276058   3.595   5.811   5.444  0.3023  0.7177 -0.5672
18215TIP3   OH276059   3.773   6.661   5.490  0.5828 -0.2004 -0.0767
18215TIP3    H176060   3.864   6.651   5.519  0.1667 -2.6043  0.6295
18215TIP3    H276061   3.731   6.579   5.515 -1.4217  0.2251 -1.7927
18216TIP3   OH276062   3.552   5.683   2.134 -0.3362  0.4649 -0.4775
18216TIP3    H176063   3.494   5.698   2.059 -1.3111 -0.6455  0.0145
18216TIP3    H276064   3.633   5.727   2.111 -0.1109 -0.9613 -2.8031
18217TIP3   OH276065   2.097   4.463  13.273  0.4176 -0.4905 -0.5833
18217TIP3    H176066   2.087   4.547  13.227  1.1663 -0.1585 -0.1591
18217TIP3    H276067   2.011   4.421  13.265  0.7694 -0.8742 -3.0754
18218TIP3   OH276068   2.457   5.243   1.703 -0.1444  0.3721 -0.0878
18218TIP3    H176069   2.367   5.210   1.701  0.0292 -0.0572 -0.9418
18218TIP3    H276070   2.472   5.264   1.795 -2.3281  3.8081 -0.3211
18219TIP3   OH276071   0.522   4.217   2.458  0.4556 -0.0448  0.2860
18219TIP3    H176072   0.537   4.126   2.484  0.5234 -0.0238  0.3198
18219TIP3    H276073   0.496   4.261   2.539 -0.0451 -0.1391  0.1793
18220TIP3   OH276074   3.850   0.267  13.719 -0.2920 -0.1867 -0.1815
18220TIP3    H176075   3.839   0.179  13.683 -2.0054  0.5055 -1.4789
18220TIP3    H276076   3.800   0.323  13.660  2.6019  2.0085 -0.7624
18221TIP3   OH276077   4.242   0.201  16.255 -0.5534  0.0206  0.7552
18221TIP3    H176078   4.267   0.135  16.320 -0.2077 -0.1685  0.4319
18221TIP3    H276079   4.269   0.164  16.171  1.7476  1.5053  0.7405
18222TIP3   OH276080   6.497   0.611   0.988 -1.0291  0.4512 -0.2007
18222TIP3    H176081   6.487   0.698   1.027  0.1205  0.8672 -0.8101
18222TIP3    H276082   6.481   0.625   0.895  1.7874  0.5574 -0.7349
18223TIP3   OH276083   2.224   5.854   2.316  0.2494  0.3498 -0.0534
18223TIP3    H176084   2.298   5.859   2.255  0.4667 -0.3500  0.1401
18223TIP3    H276085   2.183   5.769   2.298  0.9539 -0.3579  1.4729
18224TIP3   OH276086   1.711   3.877   3.611  0.0313  0.5838 -0.5091
18224TIP3    H176087   1.638   3.887   3.550 -0.3298 -1.0126 -0.3836
18224TIP3    H276088   1.741   3.966   3.628 -2.1692  1.3191 -0.2118
18225TIP3   OH276089   0.549   5.398   0.823 -0.8940  0.1108  0.0137
18225TIP3    H176090   0.642   5.417   0.837 -0.8615 -0.4714  0.6209
18225TIP3    H276091   0.547   5.340   0.747 -0.8776  1.2496 -0.8838
18226TIP3   OH276092   6.691   4.441  13.453 -0.2059  0.3885  0.3629
18226TIP3    H176093   6.608   4.490  13.459 -0.0181  0.5801  1.5407
18226TIP3    H276094   6.728   4.445  13.541  0.0712 -1.4575  0.3661
18227TIP3   OH276095   6.727   4.068   4.934  0.1118 -0.3511  0.4084
18227TIP3    H176096   6.800   4.023   4.977  0.0484 -0.5956  0.2611
18227TIP3    H276097   6.662   4.080   5.004  0.4797  0.2812  0.6503
18228TIP3   OH276098   1.323   4.935  15.681  0.0317  0.1513  0.2383
18228TIP3    H176099   1.326   4.950  15.775  0.0479  1.5135  0.0454
18228TIP3    H276100   1.233   4.955  15.656 -0.3764 -1.6064  0.1448
18229TIP3   OH276101   3.639   6.436  15.638  0.3727  0.3518  0.4940
18229TIP3    H176102   3.701   6.461  15.569 -1.3305  0.1057 -1.2194
18229TIP3    H276103   3.660   6.494  15.711  1.0810  1.9110 -0.8762
18230TIP3   OH276104   6.044   5.823  15.802 -0.0224 -0.2088 -0.2580
18230TIP3    H176105   6.135   5.796  15.803  0.2755  0.7443 -0.3131
18230TIP3    H276106   6.004   5.776  15.875  0.7044 -0.0369  0.2636
18231TIP3   OH276107   5.474   2.236   0.643 -0.0574  0.6691 -0.4976
18231TIP3    H176108   5.399   2.265   0.590 -0.7208  0.6186  0.3892
18231TIP3    H276109   5.487   2.306   0.707 -0.4402 -0.0692  0.4237
18232TIP3   OH276110   5.813   2.903  16.308 -0.2226 -0.7805 -0.6308
18232TIP3    H176111   5.751   2.930  16.375  0.1699 -0.8328 -0.2417
18232TIP3    H276112   5.760   2.863  16.240 -0.4873 -2.1222  0.3402
18233TIP3   OH276113   4.939   3.097   3.942 -0.4291 -0.7899  0.2360
18233TIP3    H176114   5.034   3.088   3.934 -0.5466 -1.3831 -0.6710
18233TIP3    H276115   4.922   3.190   3.923  0.0252 -0.5302  1.0857
18234TIP3   OH276116   2.593   5.029   3.461  0.4949 -0.2072  0.1871
18234TIP3    H176117   2.541   4.949   3.469 -0.7611  0.6898  1.5027
18234TIP3    H276118   2.664   5.006   3.401 -0.9366 -1.7283 -1.0102
18235TIP3   OH276119   0.424   3.779   0.624  0.2629 -0.0646 -0.0430
18235TIP3    H176120   0.473   3.832   0.687 -0.8624  1.2683 -0.2422
18235TIP3    H276121   0.435   3.689   0.655  0.7710  0.4442  1.3370
18236TIP3   OH276122   3.466   2.386   1.595 -0.2882  0.1125  0.8294
18236TIP3    H176123   3.433   2.325   1.530  0.2142  0.4471  0.2505
18236TIP3    H276124   3.493   2.463   1.545  3.3394 -0.9108  0.9143
18237TIP3   OH276125   5.238   2.305   0.092 -0.4610  0.5074  0.2165
18237TIP3    H176126   5.162   2.352   0.126 -0.9637  1.1519 -1.6807
18237TIP3    H276127   5.310   2.331   0.149 -1.3330  1.2268  1.0198
18238TIP3   OH276128   0.419   2.071   2.739  0.6518 -0.1936  0.0229
18238TIP3    H176129   0.509   2.063   2.770  0.5339  0.9834  0.7299
18238TIP3    H276130   0.381   2.142   2.792 -0.7868 -0.8796 -0.0285
18239TIP3   OH276131   5.569   5.261  17.033  0.2049 -0.4355 -0.0415
18239TIP3    H176132   5.547   5.341  17.080  1.8344  0.3366 -0.5099
18239TIP3    H276133   5.496   5.247  16.973  0.5723  1.5968 -1.0393
18240TIP3   OH276134   5.505   1.667  11.966 -0.1516 -0.0663  0.0442
18240TIP3    H176135   5.512   1.757  11.934 -2.3612  0.2326  0.2926
18240TIP3    H276136   5.596   1.641  11.983  0.4694  2.9528  2.2970
18241TIP3   OH276137   3.189   4.148  15.986 -0.0321 -0.2937  0.4100
18241TIP3    H176138   3.259   4.196  15.940 -0.7361  0.0543 -0.3089
18241TIP3    H276139   3.109   4.197  15.966 -0.5201 -0.8131  1.0544
18242TIP3   OH276140   5.376   3.208  12.937  0.1343  0.2909  0.3314
18242TIP3    H176141   5.301   3.243  12.888 -0.3580  0.0729  0.9108
18242TIP3    H276142   5.393   3.123  12.898 -0.8135 -0.2645  1.0752
18243TIP3   OH276143   5.280   6.271   5.835 -0.2405 -0.7367  0.2799
18243TIP3    H176144   5.346   6.336   5.860  0.0986 -1.2470  0.7513
18243TIP3    H276145   5.245   6.239   5.918  0.2128 -1.7651  0.1030
18244TIP3   OH276146   3.619   4.398  15.000 -0.0292 -0.1051  0.2642
18244TIP3    H176147   3.686   4.449  14.955  1.4746 -2.7797 -0.7831
18244TIP3    H276148   3.592   4.452  15.074  1.4896  2.0996 -0.6982
18245TIP3   OH276149   5.016   4.632  15.575  0.4288 -0.1528 -0.3706
18245TIP3    H176150   5.025   4.650  15.482 -1.6098 -3.1698 -1.2901
18245TIP3    H276151   5.014   4.536  15.582 -2.7425 -0.0896  2.3051
18246TIP3   OH276152   4.659   6.685   4.578  0.1267  0.5051 -0.2635
18246TIP3    H176153   4.706   6.719   4.502 -0.2134  1.4133 -0.0815
18246TIP3    H276154   4.677   6.591   4.577  2.7729  0.9272  0.3693
18247TIP3   OH276155   2.832   5.970   1.991  0.0888  0.6428  0.3133
18247TIP3    H176156   2.826   5.915   1.914  0.6307  1.9078 -0.6681
18247TIP3    H276157   2.830   5.909   2.065 -0.4682 -0.5817 -0.6884
18248TIP3   OH276158   5.917   6.274   4.379  0.0661 -0.4297 -0.5925
18248TIP3    H176159   5.911   6.343   4.445 -0.4730  1.4876 -2.5134
18248TIP3    H276160   6.006   6.279   4.347 -0.0622 -0.4170 -0.9496
18249TIP3   OH276161   2.049   0.298  13.778  0.1996  0.6654 -0.1984
18249TIP3    H176162   2.057   0.242  13.700 -0.2235  2.4698 -1.6030
18249TIP3    H276163   2.128   0.353  13.776  0.6529  0.1191  1.2129
18250TIP3   OH276164   1.192   0.388  11.462  0.0202  0.2445  0.4389
18250TIP3    H176165   1.104   0.399  11.499  0.0930  0.5225  0.5326
18250TIP3    H276166   1.200   0.457  11.397  0.9074  1.5509  1.8445
18251TIP3   OH276167   5.885   4.150   2.946 -0.3137  0.2442 -0.1120
18251TIP3    H176168   5.964   4.204   2.956 -0.4192  0.2475  0.7378
18251TIP3    H276169   5.912   4.062   2.972 -1.1417  0.6838  2.4582
18252TIP3   OH276170   4.188   4.695  11.876  0.2593  0.1909  0.7465
18252TIP3    H176171   4.245   4.750  11.822 -0.0653  0.9610  1.1737
18252TIP3    H276172   4.101   4.734  11.865 -0.4445 -1.6495 -0.8295
18253TIP3   OH276173   6.563   1.928  11.939 -0.5754 -0.2572 -0.0138
18253TIP3    H176174   6.529   2.017  11.930  1.8561  0.6646 -1.1869
18253TIP3    H276175   6.597   1.924  12.029  0.9666  0.7193 -0.5068
18254TIP3   OH276176   4.852   1.837  15.233  0.3766  0.5604  0.2296
18254TIP3    H176177   4.757   1.842  15.221  0.3634 -0.3493 -0.1171
18254TIP3    H276178   4.888   1.897  15.167  0.1410 -1.3303 -1.7088
18255TIP3   OH276179   3.668   3.140   5.520  0.1778 -0.3654 -0.0113
18255TIP3    H176180   3.719   3.092   5.455  3.1873  2.0077  0.4001
18255TIP3    H276181   3.688   3.096   5.603 -2.5027 -2.4685 -0.3405
18256TIP3   OH276182   2.215   0.314  17.046 -0.2216 -0.1110 -0.0885
18256TIP3    H176183   2.284   0.247  17.051 -0.6679 -0.5718 -0.0339
18256TIP3    H276184   2.208   0.349  17.135 -1.2458 -1.2801  0.3122
18257TIP3   OH276185   1.552   1.624  14.096  0.4290  0.8539 -0.1245
18257TIP3    H176186   1.562   1.720  14.100  0.3849  0.8543 -0.0296
18257TIP3    H276187   1.489   1.609  14.026  0.5044  0.8903 -0.1999
18258TIP3   OH276188   0.336   5.154   6.274 -0.3000  0.4810  0.5745
18258TIP3    H176189   0.294   5.074   6.305  2.8001 -1.7316 -0.3312
18258TIP3    H276190   0.323   5.218   6.344 -3.5537 -0.4958  1.0019
18259TIP3   OH276191   2.871   4.640   3.753  0.0976 -0.2385 -0.4976
18259TIP3    H176192   2.872   4.735   3.757 -0.0636 -0.2232 -0.7625
18259TIP3    H276193   2.925   4.611   3.827  2.1245  0.0888 -1.7885
18260TIP3   OH276194   2.370   0.094  13.513  0.0364  0.3120 -0.0737
18260TIP3    H176195   2.384   0.182  13.547 -1.3336  0.6263 -0.2714
18260TIP3    H276196   2.366   0.039  13.592  2.6268  0.1035 -0.0025
18261TIP3   OH276197   3.494   6.257   1.326 -0.2677 -0.3862 -0.8064
18261TIP3    H176198   3.530   6.338   1.361  1.4762 -1.1507 -0.7443
18261TIP3    H276199   3.552   6.188   1.359 -1.9518 -1.7325 -0.4864
18262TIP3   OH276200   6.466   4.441  13.643  0.5383 -0.1008 -1.0298
18262TIP3    H176201   6.382   4.459  13.602  0.0044 -0.2527 -0.0206
18262TIP3    H276202   6.490   4.354  13.611  0.2360 -0.1306 -1.1827
18263TIP3   OH276203   6.399   5.158  13.653 -0.2967 -0.5968  0.0773
18263TIP3    H176204   6.312   5.189  13.626 -0.2245 -0.4067  0.0563
18263TIP3    H276205   6.382   5.103  13.730 -0.6803 -2.5174 -1.3115
18264TIP3   OH276206   2.246   1.671  14.184  0.3875 -0.2939 -0.1222
18264TIP3    H176207   2.217   1.591  14.229  1.5927  0.1352  1.5050
18264TIP3    H276208   2.278   1.641  14.099 -0.6751 -1.3111 -0.1949
18265TIP3   OH276209   0.795   0.374   5.878 -0.5384  0.7371  0.4126
18265TIP3    H176210   0.823   0.444   5.936  0.9801  0.6620 -0.1927
18265TIP3    H276211   0.711   0.345   5.914 -1.0759  2.6590  0.8245
18266TIP3   OH276212   0.369   3.002   0.065 -0.1581  0.3560  0.2719
18266TIP3    H176213   0.437   3.061   0.096  0.6384 -0.3684 -0.0662
18266TIP3    H276214   0.290   3.056   0.062  0.0309  0.8007  2.2100
18267TIP3   OH276215   6.654   1.104   3.381 -0.0540 -0.3217 -0.0850
18267TIP3    H176216   6.586   1.080   3.444  0.8508  0.2613  1.1467
18267TIP3    H276217   6.606   1.139   3.306 -1.0965  0.9391  1.1228
18268TIP3   OH276218   3.380   5.435  13.301 -0.1329 -0.6005 -0.1404
18268TIP3    H176219   3.318   5.391  13.243  0.9267 -0.4100 -1.4826
18268TIP3    H276220   3.409   5.512  13.251  0.1963  0.0301  0.9905
18269TIP3   OH276221   5.782   4.112  14.607  0.0561 -0.3512  0.2484
18269TIP3    H176222   5.825   4.168  14.541  0.2277 -1.4456 -0.5873
18269TIP3    H276223   5.855   4.080  14.660 -0.0334  0.1108  0.6613
18270TIP3   OH276224   5.344   0.961   1.348  0.1213 -0.8442  0.1184
18270TIP3    H176225   5.252   0.933   1.351 -0.2386  0.2918  2.5482
18270TIP3    H276226   5.343   1.051   1.380  2.1572 -1.0365  0.8862
18271TIP3   OH276227   5.737   0.899  12.317 -0.7564  0.4266  0.1805
18271TIP3    H176228   5.798   0.829  12.340  0.9008  1.4581 -0.8951
18271TIP3    H276229   5.679   0.861  12.251 -0.6025 -0.2592  0.4381
18272TIP3   OH276230   1.098   2.329  13.780  0.2622 -0.5033 -0.2131
18272TIP3    H176231   1.013   2.372  13.771 -1.0848 -2.7852  0.6623
18272TIP3    H276232   1.130   2.319  13.690 -0.8232 -0.3655 -0.6322
18273TIP3   OH276233   0.070   3.903   1.210 -0.0361 -0.5772 -0.1792
18273TIP3    H176234   0.123   3.946   1.143 -0.8053  0.6957 -0.0073
18273TIP3    H276235   0.063   3.968   1.280 -0.4368 -1.3489  0.5233
18274TIP3   OH276236   0.459   6.155  16.967  0.3046  0.4466 -0.5328
18274TIP3    H176237   0.502   6.126  17.047  2.2231 -1.6799 -2.1762
18274TIP3    H276238   0.366   6.159  16.988  0.5659 -1.7053  1.3558
18275TIP3   OH276239   0.771   5.790   5.704  0.0946  0.6640  0.2838
18275TIP3    H176240   0.849   5.835   5.738  0.0176  1.5944 -0.7171
18275TIP3    H276241   0.775   5.703   5.743  0.7392  1.2384  1.5767
18276TIP3   OH276242   2.574   2.056   0.406 -0.5799  0.2764  0.3667
18276TIP3    H176243   2.590   2.007   0.487  1.1600 -0.2930 -0.2551
18276TIP3    H276244   2.548   1.988   0.343  1.9578  0.0138 -0.5325
18277TIP3   OH276245   0.039   5.640   1.853  0.3083  0.2795  0.0859
18277TIP3    H176246   0.008   5.728   1.875  0.2847  0.3906 -0.3795
18277TIP3    H276247   0.006   5.585   1.923 -1.2507  0.3399 -0.5475
18278TIP3   OH276248   4.361   5.435   5.636  0.0563  0.2210 -0.5865
18278TIP3    H176249   4.402   5.359   5.593 -1.6446 -0.0233 -1.9014
18278TIP3    H276250   4.295   5.464   5.574 -1.7411  0.6037  1.3944
18279TIP3   OH276251   6.204   6.190   2.678 -0.2382 -0.3549  0.5749
18279TIP3    H176252   6.170   6.138   2.605  0.3784 -2.8613  1.9432
18279TIP3    H276253   6.299   6.188   2.667 -0.1808 -0.0479  0.9751
18280TIP3   OH276254   5.088   0.980  16.998  0.6432 -0.1649  0.2584
18280TIP3    H176255   5.141   0.956  17.074 -0.2760 -1.0680  0.6413
18280TIP3    H276256   5.054   0.897  16.966 -0.0653  0.3450 -0.3272
18281TIP3   OH276257   3.222   3.120   0.964 -0.4522  0.1857  0.0573
18281TIP3    H176258   3.186   3.045   0.916 -0.7660 -0.2862  0.9914
18281TIP3    H276259   3.146   3.160   1.006 -0.3081  1.1452 -0.5701
18282TIP3   OH276260   5.031   2.504   0.952 -0.5293  0.2001 -0.0623
18282TIP3    H176261   5.041   2.421   0.999  0.8673 -1.5541 -3.1397
18282TIP3    H276262   5.120   2.530   0.929 -1.0337  1.9500 -0.2149
18283TIP3   OH276263   1.382   5.037  12.412  0.1293  0.3153  0.1991
18283TIP3    H176264   1.340   4.965  12.365  0.0085  1.0817 -0.9072
18283TIP3    H276265   1.348   5.116  12.370  0.3916  1.0302  1.2714
18284TIP3   OH276266   0.590   6.043   0.060 -0.4834  0.4128 -0.8391
18284TIP3    H176267   0.601   6.090   0.143 -2.1535  1.3831 -1.1096
18284TIP3    H276268   0.619   5.954   0.078  0.0110  0.8303  0.5315
18285TIP3   OH276269   3.649   2.169  14.888 -0.7625  0.4344  0.2044
18285TIP3    H176270   3.697   2.245  14.921 -0.6247  0.1081  0.7621
18285TIP3    H276271   3.587   2.147  14.958 -0.8878  0.1102 -0.0063
18286TIP3   OH276272   0.395   3.589   5.556  0.0575  1.2741  0.6755
18286TIP3    H176273   0.485   3.621   5.556  0.6072 -0.0210 -1.8363
18286TIP3    H276274   0.345   3.658   5.512  0.6413  0.2618 -1.7089
18287TIP3   OH276275   1.780   5.119   3.586  0.7514  0.1332 -0.3038
18287TIP3    H176276   1.869   5.143   3.560  0.9703 -1.0836 -0.7462
18287TIP3    H276277   1.752   5.056   3.520 -0.3444  0.2948 -0.0154
18288TIP3   OH276278   0.249   5.606  13.587 -0.6068  0.1473  0.6454
18288TIP3    H176279   0.278   5.522  13.551 -2.4180 -0.8509  1.3674
18288TIP3    H276280   0.270   5.670  13.519  1.4731 -0.7462  0.3740
18289TIP3   OH276281   1.017   2.821  12.672  0.2332  0.8954  0.8293
18289TIP3    H176282   1.040   2.752  12.734 -0.3911  0.2345  0.3449
18289TIP3    H276283   1.084   2.889  12.685  0.2240  0.6774  2.0636
18290TIP3   OH276284   4.826   5.043  14.931  0.2392 -0.4020  0.3293
18290TIP3    H176285   4.899   4.982  14.939  0.6878  0.2681  1.7171
18290TIP3    H276286   4.829   5.071  14.839  2.6383  0.6509  0.6420
18291TIP3   OH276287   4.746   0.475   5.925 -0.3775 -0.1611 -0.1434
18291TIP3    H176288   4.764   0.515   5.839 -0.1986 -0.5892 -0.3090
18291TIP3    H276289   4.662   0.512   5.951 -1.1464 -1.1274 -1.1719
18292TIP3   OH276290   3.392   4.590   3.526  0.1361 -0.5843 -0.2306
18292TIP3    H176291   3.352   4.578   3.612  1.9626 -2.9888  0.3641
18292TIP3    H276292   3.332   4.546   3.465 -1.1645  1.1330 -0.2784
18293TIP3   OH276293   3.056   1.657   1.288 -0.4248  0.2601  0.3028
18293TIP3    H176294   3.029   1.624   1.202  1.2881 -2.5042  0.7145
18293TIP3    H276295   2.979   1.643   1.344 -0.8152  0.0379 -0.2801
18294TIP3   OH276296   0.073   3.206   4.343 -0.0027 -0.1800  0.2745
18294TIP3    H176297   0.028   3.190   4.261 -2.3548 -0.5149  1.5326
18294TIP3    H276298   0.163   3.229   4.318 -0.3378 -1.3783 -2.2720
18295TIP3   OH276299   6.224   2.663  12.107  0.3095 -0.4325 -0.0279
18295TIP3    H176300   6.167   2.609  12.051 -0.9972  0.2969  0.5516
18295TIP3    H276301   6.276   2.715  12.046 -0.7715  0.0234 -0.5856
18296TIP3   OH276302   3.012   0.021  14.278  0.3140  0.6013 -0.2888
18296TIP3    H176303   3.011   0.117  14.268  0.3495  0.4836 -1.6043
18296TIP3    H276304   2.928   0.001  14.319 -0.6661  1.0393 -1.9705
18297TIP3   OH276305   0.702   0.902   1.713 -0.0382 -0.3761 -0.0707
18297TIP3    H176306   0.770   0.838   1.692 -1.9027 -1.8844 -1.9259
18297TIP3    H276307   0.745   0.987   1.700  2.1350 -1.1936  1.2178
18298TIP3   OH276308   5.996   2.347   6.371  0.3848  0.7801 -0.2214
18298TIP3    H176309   5.937   2.407   6.326  0.4104 -1.7657 -4.1749
18298TIP3    H276310   5.939   2.277   6.403  0.8067  0.4497 -0.1828
18299TIP3   OH276311   0.025   1.205  14.212  0.3123  0.3098  0.1333
18299TIP3    H176312  -0.065   1.207  14.181 -0.3290 -1.2033  1.7592
18299TIP3    H276313   0.044   1.112  14.226  2.0746  0.6098  0.0118
18300TIP3   OH276314   6.568   4.301   0.335  0.1076  0.1933 -0.2061
18300TIP3    H176315   6.513   4.290   0.258 -1.7965 -0.6142  1.1761
18300TIP3    H276316   6.611   4.217   0.346 -0.3738 -0.0150  0.1321
18301TIP3   OH276317   3.601   4.364  12.379  0.2082  0.4637 -0.9203
18301TIP3    H176318   3.589   4.383  12.286  2.1000  0.4771 -1.2103
18301TIP3    H276319   3.522   4.397  12.421 -0.9733 -0.0971 -2.5764
18302TIP3   OH276320   3.672   0.781  14.034  0.1311 -0.6358  0.1610
18302TIP3    H176321   3.612   0.845  13.996 -0.2869 -0.5264  0.9899
18302TIP3    H276322   3.715   0.741  13.958 -1.0772 -0.8189 -0.4494
18303TIP3   OH276323   2.988   6.103   2.394  0.3566  0.1331 -0.3561
18303TIP3    H176324   2.961   6.101   2.485  2.8773 -1.4191  0.4413
18303TIP3    H276325   2.961   6.019   2.358  0.4772  0.2345 -0.6962
18304TIP3   OH276326   1.928   5.134  13.472 -0.2731  0.6772 -0.5240
18304TIP3    H176327   1.849   5.139  13.526  0.4312 -0.1756  0.6488
18304TIP3    H276328   1.984   5.205  13.506  1.0700 -1.1990  1.4860
18305TIP3   OH276329   6.237   2.252   2.402 -0.5863 -0.1004 -0.2454
18305TIP3    H176330   6.283   2.306   2.338 -0.3705 -0.8753 -0.7672
18305TIP3    H276331   6.213   2.312   2.472 -0.7435  0.7489 -1.0079
18306TIP3   OH276332   4.154   2.332   3.302  0.4894 -0.7383 -0.3508
18306TIP3    H176333   4.092   2.336   3.375 -1.4065 -0.8270 -1.8726
18306TIP3    H276334   4.240   2.325   3.344 -0.4993 -0.5688  1.8543
18307TIP3   OH276335   4.888   4.019   1.972 -0.7117  0.0832 -0.3686
18307TIP3    H176336   4.935   4.082   2.027  0.2026 -0.1119 -0.8954
18307TIP3    H276337   4.799   4.017   2.007  0.3411 -1.6133  2.4827
18308TIP3   OH276338   0.057   4.831  11.085 -0.5112 -0.2162  0.3307
18308TIP3    H176339   0.023   4.857  10.999  0.4482  1.9334  0.5391
18308TIP3    H276340   0.123   4.765  11.066  0.6244  1.1612 -0.7542
18309TIP3   OH276341   0.287   2.934  15.584  0.0885 -0.5660  0.1202
18309TIP3    H176342   0.253   3.006  15.638  0.5821  0.6162 -1.1133
18309TIP3    H276343   0.345   2.886  15.643 -1.6136 -1.0694  1.4917
18310TIP3   OH276344   6.047   1.003  14.909 -0.2222  0.1248  0.3697
18310TIP3    H176345   6.050   1.058  14.987 -0.9172 -1.3802  1.4998
18310TIP3    H276346   6.139   0.986  14.888  0.0513  2.4116 -0.5699
18311TIP3   OH276347   6.436   1.641  13.251  0.1969  0.5880  0.0448
18311TIP3    H176348   6.474   1.673  13.333 -0.6955  1.4263  0.1562
18311TIP3    H276349   6.486   1.684  13.183  3.3613 -2.7945 -0.0593
18312TIP3   OH276350   6.391   3.974   3.726  0.1027 -0.6641 -0.2292
18312TIP3    H176351   6.478   3.981   3.687 -0.3065  0.4369 -0.9819
18312TIP3    H276352   6.351   3.899   3.681  0.3034 -0.5585 -0.5871
18313TIP3   OH276353   5.529   4.047   5.259 -0.1696  0.0584  0.2618
18313TIP3    H176354   5.548   3.953   5.259 -3.9766 -0.9921 -2.9123
18313TIP3    H276355   5.457   4.057   5.321  0.6411  1.1117  1.0829
18314TIP3   OH276356   4.322   0.145  12.185 -0.3137 -0.5147 -0.1442
18314TIP3    H176357   4.404   0.174  12.224  0.0696 -1.5234 -0.1618
18314TIP3    H276358   4.346   0.118  12.096 -0.6969 -0.6545 -0.2078
18315TIP3   OH276359   4.174   5.202   5.261 -0.6204 -0.0370 -0.4067
18315TIP3    H176360   4.251   5.259   5.261 -0.7812  0.1879 -0.9922
18315TIP3    H276361   4.201   5.124   5.212 -0.7664  0.0527 -0.6345
18316TIP3   OH276362   1.838   6.571  14.343  0.7990  0.2746 -0.2407
18316TIP3    H176363   1.894   6.522  14.283  0.7745  0.3987 -0.3639
18316TIP3    H276364   1.753   6.528  14.338  1.1216 -0.4988  0.6431
18317TIP3   OH276365   1.536   1.423   1.002 -0.0932 -0.2284 -0.3472
18317TIP3    H176366   1.464   1.365   1.026  0.7332 -0.5710  1.5205
18317TIP3    H276367   1.494   1.502   0.971 -1.2781 -0.6985  0.0010
18318TIP3   OH276368   0.113   3.219   1.529  0.4200 -0.7489 -0.3226
18318TIP3    H176369   0.170   3.187   1.599 -0.2724  0.0537  0.6252
18318TIP3    H276370   0.173   3.257   1.465  1.0702 -1.6048 -0.2402
18319TIP3   OH276371   1.573   0.693  10.760 -0.0711 -0.3331  0.0895
18319TIP3    H176372   1.541   0.620  10.814 -0.7727 -0.3230 -0.3094
18319TIP3    H276373   1.494   0.734  10.725  0.3784 -0.4182 -1.0551
18320TIP3   OH276374   1.959   5.114  16.531 -0.2294 -0.0348 -0.1246
18320TIP3    H176375   1.877   5.159  16.550  0.2554  0.5368  0.6459
18320TIP3    H276376   1.961   5.107  16.435 -0.3754  1.4850 -0.2652
18321TIP3   OH276377   6.780   6.133  16.642  0.2040 -0.4640  0.5734
18321TIP3    H176378   6.868   6.105  16.619 -0.1089 -3.4419  2.3718
18321TIP3    H276379   6.790   6.221  16.676  2.3147 -0.3604 -0.1978
18322TIP3   OH276380   4.459   6.082  16.321 -0.4814  0.2518 -0.2233
18322TIP3    H176381   4.521   6.136  16.370  0.6210 -0.7586 -0.4540
18322TIP3    H276382   4.456   6.122  16.234 -1.1214  1.0267  0.1354
18323TIP3   OH276383   2.103   4.238  13.836 -0.5671  0.0993 -1.1524
18323TIP3    H176384   2.068   4.288  13.910  1.6356  0.7776 -0.4863
18323TIP3    H276385   2.142   4.160  13.875  0.8333  0.5805 -1.5133
18324TIP3   OH276386   4.230   2.490  13.838 -0.1095 -0.3720 -0.1502
18324TIP3    H176387   4.277   2.412  13.867  0.5187 -0.3195 -0.9995
18324TIP3    H276388   4.160   2.457  13.781 -0.0201 -0.3343 -0.2820
18325TIP3   OH276389   6.005   3.103   5.200  0.2319 -0.0891 -0.5569
18325TIP3    H176390   6.034   3.093   5.291 -0.7347  0.7988 -0.1221
18325TIP3    H276391   5.989   3.014   5.170  1.6241 -0.4735 -0.2329
18326TIP3   OH276392   5.842   2.355   5.629 -0.1854 -0.7574 -0.0016
18326TIP3    H176393   5.749   2.360   5.651 -0.9170  1.5266 -2.9779
18326TIP3    H276394   5.885   2.411   5.694 -1.1657 -0.2859  0.2597
18327TIP3   OH276395   0.033   0.913   0.560 -0.5005  0.2890  0.2365
18327TIP3    H176396   0.028   0.841   0.497  0.3329 -1.6192  2.2449
18327TIP3    H276397   0.127   0.930   0.570 -0.6200  0.5672  0.9653
18328TIP3   OH276398   6.538   3.083  16.429 -0.4307  0.3572  0.0448
18328TIP3    H176399   6.583   3.027  16.492 -1.2833 -0.6490 -0.2151
18328TIP3    H276400   6.467   3.124  16.479  1.6939  3.3603  0.9357
18329TIP3   OH276401   1.531   6.542  13.834 -0.0654 -0.0661  0.1071
18329TIP3    H176402   1.436   6.556  13.833 -0.0037  0.3300 -0.2170
18329TIP3    H276403   1.568   6.628  13.856  0.2730  0.0554 -0.9189
18330TIP3   OH276404   3.133   5.744   0.401  0.0244 -0.2540  0.2973
18330TIP3    H176405   3.170   5.692   0.473 -0.6957 -0.6924  0.3553
18330TIP3    H276406   3.207   5.797   0.369  0.6747 -1.0274  0.4919
18331TIP3   OH276407   4.029   4.457  16.662 -0.6414  0.5954 -0.2797
18331TIP3    H176408   3.935   4.473  16.655 -1.0006 -0.7460  0.9518
18331TIP3    H276409   4.056   4.434  16.574 -1.8138 -0.5842 -0.3676
18332TIP3   OH276410   3.357   0.296  14.206  0.3075 -0.0809 -0.2254
18332TIP3    H176411   3.358   0.391  14.217 -1.1426 -0.1002  0.2869
18332TIP3    H276412   3.310   0.263  14.283  0.7947 -1.2230 -0.3842
18333TIP3   OH276413   2.600   6.455   0.833 -0.1351 -0.2495 -0.2962
18333TIP3    H176414   2.586   6.442   0.926 -0.6689 -2.4896 -0.6330
18333TIP3    H276415   2.695   6.453   0.822 -0.0837 -0.3389  0.1593
18334TIP3   OH276416   6.174   3.364  10.805  1.0200 -0.0170 -0.5201
18334TIP3    H176417   6.222   3.358  10.888 -0.1580 -1.0673  0.1300
18334TIP3    H276418   6.082   3.359  10.831  0.4847  2.5211 -1.6789
18335TIP3   OH276419   0.858   2.347  14.681  0.8606 -0.1770  0.0196
18335TIP3    H176420   0.799   2.421  14.675  1.1617 -0.0167 -1.1729
18335TIP3    H276421   0.946   2.386  14.681  1.0080 -0.5011  0.0968
18336TIP3   OH276422   3.927   3.162  11.770  0.1819  0.5570  0.1472
18336TIP3    H176423   3.858   3.134  11.710  0.3990  1.1154 -0.3757
18336TIP3    H276424   4.005   3.114  11.742  0.2523  0.7150  0.0735
18337TIP3   OH276425   2.944   6.254  16.271  0.2515  0.3865 -0.0784
18337TIP3    H176426   2.851   6.270  16.288  0.2564  0.3283  0.0034
18337TIP3    H276427   2.969   6.187  16.335  0.3642  0.4436 -0.0624
18338TIP3   OH276428   3.261   6.029   4.080 -0.1386 -0.2902 -0.2066
18338TIP3    H176429   3.230   5.942   4.107  0.1205  0.2695  2.1270
18338TIP3    H276430   3.356   6.024   4.089 -0.2243  0.7150  1.7093
18339TIP3   OH276431   0.835   0.677   0.967 -0.0200 -0.2412  0.0861
18339TIP3    H176432   0.879   0.619   1.029  0.8476 -1.4063 -1.5393
18339TIP3    H276433   0.875   0.657   0.882 -0.3307  2.1039 -0.7126
18340TIP3   OH276434   3.078   2.031   2.533 -0.3377  0.2405 -0.7321
18340TIP3    H176435   3.138   2.059   2.602 -0.3783 -0.4097 -0.4153
18340TIP3    H276436   3.134   2.005   2.461 -0.2266 -0.3520 -0.4413
18341TIP3   OH276437   0.795   0.852   4.607  0.0498  0.6201 -0.0977
18341TIP3    H176438   0.773   0.760   4.593 -2.9506  0.9868  1.4608
18341TIP3    H276439   0.882   0.861   4.568 -0.4322 -2.3258 -2.2590
18342TIP3   OH276440   2.021   3.565   5.165 -0.2679 -0.7220  0.4421
18342TIP3    H176441   2.052   3.603   5.248  1.9814  2.5148 -1.6322
18342TIP3    H276442   2.090   3.505   5.139  1.0322  1.1710 -0.7817
18343TIP3   OH276443   1.670   1.822   5.080  0.0814 -0.3759 -0.1931
18343TIP3    H176444   1.595   1.764   5.071  0.0726 -0.2822 -0.7771
18343TIP3    H276445   1.723   1.782   5.149 -0.3116 -0.6469 -0.0408
18344TIP3   OH276446   3.344   3.756  13.457  0.3075  0.0769  0.2092
18344TIP3    H176447   3.325   3.820  13.525  1.2058 -0.5845  1.1007
18344TIP3    H276448   3.313   3.797  13.376 -1.5549  0.5308  1.0992
18345TIP3   OH276449   5.586   6.363   4.977 -0.4336 -0.1350 -0.5354
18345TIP3    H176450   5.497   6.341   4.952 -0.0062 -0.5674 -1.7475
18345TIP3    H276451   5.610   6.436   4.919 -0.1937  0.3684  0.1778
18346TIP3   OH276452   6.334   4.653  15.776 -0.4680  0.2415 -0.3227
18346TIP3    H176453   6.359   4.565  15.801  1.3963  0.3413 -1.5822
18346TIP3    H276454   6.399   4.709  15.819 -0.9695  0.9011 -0.4128
18347TIP3   OH276455   0.943   4.328   1.583  0.2168 -0.2636 -0.1186
18347TIP3    H176456   0.887   4.251   1.593  0.3144 -0.2168  0.8972
18347TIP3    H276457   0.961   4.356   1.672  0.5755  0.6590 -0.4696
18348TIP3   OH276458   4.960   0.824   0.721  0.0323 -0.1820 -0.1305
18348TIP3    H176459   5.000   0.863   0.643  1.0391  0.2446  0.5759
18348TIP3    H276460   5.024   0.759   0.751 -0.1284 -0.0082  0.6106
18349TIP3   OH276461   6.124   5.971   2.509 -0.1663  0.0280  0.4365
18349TIP3    H176462   6.030   5.983   2.521 -0.0443  0.9061  0.5585
18349TIP3    H276463   6.133   5.936   2.420 -0.5120  1.3645 -0.1397
18350TIP3   OH276464   3.908   5.197  13.988  0.2947 -0.0439  0.5373
18350TIP3    H176465   3.933   5.288  14.004 -1.2274  0.3045  1.0991
18350TIP3    H276466   3.876   5.195  13.898  0.6942 -0.1146  0.3951
18351TIP3   OH276467   1.168   2.614  16.086 -0.5229  0.0306  0.0280
18351TIP3    H176468   1.214   2.541  16.128  0.1026 -0.3342 -1.2457
18351TIP3    H276469   1.238   2.663  16.042 -0.9408  1.3947  0.8369
18352TIP3   OH276470   5.051   1.114  16.495  0.3137 -0.2639 -0.7944
18352TIP3    H176471   5.123   1.168  16.527  0.7687 -1.0841 -0.4100
18352TIP3    H276472   4.982   1.122  16.561  0.4591 -0.3176 -0.6361
18353TIP3   OH276473   4.590   0.302  15.439 -0.2128 -0.0530 -0.3320
18353TIP3    H176474   4.577   0.323  15.531 -0.5077  0.5926 -0.5168
18353TIP3    H276475   4.512   0.252  15.414  1.2811 -3.1122  0.5733
18354TIP3   OH276476   3.810   2.805  14.545 -0.8793  0.1285  0.1013
18354TIP3    H176477   3.872   2.784  14.615 -1.3357  1.0505  0.8097
18354TIP3    H276478   3.828   2.896  14.524 -1.4947  0.1808 -0.2101
18355TIP3   OH276479   6.220   3.862  13.252 -0.1772 -0.5894  0.0292
18355TIP3    H176480   6.166   3.938  13.272  0.2583 -0.0638 -0.7638
18355TIP3    H276481   6.277   3.890  13.181  2.2617 -0.6131  1.8583
18356TIP3   OH276482   0.434   5.319   3.350 -0.0666  0.2724 -0.0985
18356TIP3    H176483   0.361   5.297   3.292 -0.3888  0.6898  0.1405
18356TIP3    H276484   0.489   5.240   3.350  0.2677  0.4830 -1.4430
18357TIP3   OH276485   2.225   2.020   1.699  0.5473  0.0502 -0.0339
18357TIP3    H176486   2.159   2.079   1.663 -1.5912 -1.5869  0.9840
18357TIP3    H276487   2.263   2.069   1.772 -0.0838  0.7575 -0.1630
18358TIP3   OH276488   5.211   1.825  15.052  0.1101  0.5817 -0.4565
18358TIP3    H176489   5.133   1.880  15.051  0.1603  0.6569 -0.3656
18358TIP3    H276490   5.189   1.752  15.110  0.3036  0.8997  0.0187
18359TIP3   OH276491   4.142   1.344  14.007  0.2298  0.0721 -0.2633
18359TIP3    H176492   4.210   1.279  13.989 -1.5136 -2.3690  1.3683
18359TIP3    H276493   4.159   1.372  14.097 -1.0860 -0.8287  0.2813
18360TIP3   OH276494   0.044   6.658   0.099 -0.3228  0.1932 -0.1647
18360TIP3    H176495  -0.007   6.739   0.107 -1.0672 -0.2165 -0.7508
18360TIP3    H276496   0.035   6.616   0.185  2.7114  2.2287  1.3320
18361TIP3   OH276497   2.346   0.414   4.459  0.1856 -0.0899  0.2897
18361TIP3    H176498   2.409   0.421   4.388 -1.1477  0.0793 -0.9218
18361TIP3    H276499   2.333   0.504   4.489 -0.0100 -0.0424  0.0616
18362TIP3   OH276500   1.167   2.211   0.299 -0.2849 -0.0790  0.2645
18362TIP3    H176501   1.252   2.172   0.279 -0.1639 -1.2307  2.6836
18362TIP3    H276502   1.103   2.146   0.271 -0.4382  0.7473 -1.4663
18363TIP3   OH276503   0.218   6.756   5.736 -0.1527  0.2857  0.7552
18363TIP3    H176504   0.180   6.710   5.661 -0.3731  0.3977  0.7982
18363TIP3    H276505   0.157   6.740   5.808 -0.2909  0.7375  0.7443
18364TIP3   OH276506   0.816   5.750  16.532  0.5912  0.3589 -0.6145
18364TIP3    H176507   0.836   5.685  16.599  2.0304  0.0518 -1.3090
18364TIP3    H276508   0.840   5.834  16.572 -2.2095  0.6733  0.6657
18365TIP3   OH276509   5.538   0.962  16.984 -0.1531  0.3246 -0.1242
18365TIP3    H176510   5.558   0.870  17.005 -1.8736 -0.1003 -0.1190
18365TIP3    H276511   5.515   1.001  17.068 -1.8878  0.0424 -0.4194
18366TIP3   OH276512   3.130   4.848  15.713 -0.2300  0.4187  0.0242
18366TIP3    H176513   3.102   4.760  15.742 -0.6621  0.1430 -1.1890
18366TIP3    H276514   3.179   4.882  15.787  0.2614 -0.9996  0.3859
18367TIP3   OH276515   2.388   3.863   3.784  0.3074  0.2113  0.4770
18367TIP3    H176516   2.465   3.860   3.840  1.3625 -0.5220 -0.9332
18367TIP3    H276517   2.353   3.952   3.795  2.6433  1.3155 -0.4719
18368TIP3   OH276518   0.321   2.769  13.788 -0.0733  0.2085  0.1654
18368TIP3    H176519   0.386   2.777  13.858 -1.4157  1.5135  1.3282
18368TIP3    H276520   0.363   2.809  13.712 -0.0678  2.6362  1.3443
18369TIP3   OH276521   5.342   2.465  15.969 -0.3195  0.3391 -0.1192
18369TIP3    H176522   5.288   2.418  15.905 -0.7848  1.0738 -0.2711
18369TIP3    H276523   5.400   2.397  16.005 -0.3025 -0.1606 -1.0478
18370TIP3   OH276524   6.524   0.886   3.622 -0.0109  0.1307  0.0967
18370TIP3    H176525   6.617   0.872   3.637  0.3283  2.1238  0.0972
18370TIP3    H276526   6.505   0.838   3.541  0.6882 -1.3947  0.8102
18371TIP3   OH276527   0.923   3.266  14.358  0.3275  0.2198  1.0171
18371TIP3    H176528   0.885   3.346  14.395  0.0982  0.2174  0.7902
18371TIP3    H276529   0.853   3.202  14.364  0.1817  0.3080  0.2775
18372TIP3   OH276530   0.678   3.555   2.780 -0.2059 -0.4291  0.2260
18372TIP3    H176531   0.588   3.566   2.749  1.1021  0.7924 -3.7020
18372TIP3    H276532   0.710   3.644   2.794  1.0026 -0.7005 -0.6135
18373TIP3   OH276533   0.968   0.012  13.619 -0.3640 -0.2131  0.2509
18373TIP3    H176534   0.919   0.090  13.645  1.0031  0.7463  0.0918
18373TIP3    H276535   0.947  -0.053  13.686 -2.8393 -0.3183 -0.5206
18374TIP3   OH276536   2.990   6.751  16.331 -0.2416 -0.2967 -0.3150
18374TIP3    H176537   3.030   6.673  16.292 -1.1177  0.5620 -3.2087
18374TIP3    H276538   3.064   6.810  16.347  0.0988 -0.2334 -1.9202
18375TIP3   OH276539   5.146   1.371  16.314 -0.4431  0.1341 -0.1630
18375TIP3    H176540   5.196   1.290  16.321  0.7363  0.7733 -0.7271
18375TIP3    H276541   5.056   1.344  16.299  0.0718 -1.0675 -1.2010
18376TIP3   OH276542   5.366   5.407  10.465 -0.3923  0.3504  0.9652
18376TIP3    H176543   5.305   5.430  10.396  2.3312  0.5959 -1.5690
18376TIP3    H276544   5.361   5.311  10.471  0.8397  0.0831 -1.2189
18377TIP3   OH276545   5.906   0.713   3.906  0.3216 -0.1626  0.6907
18377TIP3    H176546   5.959   0.737   3.830 -2.2117 -0.1210 -1.1887
18377TIP3    H276547   5.841   0.783   3.913 -0.9197 -1.3483  1.4492
18378TIP3   OH276548   5.309   6.051   2.265  0.0183 -0.0890 -0.1795
18378TIP3    H176549   5.335   5.964   2.237 -1.9601 -0.6412 -0.4603
18378TIP3    H276550   5.353   6.111   2.205  3.3935 -0.6432  1.4899
18379TIP3   OH276551   2.512   1.767  11.075  0.0688 -0.1431  0.3107
18379TIP3    H176552   2.449   1.716  11.023  0.5267 -0.9629  0.5377
18379TIP3    H276553   2.491   1.858  11.055 -0.3489 -0.4278 -0.6154
18380TIP3   OH276554   2.888   0.163  12.599  0.1803 -0.4058  0.2722
18380TIP3    H176555   2.805   0.202  12.570  0.6654 -0.1345 -0.7754
18380TIP3    H276556   2.885   0.170  12.695  0.2189  2.1644  0.1370
18381TIP3   OH276557   2.391   4.514   3.505  0.5652  0.1911  0.0522
18381TIP3    H176558   2.427   4.427   3.491  1.2035  0.3881  0.4331
18381TIP3    H276559   2.352   4.510   3.593  0.2357  0.1727 -0.0928
18382TIP3   OH276560   0.937   4.416   0.896  0.7939 -0.2906 -0.0125
18382TIP3    H176561   0.891   4.333   0.909 -0.8745  0.7027  0.9222
18382TIP3    H276562   1.022   4.404   0.938  0.2941 -1.3102  0.7437
18383TIP3   OH276563   1.437   1.623  11.114 -0.3596 -0.0542 -0.2881
18383TIP3    H176564   1.397   1.573  11.044 -0.7912  0.3412 -0.3271
18383TIP3    H276565   1.460   1.558  11.181 -1.7119 -0.2050  0.0463
18384TIP3   OH276566   2.345   1.018  10.744 -0.4799 -0.2381  0.5159
18384TIP3    H176567   2.371   1.035  10.835 -2.4729  0.7760  0.9669
18384TIP3    H276568   2.403   1.074  10.692 -0.4334  0.4847  1.3099
18385TIP3   OH276569   6.692   1.983  17.123  0.4042 -0.7694 -0.4561
18385TIP3    H176570   6.655   2.071  17.110  0.6906 -0.5657  0.0881
18385TIP3    H276571   6.617   1.924  17.114  0.4279 -0.5886 -2.1462
18386TIP3   OH276572   5.326   4.826  16.542  0.1259 -0.2781  0.2603
18386TIP3    H176573   5.315   4.828  16.637  0.9037 -1.2977  0.3807
18386TIP3    H276574   5.311   4.735  16.518 -0.1558 -0.0111 -0.6182
18387TIP3   OH276575   1.611   6.636  14.785  0.5350  0.2474 -0.9895
18387TIP3    H176576   1.560   6.610  14.862 -0.6307  0.1854 -1.7592
18387TIP3    H276577   1.687   6.577  14.786  0.6762  0.4171  0.2412
18388TIP3   OH276578   4.948   1.866  11.810 -0.4000 -0.4304  0.1282
18388TIP3    H176579   4.951   1.921  11.888 -2.3904 -1.2256  0.8408
18388TIP3    H276580   5.007   1.909  11.747 -0.8658  1.7591  1.1004
18389TIP3   OH276581   1.434   6.259   1.577  0.0069 -0.0356  0.5308
18389TIP3    H176582   1.509   6.288   1.526 -1.5839 -0.4317 -2.1963
18389TIP3    H276583   1.396   6.340   1.613 -0.0450  0.5080 -0.7054
18390TIP3   OH276584   5.799   0.199   3.307 -0.3845  1.0281  0.0548
18390TIP3    H176585   5.822   0.152   3.387 -0.7512  2.6126  1.1433
18390TIP3    H276586   5.841   0.285   3.317  1.0450  0.6820 -2.2845
18391TIP3   OH276587   1.884   5.301   0.608 -0.3190  0.1299  0.0165
18391TIP3    H176588   1.839   5.361   0.548 -0.7544  1.1444  1.3124
18391TIP3    H276589   1.882   5.216   0.563 -2.5461  0.3710 -0.4806
18392TIP3   OH276590   5.100   2.705   4.131  0.5946  0.4435 -0.2802
18392TIP3    H176591   5.051   2.690   4.050  1.0056  0.1326 -0.4714
18392TIP3    H276592   5.143   2.621   4.149  1.5096  0.8817 -0.4167
18393TIP3   OH276593   0.105   4.925   2.143 -0.0145  0.2609 -0.1281
18393TIP3    H176594   0.105   4.846   2.089 -0.2436  0.5654 -0.5809
18393TIP3    H276595   0.182   4.916   2.199 -0.6659 -0.8239  0.6279
18394TIP3   OH276596   4.448   6.143  12.485  0.1721  0.3077 -0.0818
18394TIP3    H176597   4.531   6.094  12.484  1.1787  1.9131  0.9006
18394TIP3    H276598   4.412   6.130  12.397  0.4409 -2.0572  0.0806
18395TIP3   OH276599   0.078   4.212   4.744 -0.2295 -0.2925 -0.0974
18395TIP3    H176600   0.099   4.148   4.676  1.0887 -0.5976  0.5718
18395TIP3    H276601  -0.005   4.182   4.780  0.1735 -1.4053 -0.0662
18396TIP3   OH276602   5.822   4.651   5.638  0.1141  0.3550 -0.3697
18396TIP3    H176603   5.894   4.714   5.638  0.5928 -0.1834 -0.3112
18396TIP3    H276604   5.863   4.568   5.613 -0.8117  0.4163 -2.3042
18397TIP3   OH276605   1.719   4.927  14.221  0.7941 -0.5160 -0.3954
18397TIP3    H176606   1.709   4.943  14.127 -0.4014 -1.2171 -0.4052
18397TIP3    H276607   1.795   4.979  14.246  3.1457 -2.6850 -2.3583
18398TIP3   OH276608   3.565   2.572   1.146 -0.1934  0.2226  0.2362
18398TIP3    H176609   3.565   2.477   1.161  1.2171  0.0272 -0.7680
18398TIP3    H276610   3.524   2.581   1.060  0.3667  0.4386 -0.0137
18399TIP3   OH276611   6.557   0.417   2.190 -0.2840 -0.7631  0.2409
18399TIP3    H176612   6.525   0.442   2.277  0.7057  3.1976 -0.3363
18399TIP3    H276613   6.641   0.376   2.207 -0.9214 -1.7532  1.1898
18400TIP3   OH276614   0.388   6.384  14.805 -0.2959  0.3849 -0.3561
18400TIP3    H176615   0.388   6.446  14.878  0.4930 -0.1697  0.1317
18400TIP3    H276616   0.470   6.402  14.759 -1.1099  1.2149 -1.5512
18401TIP3   OH276617   3.710   2.717   3.575  0.0493 -0.4554 -0.4692
18401TIP3    H176618   3.780   2.782   3.566  0.0329 -0.4523 -0.5850
18401TIP3    H276619   3.682   2.723   3.666  0.7330 -1.0019 -0.2143
18402TIP3   OH276620   3.771   0.018   0.858  0.0839 -0.4078  0.5704
18402TIP3    H176621   3.761   0.063   0.773  0.2940 -0.9430  0.2589
18402TIP3    H276622   3.720   0.071   0.919  0.3763  0.3021  0.2223
18403TIP3   OH276623   0.283   0.439   1.090  0.3361 -0.0704  0.3696
18403TIP3    H176624   0.367   0.480   1.068 -0.1480  1.2776  0.9221
18403TIP3    H276625   0.237   0.432   1.007  0.7402 -0.2375  0.1546
18404TIP3   OH276626   4.384   4.675   0.964 -0.2014  0.5873 -0.6521
18404TIP3    H176627   4.347   4.633   0.886  0.0551  1.3258 -1.1714
18404TIP3    H276628   4.475   4.692   0.942 -0.4310  1.8927 -0.6370
18405TIP3   OH276629   5.939   3.878   3.039  0.1899  0.1722  0.4181
18405TIP3    H176630   5.924   3.825   2.961 -2.6668 -0.9350  1.5765
18405TIP3    H276631   5.955   3.814   3.109  1.2398  1.0702  1.0370
18406TIP3   OH276632   0.962   5.793   2.838  0.7520  0.3205 -0.3939
18406TIP3    H176633   0.947   5.700   2.825 -1.5674  0.5130  0.3655
18406TIP3    H276634   0.885   5.835   2.799  0.0887  1.6670  2.1198
18407TIP3   OH276635   2.682   2.624  14.280 -0.1511 -0.1462  0.1556
18407TIP3    H176636   2.591   2.638  14.304 -0.4527  1.2487 -1.6267
18407TIP3    H276637   2.732   2.687  14.333 -0.2708 -0.4826  0.6750
18408TIP3   OH276638   1.113   4.484  12.836  0.0718 -0.1474  0.4446
18408TIP3    H176639   1.123   4.579  12.837 -0.1570 -0.1286  1.3982
18408TIP3    H276640   1.022   4.470  12.808  1.3075 -0.2359 -4.3403
18409TIP3   OH276641   6.086   1.230   0.108 -0.3582  0.8199  0.0598
18409TIP3    H176642   5.995   1.249   0.085 -0.3609  0.3331 -0.3440
18409TIP3    H276643   6.128   1.316   0.112  0.0093  0.8897 -3.2705
18410TIP3   OH276644   5.818   0.785  14.767  0.1852 -0.0926  0.0643
18410TIP3    H176645   5.852   0.851  14.706 -2.1650  1.6062  0.4530
18410TIP3    H276646   5.893   0.728  14.786  2.1532  2.0863 -0.7856
18411TIP3   OH276647   1.985   4.648  13.938 -0.1045  0.6266  0.8165
18411TIP3    H176648   2.017   4.610  14.020 -0.7638  1.3852  1.4437
18411TIP3    H276649   2.013   4.587  13.871 -4.2120 -3.0366  2.0096
18412TIP3   OH276650   2.187   5.616  16.005 -0.1883  0.0785  0.5226
18412TIP3    H176651   2.221   5.689  15.953 -0.3125 -0.7775 -0.8022
18412TIP3    H276652   2.235   5.540  15.973 -2.1961 -0.9104 -0.2887
18413TIP3   OH276653   5.001   3.317  10.376  0.0068 -0.5830 -0.5488
18413TIP3    H176654   4.948   3.289  10.451 -0.8581  0.5006 -0.7272
18413TIP3    H276655   4.962   3.271  10.301 -0.8141  0.3327 -0.7029
18414TIP3   OH276656   3.825   5.456   3.380 -0.4547 -0.1651  0.3117
18414TIP3    H176657   3.805   5.382   3.323  1.8523 -0.7726  0.1830
18414TIP3    H276658   3.846   5.527   3.319 -3.4032  0.9371  0.4178
18415TIP3   OH276659   1.752   4.999  16.943 -0.4256 -0.3473 -0.4657
18415TIP3    H176660   1.837   5.030  16.910 -1.2769  4.3153  0.9159
18415TIP3    H276661   1.690   5.019  16.872 -0.7545 -1.2672 -0.4541
18416TIP3   OH276662   0.165   0.820  15.076  0.0110 -0.6217 -0.1659
18416TIP3    H176663   0.137   0.772  15.154 -1.2887 -1.1873 -0.9443
18416TIP3    H276664   0.107   0.789  15.007  0.8269  0.2155 -1.2620
18417TIP3   OH276665   6.686   5.910   4.967 -0.1197 -0.4535  0.3579
18417TIP3    H176666   6.714   5.923   5.057  2.2092  0.0799 -0.3837
18417TIP3    H276667   6.637   5.990   4.945 -0.6023 -0.5393  1.0852
18418TIP3   OH276668   3.938   3.242  12.023 -0.1416 -0.0546 -0.2303
18418TIP3    H176669   3.941   3.221  11.930  0.9203  0.5133 -0.3415
18418TIP3    H276670   3.914   3.160  12.066  0.9666 -0.7471 -0.8804
18419TIP3   OH276671   3.237   2.096  16.397  0.3539 -0.0117 -0.7286
18419TIP3    H176672   3.282   2.023  16.440  0.4575  0.9318  0.8141
18419TIP3    H276673   3.282   2.105  16.313  1.9952 -0.1417  0.0889
18420TIP3   OH276674   5.560   3.819  12.784 -0.1744  0.2036  0.1943
18420TIP3    H176675   5.561   3.831  12.689 -0.6702 -0.8684  0.0428
18420TIP3    H276676   5.586   3.728  12.797  1.4718  0.7625  1.1872
18421TIP3   OH276677   6.039   6.236  13.687 -0.4094 -0.1311 -0.2352
18421TIP3    H176678   5.947   6.233  13.715  0.3138  0.2205  2.4228
18421TIP3    H276679   6.064   6.328  13.699 -0.1335  0.1508 -2.6012
18422TIP3   OH276680   5.979   2.503   3.091 -0.5659  0.4064  0.6475
18422TIP3    H176681   5.933   2.585   3.110  0.0608  0.6401  1.1834
18422TIP3    H276682   6.069   2.519   3.120 -0.5977 -0.7217  1.4243
18423TIP3   OH276683   1.890   6.483   2.377 -0.1439  0.2792  0.0855
18423TIP3    H176684   1.871   6.453   2.288  0.9238 -0.7343  0.1588
18423TIP3    H276685   1.830   6.433   2.433 -1.6659  1.8108 -0.1308
18424TIP3   OH276686   4.114   0.468  13.287  0.2776  0.2141 -0.5642
18424TIP3    H176687   4.079   0.390  13.244 -1.7413  0.7072  0.0581
18424TIP3    H276688   4.209   0.454  13.291  0.0435 -1.7814 -1.2671
18425TIP3   OH276689   2.629   4.471  12.812  0.4002  0.4755  0.3602
18425TIP3    H176690   2.713   4.440  12.845  0.1393 -0.2725  0.3358
18425TIP3    H276691   2.624   4.562  12.841  1.1195  0.4587  0.5494
18426TIP3   OH276692   0.349   0.782   0.193 -0.6120 -0.7537 -0.2878
18426TIP3    H176693   0.413   0.849   0.218 -1.1607 -0.3334  0.0300
18426TIP3    H276694   0.349   0.784   0.097  0.0765 -0.9821 -0.2974
18427TIP3   OH276695   5.166   1.159  13.069  0.4152  0.2290 -0.1535
18427TIP3    H176696   5.241   1.164  13.010 -0.5206  1.1874 -1.2952
18427TIP3    H276697   5.091   1.138  13.013 -0.3880  0.4997  0.7844
18428TIP3   OH276698   4.813   4.807   5.510  0.4703  0.0722 -0.4467
18428TIP3    H176699   4.903   4.836   5.524  0.8962 -1.4063  0.1193
18428TIP3    H276700   4.814   4.771   5.421  0.4311  0.0989 -0.4577
18429TIP3   OH276701   6.497   1.001   2.958 -0.2842  0.4847  0.7462
18429TIP3    H176702   6.417   1.031   3.002 -0.3152 -1.3623  2.0819
18429TIP3    H276703   6.475   0.913   2.925  0.4785  0.9027 -0.9954
18430TIP3   OH276704   5.395   1.171  11.357 -0.1808 -0.3405  0.2770
18430TIP3    H176705   5.461   1.233  11.324 -0.0557 -1.1102 -0.9780
18430TIP3    H276706   5.318   1.226  11.373 -0.2104  0.1272 -1.2066
18431TIP3   OH276707   2.402   2.213  16.461  0.1086  0.2126 -0.4005
18431TIP3    H176708   2.393   2.162  16.541 -0.1660  0.9689  0.0588
18431TIP3    H276709   2.402   2.304  16.490 -0.2840  0.5101 -1.2863
18432TIP3   OH276710   5.329   0.279  14.021 -0.0483  0.3270 -0.6477
18432TIP3    H176711   5.311   0.339  14.093 -1.1710 -1.5936  0.7962
18432TIP3    H276712   5.248   0.229  14.011  0.6527 -0.5967 -2.1275
18433TIP3   OH276713   6.237   0.326  13.408 -0.2545 -0.5300 -0.2934
18433TIP3    H176714   6.333   0.329  13.412 -0.1459 -0.4887 -2.1932
18433TIP3    H276715   6.214   0.401  13.353 -1.3829 -0.6361  0.0220
18434TIP3   OH276716   6.548   6.653  11.330  0.6199  0.0280  0.5967
18434TIP3    H176717   6.483   6.693  11.387 -0.1666  1.4916 -1.2273
18434TIP3    H276718   6.620   6.717  11.327  0.1793  0.4841 -0.8617
18435TIP3   OH276719   5.187   1.847  14.575  0.1556  0.3194 -0.0103
18435TIP3    H176720   5.246   1.828  14.501  0.9991  2.0385  0.1661
18435TIP3    H276721   5.112   1.789  14.561  0.4193  0.3803 -2.0669
18436TIP3   OH276722   3.030   0.080  17.123  0.0093  0.3513 -0.3785
18436TIP3    H176723   3.040  -0.014  17.140  2.0586  0.4629 -0.7270
18436TIP3    H276724   3.116   0.108  17.092 -1.0586  1.9769 -2.0870
18437TIP3   OH276725   1.028   0.406  13.563  0.3811 -0.3135  0.3318
18437TIP3    H176726   0.961   0.338  13.561  0.8149 -0.7247 -1.2773
18437TIP3    H276727   0.978   0.488  13.573 -0.2405 -0.7250  0.6694
18438TIP3   OH276728   3.537   2.010  10.299 -0.9086 -1.2020  0.6567
18438TIP3    H176729   3.613   2.029  10.355 -1.3325  0.6690  0.6536
18438TIP3    H276730   3.568   1.943  10.238  1.3794  0.8293 -0.5861
18439TIP3   OH276731   3.826   5.727   1.756  0.2506 -0.0211 -0.4641
18439TIP3    H176732   3.793   5.661   1.817 -0.9066 -1.3152 -2.4138
18439TIP3    H276733   3.919   5.735   1.778  0.2903 -1.8797  0.1928
18440TIP3   OH276734   4.516   3.971  16.429  0.6420 -0.3946 -0.1207
18440TIP3    H176735   4.432   4.018  16.429 -0.1194 -1.6483  1.7912
18440TIP3    H276736   4.561   4.002  16.507  1.7963 -0.0738 -0.8915
18441TIP3   OH276737   4.184   5.609   5.484 -0.4946  0.2857  0.3966
18441TIP3    H176738   4.127   5.558   5.426 -1.1143 -0.0253  1.2625
18441TIP3    H276739   4.177   5.699   5.452 -1.1255  0.1770  0.2171
18442TIP3   OH276740   6.273   2.179   4.346 -0.2107 -0.1313 -0.0129
18442TIP3    H176741   6.205   2.210   4.406 -0.7196 -0.9630 -0.1352
18442TIP3    H276742   6.300   2.094   4.383 -1.4298 -1.2812 -1.5993
18443TIP3   OH276743   6.299   2.978  14.924  0.6829 -0.1186 -0.2056
18443TIP3    H176744   6.364   2.926  14.972 -0.4055  1.8248  3.7317
18443TIP3    H276745   6.351   3.023  14.856  3.0680 -0.3407  1.3422
18444TIP3   OH276746   4.738   4.153  11.675 -0.0781 -0.2124 -0.2688
18444TIP3    H176747   4.702   4.071  11.707 -0.9807  1.3977  3.3450
18444TIP3    H276748   4.833   4.143  11.684 -0.2156 -0.6333  0.9278
18445TIP3   OH276749   4.487   3.231   5.558  0.1199 -0.3092 -0.1735
18445TIP3    H176750   4.409   3.249   5.506 -0.7133 -1.4740  0.6440
18445TIP3    H276751   4.558   3.227   5.493 -0.6148 -0.0462 -1.0120
18446TIP3   OH276752   4.574   5.307  12.731 -0.2762 -0.5532 -0.1212
18446TIP3    H176753   4.525   5.388  12.721 -0.9029 -1.1208 -2.1050
18446TIP3    H276754   4.666   5.333  12.731 -0.4793  0.1776 -0.1884
18447TIP3   OH276755   1.034   1.831   3.817  0.3492 -0.7087 -0.1980
18447TIP3    H176756   1.060   1.918   3.785 -0.0743 -0.7019 -0.5413
18447TIP3    H276757   1.116   1.788   3.841  0.8869 -1.3081 -2.7974
18448TIP3   OH276758   4.997   3.562   0.088 -0.4505 -0.3397  0.5817
18448TIP3    H176759   4.919   3.570   0.034  0.8432  0.4150 -1.3197
18448TIP3    H276760   5.043   3.485   0.054  0.3175  0.0538  0.6890
18449TIP3   OH276761   6.642   1.181  10.622 -0.1053  0.0255 -1.1791
18449TIP3    H176762   6.666   1.184  10.530  3.4724 -1.4742 -0.4688
18449TIP3    H276763   6.662   1.268  10.656 -0.0010  0.1386 -1.5350
18450TIP3   OH276764   0.318   4.263  13.107  0.0201 -0.2563 -0.8005
18450TIP3    H176765   0.302   4.261  13.201 -0.3342  1.8957 -0.7653
18450TIP3    H276766   0.357   4.178  13.087  0.7749 -0.4742  1.3969
18451TIP3   OH276767   6.391   3.931   5.327  0.2435 -0.0330  0.4886
18451TIP3    H176768   6.434   4.004   5.371 -1.0465 -0.5699  2.8185
18451TIP3    H276769   6.405   3.857   5.386 -2.8524 -0.4587  0.8436
18452TIP3   OH276770   0.697   4.839  14.675  0.1654  0.4476  0.3171
18452TIP3    H176771   0.711   4.923  14.631 -0.2207 -0.4996 -1.7008
18452TIP3    H276772   0.760   4.779  14.634  0.5008 -0.2530  1.7873
18453TIP3   OH276773   2.062   3.423   2.477  0.0790  0.1495 -0.4969
18453TIP3    H176774   1.975   3.392   2.453 -0.8358  0.7126  1.7807
18453TIP3    H276775   2.072   3.507   2.433 -1.8697  1.5485  1.5026
18454TIP3   OH276776   0.498   6.699  16.383  0.4976 -0.7931  0.5400
18454TIP3    H176777   0.425   6.669  16.437 -0.2526  1.8687  1.1357
18454TIP3    H276778   0.576   6.675  16.433 -0.0866 -1.0958  1.3197
18455TIP3   OH276779   2.429   2.695   5.654  0.5205  0.2861 -0.3850
18455TIP3    H176780   2.474   2.747   5.587 -0.8442  0.5396 -1.1404
18455TIP3    H276781   2.347   2.668   5.612 -0.1506  0.0453  1.0330
18456TIP3   OH276782   0.635   3.909   3.381  0.2596 -0.3800 -0.0209
18456TIP3    H176783   0.551   3.862   3.379  0.5642 -0.9194 -0.4489
18456TIP3    H276784   0.630   3.964   3.459 -0.2952 -0.7846  0.2329
18457TIP3   OH276785   1.469   4.498   0.063 -0.6182 -0.1399  0.1478
18457TIP3    H176786   1.559   4.526   0.077 -0.6472  0.2900 -0.4733
18457TIP3    H276787   1.454   4.432   0.130 -0.0559  0.2515  0.6720
18458TIP3   OH276788   6.203   0.910  13.430 -0.5068  0.0805 -0.1406
18458TIP3    H176789   6.204   0.860  13.349 -1.4027 -0.7386  0.3333
18458TIP3    H276790   6.113   0.941  13.438 -0.5624 -0.2882  0.7949
18459TIP3   OH276791   3.254   5.471   5.626 -0.1494 -0.3715  0.0347
18459TIP3    H176792   3.258   5.429   5.540  3.3922  1.0090 -0.6148
18459TIP3    H276793   3.240   5.563   5.607 -2.3188 -0.3823  1.1983
18460TIP3   OH276794   1.731   5.949   3.937 -0.5012  0.3404 -0.2117
18460TIP3    H176795   1.745   6.008   4.011  0.3262  0.0506 -0.1294
18460TIP3    H276796   1.813   5.900   3.929 -1.6553 -1.8823  0.6850
18461TIP3   OH276797   4.661   4.486   1.004 -0.0849 -0.2237 -0.1959
18461TIP3    H176798   4.613   4.444   0.934 -1.8617 -0.6500  1.2005
18461TIP3    H276799   4.743   4.437   1.011 -0.1655 -0.5679 -1.5278
18462TIP3   OH276800   5.157   1.822   3.139  0.4425  0.4126 -0.1448
18462TIP3    H176801   5.221   1.846   3.206  0.2488 -1.4137  0.7557
18462TIP3    H276802   5.209   1.802   3.061  1.1810 -2.3634  0.9623
18463TIP3   OH276803   3.819   5.787  14.128  0.1184 -0.1925  0.7998
18463TIP3    H176804   3.868   5.829  14.057 -1.0000 -0.1491  0.0384
18463TIP3    H276805   3.780   5.859  14.177  0.3600 -0.2508  1.0831
18464TIP3   OH276806   0.741   2.054  14.134 -1.0497  0.0924  0.0208
18464TIP3    H176807   0.765   2.144  14.157 -0.5999  0.2177 -0.8942
18464TIP3    H276808   0.796   2.033  14.058 -0.3235 -1.3508  0.8999
18465TIP3   OH276809   5.675   5.144   4.766  0.3518 -0.2267  0.2527
18465TIP3    H176810   5.595   5.104   4.731 -0.3359 -1.3439  2.8218
18465TIP3    H276811   5.644   5.198   4.839  1.7351  1.5764 -0.4208
18466TIP3   OH276812   1.925   5.036  14.344 -0.1552  0.6871 -0.0631
18466TIP3    H176813   2.020   5.022  14.347 -0.2884 -0.5792 -0.8470
18466TIP3    H276814   1.902   5.063  14.433  0.7846 -0.1360  0.4611
18467TIP3   OH276815   0.159   5.876  15.205 -0.4971  0.0200  0.0534
18467TIP3    H176816   0.109   5.940  15.156  0.6373  0.6587 -0.3018
18467TIP3    H276817   0.099   5.847  15.274 -1.7211 -0.0621 -0.9994
18468TIP3   OH276818   5.566   1.599  16.344 -0.0846  0.1313  0.0765
18468TIP3    H176819   5.627   1.601  16.417  0.0704  2.1703 -0.0413
18468TIP3    H276820   5.604   1.659  16.279  0.0970 -2.0431 -1.9699
18469TIP3   OH276821   5.973   5.707  16.049  0.6180 -0.2632 -0.3042
18469TIP3    H176822   5.921   5.787  16.051 -0.5144 -0.9065 -1.9133
18469TIP3    H276823   6.032   5.715  16.124  0.4251  1.9899 -0.3170
18470TIP3   OH276824   4.592   5.615  16.309  1.0506  0.0361 -0.2199
18470TIP3    H176825   4.581   5.551  16.239  1.7406  0.4155 -0.6892
18470TIP3    H276826   4.678   5.654  16.292  0.7387  0.9159  0.1961
18471TIP3   OH276827   2.574   0.259  17.058  0.5873  0.3338 -0.1120
18471TIP3    H176828   2.601   0.232  17.146 -0.8852 -2.2975 -0.3560
18471TIP3    H276829   2.630   0.208  16.999  0.1250  0.4717 -0.6766
18472TIP3   OH276830   5.915   1.643   2.074  0.0743  0.1228 -0.0883
18472TIP3    H176831   5.982   1.592   2.120  1.4114  1.5899 -0.2936
18472TIP3    H276832   5.914   1.607   1.986 -1.5770 -1.8517  0.6761
18473TIP3   OH276833   0.979   2.646  15.586  0.0306  0.4279 -0.0041
18473TIP3    H176834   1.059   2.606  15.620 -0.1674 -0.3551 -0.4278
18473TIP3    H276835   0.917   2.642  15.660  0.1610  0.3781  0.1031
18474TIP3   OH276836   4.524   4.915   1.103  0.3774  0.4704 -0.2581
18474TIP3    H176837   4.487   4.847   1.048  2.2449 -0.1311 -0.8372
18474TIP3    H276838   4.604   4.941   1.058  2.0510 -0.1304  2.1884
18475TIP3   OH276839   3.736   2.316  16.726 -0.0722 -0.0868 -0.2781
18475TIP3    H176840   3.700   2.404  16.712  0.6049  0.1449 -0.5606
18475TIP3    H276841   3.763   2.317  16.818 -2.3171 -0.8286  0.4723
18476TIP3   OH276842   5.445   0.623   3.987 -0.2171 -0.4695 -0.3352
18476TIP3    H176843   5.393   0.546   4.010  0.0492 -0.8676 -1.0594
18476TIP3    H276844   5.393   0.697   4.020  0.5512 -1.0290  2.3399
18477TIP3   OH276845   1.030   5.083  12.443 -0.5475  0.2526  0.4675
18477TIP3    H176846   1.065   5.159  12.397 -2.1696  1.5646  1.3096
18477TIP3    H276847   1.070   5.087  12.530  0.7037 -0.9049 -0.0029
18478TIP3   OH276848   3.555   6.698   4.986 -0.4232 -0.1553  0.2034
18478TIP3    H176849   3.637   6.742   5.008  0.5561 -0.4602 -2.5007
18478TIP3    H276850   3.580   6.607   4.971 -1.4522 -0.4823  0.3770
18479TIP3   OH276851   3.768   4.877  12.806 -0.9176 -0.0261 -0.1571
18479TIP3    H176852   3.720   4.898  12.886 -0.2660 -0.5179  0.3731
18479TIP3    H276853   3.712   4.910  12.735 -2.2258 -0.9325  0.4125
18480TIP3   OH276854   0.112   6.043  11.738 -0.3510  0.3437 -0.3043
18480TIP3    H176855   0.193   6.008  11.703 -1.3432 -1.6203 -0.8208
18480TIP3    H276856   0.120   6.032  11.833 -0.2591 -0.4822 -0.3973
18481TIP3   OH276857   1.964   2.017   1.873  0.3101 -0.3404 -0.4902
18481TIP3    H176858   2.034   1.956   1.851  0.4123 -0.1021 -0.8396
18481TIP3    H276859   2.006   2.103   1.871  0.0633 -0.2172 -0.4574
18482TIP3   OH276860   0.818   3.301   5.359 -0.0301  0.7023  0.3058
18482TIP3    H176861   0.805   3.384   5.313 -0.6220  1.3762  1.6422
18482TIP3    H276862   0.759   3.240   5.316 -0.3750  1.2419  0.0007
18483TIP3   OH276863   1.379   2.117   1.940  0.0748 -0.0147 -0.2439
18483TIP3    H176864   1.350   2.034   1.978  3.3919 -1.3526 -0.2746
18483TIP3    H276865   1.318   2.182   1.975 -0.9416 -2.0699  2.1123
18484TIP3   OH276866   0.652   6.081  16.466  0.5950  0.1786  0.1484
18484TIP3    H176867   0.595   6.007  16.448 -1.9280  1.7738  1.0134
18484TIP3    H276868   0.655   6.130  16.384  3.5571 -1.5481 -0.9195
18485TIP3   OH276869   5.206   3.485  16.389  0.1962 -0.0654 -0.5477
18485TIP3    H176870   5.201   3.546  16.463 -0.3645  1.4759 -1.7804
18485TIP3    H276871   5.299   3.482  16.366  0.3077 -0.1714 -0.0847
18486TIP3   OH276872   3.359   4.048  12.464 -0.3179 -0.3527 -0.0958
18486TIP3    H176873   3.445   4.042  12.423 -0.1887  1.8399 -0.2563
18486TIP3    H276874   3.304   4.091  12.398 -0.6177  1.4049  1.2152
18487TIP3   OH276875   6.576   4.938   3.240  0.4989 -0.4586 -0.4802
18487TIP3    H176876   6.481   4.941   3.255  0.3171 -0.4860 -1.5307
18487TIP3    H276877   6.611   5.010   3.293 -0.2043  0.0287 -0.6577
18488TIP3   OH276878   3.928   2.249   1.070  0.0854  0.3622  0.1173
18488TIP3    H176879   3.843   2.268   1.029  0.3519  0.9379 -0.1946
18488TIP3    H276880   3.982   2.326   1.048 -0.0015  1.0901  2.2356
18489TIP3   OH276881   1.456   1.639   5.050  0.2414 -0.8348 -0.0320
18489TIP3    H176882   1.398   1.606   4.982 -0.7843  0.7464  0.0173
18489TIP3    H276883   1.489   1.561   5.094 -0.5087 -1.8221 -1.1600
18490TIP3   OH276884   3.974   1.640  11.605  0.4815 -0.1907 -0.0330
18490TIP3    H176885   4.030   1.569  11.634  1.0770  0.3360  0.1240
18490TIP3    H276886   3.996   1.652  11.513  1.4687  0.7683  0.3057
18491TIP3   OH276887   3.673   3.834  14.068 -0.4619  0.6699  0.2194
18491TIP3    H176888   3.730   3.902  14.104  0.5276 -0.4055  0.7447
18491TIP3    H276889   3.586   3.858  14.100  0.0067  1.1645  1.2112
18492TIP3   OH276890   6.721   4.711  15.090  0.3448  0.6916 -0.2780
18492TIP3    H176891   6.684   4.633  15.048  0.1072  0.7114 -0.1123
18492TIP3    H276892   6.698   4.700  15.183  1.5756  0.2338 -0.0065
18493TIP3   OH276893   4.723   0.986   4.057  0.2768 -0.1040  0.0310
18493TIP3    H176894   4.802   0.989   4.004  1.9975 -1.9293  2.2824
18493TIP3    H276895   4.694   0.895   4.051  1.0930 -0.6428  2.8253
18494TIP3   OH276896   0.518   6.537  12.757 -0.0894  0.1965  0.7784
18494TIP3    H176897   0.514   6.468  12.691  0.9766  0.5594  0.3064
18494TIP3    H276898   0.609   6.536  12.787 -0.0068  1.4923  0.6383
18495TIP3   OH276899   3.764   6.185   4.679  0.0435  0.2293 -0.3540
18495TIP3    H176900   3.732   6.270   4.709 -1.2071 -0.7858  1.3894
18495TIP3    H276901   3.716   6.168   4.597 -0.8902  0.5190  0.1213
18496TIP3   OH276902   3.919   0.888   1.931  0.0874  0.4499  0.3781
18496TIP3    H176903   3.848   0.829   1.956 -1.2727  2.5370  1.7737
18496TIP3    H276904   3.977   0.834   1.877 -2.2390 -1.5080 -0.3540
18497TIP3   OH276905   4.171   2.898   3.028 -0.2989 -0.3949 -0.4483
18497TIP3    H176906   4.238   2.830   3.027 -0.5628 -0.6886  0.5828
18497TIP3    H276907   4.205   2.963   3.090 -0.1731  0.2864 -1.2205
18498TIP3   OH276908   0.991   3.911   2.665  0.2664 -0.0711 -0.3238
18498TIP3    H176909   1.004   3.857   2.588 -1.8454 -1.7295  0.3749
18498TIP3    H276910   1.059   3.883   2.726  0.4133 -0.5323 -0.6935
18499TIP3   OH276911   2.607   3.392  16.583  0.0893 -0.9408  0.3605
18499TIP3    H176912   2.568   3.336  16.515 -0.8748 -1.2234  1.1167
18499TIP3    H276913   2.574   3.356  16.665  0.5316 -0.0650  0.9345
18500TIP3   OH276914   5.191   6.684  14.865 -0.5179  0.4558 -0.3519
18500TIP3    H176915   5.119   6.622  14.876 -0.3603  0.5878  1.7799
18500TIP3    H276916   5.221   6.702  14.954  0.6640  2.1646 -1.0517
18501TIP3   OH276917   5.816   0.745   6.416 -0.0456  0.3479  0.1498
18501TIP3    H176918   5.873   0.774   6.487 -1.3299 -0.9838  1.7998
18501TIP3    H276919   5.760   0.679   6.456 -0.7154 -0.5731 -2.1643
18502TIP3   OH276920   3.770   0.166  14.511  0.3664  0.1107 -0.3107
18502TIP3    H176921   3.796   0.154  14.603  0.1777 -0.0296 -0.2749
18502TIP3    H276922   3.772   0.078  14.474  1.3250  0.2813 -0.6814
18503TIP3   OH276923   0.811   6.513  13.565  0.2643 -0.2219  0.3882
18503TIP3    H176924   0.877   6.483  13.503 -0.5802 -1.2462 -0.0331
18503TIP3    H276925   0.738   6.542  13.511  1.5475  4.2060  0.6316
18504TIP3   OH276926   2.945   3.921  10.666  0.0994 -0.0510 -0.1577
18504TIP3    H176927   2.921   3.992  10.605  0.0610 -0.9455 -1.2120
18504TIP3    H276928   2.880   3.853  10.650  0.4820 -0.5609  0.4343
18505TIP3   OH276929   6.088   1.601  13.961 -0.2614 -0.7523 -0.9115
18505TIP3    H176930   6.069   1.549  13.883 -0.9014 -1.0118 -0.5860
18505TIP3    H276931   6.059   1.689  13.939 -1.1314 -0.9794 -0.7048
18506TIP3   OH276932   5.961   2.998  13.477  0.2869  0.3263 -0.0118
18506TIP3    H176933   5.915   2.916  13.495  1.6565 -0.1589  1.5731
18506TIP3    H276934   5.993   2.990  13.388 -1.1201 -0.0852 -0.4980
18507TIP3   OH276935   1.033   0.891  14.552 -0.0287  0.0451  0.2891
18507TIP3    H176936   0.977   0.910  14.477  0.9425  0.8719 -0.2676
18507TIP3    H276937   1.104   0.838  14.516 -0.0097 -0.2874  0.8051
18508TIP3   OH276938   1.850   6.796  16.307  0.3828 -0.4512  0.1382
18508TIP3    H176939   1.817   6.707  16.297  0.4468 -0.3163 -1.7339
18508TIP3    H276940   1.800   6.847  16.243  1.7974  0.4244 -0.3225
18509TIP3   OH276941   5.152   0.129   3.844  0.1013 -0.2795 -0.6998
18509TIP3    H176942   5.226   0.180   3.812 -0.4255  0.8891 -0.1031
18509TIP3    H276943   5.085   0.194   3.865 -0.9099 -1.2765 -0.7268
18510TIP3   OH276944   5.099   5.739   4.846 -0.2443  0.4654 -0.1557
18510TIP3    H176945   5.187   5.775   4.845 -0.5456  1.2284 -0.4739
18510TIP3    H276946   5.087   5.705   4.935  0.5917 -0.2372 -0.3056
18511TIP3   OH276947   5.413   0.467   1.768 -0.5399 -0.3684 -0.5490
18511TIP3    H176948   5.474   0.477   1.841 -1.5760 -0.1732  0.3071
18511TIP3    H276949   5.469   0.467   1.690  0.6206 -0.9307  0.2496
18512TIP3   OH276950   2.915   6.798   5.485  0.2723  1.0030  0.4158
18512TIP3    H176951   2.861   6.777   5.409 -0.2128  0.2803  0.9488
18512TIP3    H276952   2.981   6.858   5.451 -0.6011  1.5668 -0.3392
18513TIP3   OH276953   6.165   6.246  14.782  0.1960 -0.2669  0.2375
18513TIP3    H176954   6.199   6.323  14.829  0.4423 -0.2468  0.0206
18513TIP3    H276955   6.111   6.201  14.848  0.4395 -0.1702  0.5054
18514TIP3   OH276956   0.270   3.269  12.388 -0.1297  0.6123  0.3360
18514TIP3    H176957   0.218   3.196  12.420 -1.3970  0.0378 -2.7084
18514TIP3    H276958   0.206   3.327  12.346  1.1508  2.2939  0.5964
18515TIP3   OH276959   2.099   2.812  13.670 -0.2496  0.2022  0.1715
18515TIP3    H176960   2.073   2.882  13.730  0.2969  1.5219 -1.0461
18515TIP3    H276961   2.185   2.784  13.702  0.0817  0.9646 -0.0090
18516TIP3   OH276962   5.181   6.258  12.505  0.3910 -0.1665 -0.4520
18516TIP3    H176963   5.168   6.329  12.568 -0.6443 -0.8554  0.1353
18516TIP3    H276964   5.110   6.269  12.441 -0.1170 -0.9959 -0.0415
18517TIP3   OH276965   1.777   1.261  11.262 -0.1234  0.3148 -0.6108
18517TIP3    H176966   1.812   1.307  11.186  0.3779  1.0799  0.0728
18517TIP3    H276967   1.724   1.326  11.307  0.7898  0.3111  0.5002
18518TIP3   OH276968   0.366   1.781  15.200  0.0915 -0.1430  0.2731
18518TIP3    H176969   0.297   1.752  15.141 -0.7092  1.1964  0.4921
18518TIP3    H276970   0.447   1.764  15.153 -0.4719 -0.1157 -0.7396
18519TIP3   OH276971   1.833   6.192   2.472  0.5272 -0.4131  0.0593
18519TIP3    H176972   1.798   6.112   2.512 -0.3616 -0.0356  0.0672
18519TIP3    H276973   1.868   6.243   2.545  0.8756 -0.6841  0.0834
18520TIP3   OH276974   1.023   0.589   5.882  0.2319  0.2321  0.3191
18520TIP3    H176975   0.963   0.662   5.894  0.5241  0.7733 -1.2432
18520TIP3    H276976   1.071   0.583   5.964 -0.1856  1.4366  0.6672
18521TIP3   OH276977   2.795   3.865   2.188 -0.5892 -0.1688 -0.4459
18521TIP3    H176978   2.806   3.805   2.261 -1.2949 -0.3726 -0.5016
18521TIP3    H276979   2.866   3.843   2.127 -1.2083 -1.3767 -0.7562
18522TIP3   OH276980   4.328   0.889   4.663 -0.0036 -0.2146 -0.5784
18522TIP3    H176981   4.384   0.819   4.696  1.2339  1.0777  0.1616
18522TIP3    H276982   4.379   0.968   4.674 -1.4031  0.8429 -1.3156
18523TIP3   OH276983   2.362   2.192  13.186  0.4987 -0.0078 -0.3682
18523TIP3    H176984   2.374   2.169  13.278 -0.4555 -1.1730 -0.5052
18523TIP3    H276985   2.269   2.175  13.170  0.8104 -0.5236 -1.7282
18524TIP3   OH276986   4.652   4.916   4.690  0.5679  0.4375  0.0019
18524TIP3    H176987   4.656   4.942   4.782 -0.5332  1.7044 -0.2744
18524TIP3    H276988   4.576   4.962   4.655  0.2687 -0.9393 -1.2783
18525TIP3   OH276989   5.492   0.190   0.552  0.2363  0.5609 -0.1699
18525TIP3    H176990   5.419   0.252   0.552  1.2826  1.8917 -1.8083
18525TIP3    H276991   5.469   0.125   0.618 -2.7179  0.5552 -1.0920
18526TIP3   OH276992   6.447   6.092  13.749  0.1609 -0.8464 -0.0877
18526TIP3    H176993   6.481   6.151  13.816  1.3263 -2.5341  0.8661
18526TIP3    H276994   6.517   6.088  13.683  0.0771 -1.1362 -0.1602
18527TIP3   OH276995   4.324   4.238   3.907 -0.8312 -0.0421 -0.1847
18527TIP3    H176996   4.311   4.302   3.977  2.0525  1.2385 -0.6814
18527TIP3    H276997   4.404   4.192   3.930 -1.8738 -2.2922 -0.7873
18528TIP3   OH276998   2.230   1.208   4.270  0.1017  0.3439  0.3947
18528TIP3    H176999   2.264   1.295   4.248 -1.8770  0.8460 -0.9176
18528TIP3    H277000   2.276   1.149   4.210 -0.2064  0.8070 -0.3145
18529TIP3   OH277001   2.577   4.328  13.397  0.1638 -0.3048  0.0542
18529TIP3    H177002   2.508   4.388  13.371 -0.0670 -0.6114 -0.0498
18529TIP3    H277003   2.611   4.293  13.315  2.3375  1.8927 -0.0975
18530TIP3   OH277004   4.511   4.332  12.246 -0.1072  0.4387  0.0208
18530TIP3    H177005   4.485   4.423  12.236 -0.5232  0.4469  1.1233
18530TIP3    H277006   4.499   4.313  12.339 -1.1855 -1.0926 -0.3992
18531TIP3   OH277007   1.771   0.513   3.468  0.1496 -0.3653 -0.2863
18531TIP3    H177008   1.719   0.507   3.388 -1.2482 -1.2826  0.6536
18531TIP3    H277009   1.757   0.430   3.512  1.6911 -0.2590  0.4624
18532TIP3   OH277010   5.933   2.215  14.202  0.3057 -0.4078  0.6787
18532TIP3    H177011   5.848   2.247  14.230  0.5557  0.2609  0.6843
18532TIP3    H277012   5.996   2.278  14.237  0.7446 -0.4570 -0.0016
18533TIP3   OH277013   5.750   5.514  11.977 -0.0022 -0.4086 -0.0445
18533TIP3    H177014   5.770   5.443  12.037 -1.6234 -0.1931  0.8115
18533TIP3    H277015   5.685   5.477  11.917  0.2947 -0.1008 -0.5658
18534TIP3   OH277016   0.832   0.955  15.482 -0.4799 -0.0857  0.1025
18534TIP3    H177017   0.869   0.873  15.450 -1.4220 -0.6725  0.4779
18534TIP3    H277018   0.828   0.944  15.577  1.7704  1.4233  0.4471
18535TIP3   OH277019   3.604   2.533   3.408  0.5415 -0.2555 -0.3388
18535TIP3    H177020   3.676   2.586   3.376 -0.9710  1.2646 -1.4461
18535TIP3    H277021   3.615   2.530   3.503  1.0329  1.5039 -0.3154
18536TIP3   OH277022   5.797   4.578   1.957  0.2886 -0.3293 -0.4103
18536TIP3    H177023   5.862   4.622   2.012  1.5521 -1.1080 -1.2413
18536TIP3    H277024   5.760   4.648   1.903 -0.9577  0.4493  1.3459
18537TIP3   OH277025   1.394   1.809   5.286 -0.3644  0.1305  0.2752
18537TIP3    H177026   1.399   1.815   5.190 -2.4282  1.0462  0.1661
18537TIP3    H277027   1.300   1.802   5.304  0.0161 -0.4328  2.2297
18538TIP3   OH277028   5.366   3.318   0.847  0.0645 -0.3615  0.1539
18538TIP3    H177029   5.390   3.257   0.777 -0.1478 -0.9002  0.5571
18538TIP3    H277030   5.449   3.341   0.888  0.0262 -1.3321  0.7963
18539TIP3   OH277031   0.869   6.621   4.948  0.0021 -0.0462  0.0790
18539TIP3    H177032   0.868   6.533   4.909  0.3083 -0.0059 -0.0272
18539TIP3    H277033   0.795   6.666   4.907  0.0843 -0.1298 -0.1663
18540TIP3   OH277034   1.795   5.018   5.635 -0.4173 -0.2034  0.3538
18540TIP3    H177035   1.828   5.060   5.715  1.3153  0.7822 -0.8083
18540TIP3    H277036   1.862   4.955   5.612 -0.6963 -0.1839 -0.5434
18541TIP3   OH277037   1.953   6.692  11.506 -0.3301 -0.2378  0.1416
18541TIP3    H177038   2.030   6.640  11.524 -0.1219 -1.0408 -2.6135
18541TIP3    H277039   1.936   6.679  11.412 -3.7339 -0.0093  0.5965
18542TIP3   OH277040   5.718   4.713  11.787 -0.6449  0.0511  0.1738
18542TIP3    H177041   5.724   4.618  11.800  0.9714  0.1724  0.5707
18542TIP3    H277042   5.745   4.726  11.696  2.6899  0.3372  1.0570
18543TIP3   OH277043   6.796   4.583  16.428  0.0268  0.3812  0.5082
18543TIP3    H177044   6.712   4.545  16.402  0.7247  0.1192 -1.5688
18543TIP3    H277045   6.854   4.564  16.354  2.1176 -0.0783  2.1656
18544TIP3   OH277046   5.476   2.138   4.966 -0.2933  0.6553  0.1015
18544TIP3    H177047   5.468   2.108   4.876 -0.5660 -1.0926  0.6698
18544TIP3    H277048   5.549   2.201   4.964 -0.1496  0.4657 -1.2877
18545TIP3   OH277049   4.051   1.114   2.313  0.0127 -0.1578  0.8447
18545TIP3    H177050   4.109   1.187   2.335 -0.1534 -0.6569  3.2586
18545TIP3    H277051   4.067   1.098   2.220  0.9985  2.0875  0.5522
18546TIP3   OH277052   4.561   1.712   3.122  0.3907  0.0436  0.1234
18546TIP3    H177053   4.649   1.689   3.092  1.2987  1.8927  1.1725
18546TIP3    H277054   4.576   1.776   3.192 -1.7999  0.2820  0.4365
18547TIP3   OH277055   6.651   1.994  13.485 -0.2372  0.0022 -0.1065
18547TIP3    H177056   6.676   2.047  13.560 -0.6089  0.9378 -0.6283
18547TIP3    H277057   6.644   2.056  13.412 -2.1373 -0.4811 -0.4109
18548TIP3   OH277058   1.861   2.676   3.407 -0.1245  0.3376  0.1780
18548TIP3    H177059   1.933   2.703   3.465 -0.7103  2.9651 -0.2050
18548TIP3    H277060   1.892   2.595   3.366  2.6412  1.3796  0.0100
18549TIP3   OH277061   1.343   5.404   2.156 -0.4087  0.2589  0.1682
18549TIP3    H177062   1.295   5.486   2.172  0.4542  0.8560 -0.2018
18549TIP3    H277063   1.420   5.410   2.212 -0.4548 -0.4170  0.3090
18550TIP3   OH277064   1.592   0.447   5.107 -0.8656 -0.5002 -0.0731
18550TIP3    H177065   1.572   0.483   5.194 -1.7441  0.1993 -0.5531
18550TIP3    H277066   1.614   0.524   5.054 -1.2824 -0.8224 -0.7185
18551TIP3   OH277067   5.877   1.327   2.749  0.0833 -0.9511  0.3992
18551TIP3    H177068   5.799   1.350   2.698 -0.2195 -2.2063  0.2696
18551TIP3    H277069   5.948   1.327   2.686 -0.1560 -1.7153  0.1179
18552TIP3   OH277070   0.538   4.988  12.783 -0.1676 -0.0292 -0.4851
18552TIP3    H177071   0.540   5.033  12.868 -1.6984 -2.0037  0.6982
18552TIP3    H277072   0.446   4.994  12.755 -0.1407 -1.2866 -0.9067
18553TIP3   OH277073   2.834   1.618   1.826  0.8402 -0.0808  0.1330
18553TIP3    H177074   2.746   1.632   1.862  0.3291 -1.3401 -0.5228
18553TIP3    H277075   2.821   1.549   1.760  2.6315 -1.7324  1.4011
18554TIP3   OH277076   0.328   0.476  12.468  0.2713 -0.2851 -0.0427
18554TIP3    H177077   0.403   0.493  12.411  1.0567 -2.3626  0.2657
18554TIP3    H277078   0.260   0.535  12.437  0.8920 -0.8411 -2.6974
18555TIP3   OH277079   4.754   4.166   2.250  0.0960  0.0501 -0.6340
18555TIP3    H177080   4.690   4.225   2.290 -0.0551  0.4743 -1.4852
18555TIP3    H277081   4.772   4.101   2.318 -0.0044  0.8627  0.1949
18556TIP3   OH277082   5.984   5.771  11.629 -0.1697  0.2224 -0.1706
18556TIP3    H177083   6.018   5.814  11.551  0.1426 -1.0268 -0.7496
18556TIP3    H277084   6.013   5.827  11.702  3.3165 -0.7783 -0.5870
18557TIP3   OH277085   5.895   4.264  16.062 -0.0342 -0.1171 -0.3386
18557TIP3    H177086   5.825   4.200  16.049  1.8278 -2.4048  0.1193
18557TIP3    H277087   5.899   4.277  16.157  0.3195 -0.2398 -0.3318
18558TIP3   OH277088   5.996   2.290  11.164 -0.0587 -0.8250  0.3684
18558TIP3    H177089   6.078   2.338  11.177 -0.4460 -0.7098  2.9745
18558TIP3    H277090   5.929   2.358  11.160 -0.2410 -0.9968  0.4973
18559TIP3   OH277091   2.966   1.869  13.392  0.3900  0.2038 -0.0176
18559TIP3    H177092   2.871   1.868  13.395  0.3716 -0.5602 -0.5248
18559TIP3    H277093   2.988   1.941  13.333  0.0216 -1.1617 -1.9491
18560TIP3   OH277094   4.712   0.024  15.539 -0.9893  0.4122  0.1994
18560TIP3    H177095   4.653  -0.050  15.522 -1.1892  0.9671 -1.7644
18560TIP3    H277096   4.710   0.075  15.459  0.6744  1.5145  0.8067
18561TIP3   OH277097   0.951   1.385   0.530  0.3017  0.1380 -0.2371
18561TIP3    H177098   0.904   1.468   0.524  1.0065  0.5751  0.1347
18561TIP3    H277099   1.044   1.409   0.525  0.5535 -0.5354  0.7610
18562TIP3   OH277100   2.632   6.025  13.651  0.0641  0.4821  0.1402
18562TIP3    H177101   2.556   5.971  13.629  0.1290  0.4142  0.0827
18562TIP3    H277102   2.701   5.996  13.591 -0.0537  0.9948 -0.2490
18563TIP3   OH277103   4.119   4.157   5.674 -0.0797  0.1216  0.2259
18563TIP3    H177104   4.086   4.082   5.724 -0.6015 -0.0515 -0.3721
18563TIP3    H277105   4.092   4.233   5.725 -0.2671 -0.0669  0.4130
18564TIP3   OH277106   6.005   0.986  15.234  0.3491 -0.7202  0.3912
18564TIP3    H177107   6.080   0.932  15.211  0.8052 -0.6336  1.5888
18564TIP3    H277108   6.017   1.004  15.328 -0.4636  0.3899  0.2958
18565TIP3   OH277109   0.557   5.743   1.537 -0.0628 -0.1227  0.1553
18565TIP3    H177110   0.596   5.762   1.622 -2.3710 -0.0818  1.2856
18565TIP3    H277111   0.616   5.680   1.497  2.2990  1.5928  0.7506
18566TIP3   OH277112   4.335   0.818   4.971 -0.3593  0.2350 -0.1430
18566TIP3    H177113   4.298   0.901   4.942 -0.6338  0.3775  0.5995
18566TIP3    H277114   4.390   0.841   5.046 -0.5404 -0.2712  0.1461
18567TIP3   OH277115   3.889   4.257   1.210 -0.1845  0.5382 -0.4484
18567TIP3    H177116   3.958   4.221   1.154  0.2706 -0.0411  0.4493
18567TIP3    H277117   3.922   4.343   1.235  0.1685  0.3099 -0.1160
18568TIP3   OH277118   0.425   1.660   5.093  0.0029 -0.2857  0.1377
18568TIP3    H177119   0.446   1.605   5.168 -0.1082  0.9059  1.0690
18568TIP3    H277120   0.400   1.598   5.024 -1.6251 -1.3553  1.6051
18569TIP3   OH277121   4.285   1.990   3.973  0.2839  0.0812  0.5911
18569TIP3    H177122   4.240   2.051   4.032  2.2481  2.3625 -0.1207
18569TIP3    H277123   4.320   1.923   4.031 -1.5480 -0.2032  1.4589
18570TIP3   OH277124   3.063   5.522  16.567  0.5256  0.1690 -0.0715
18570TIP3    H177125   3.024   5.517  16.480  0.7825  1.4475 -0.2806
18570TIP3    H277126   3.052   5.434  16.604  1.1704 -0.6352 -1.7007
18571TIP3   OH277127   4.466   6.212   0.280  0.0040  0.4264  0.3182
18571TIP3    H177128   4.442   6.297   0.318  0.9292  0.9209 -0.1487
18571TIP3    H277129   4.479   6.155   0.356  0.3874  0.9996  0.6968
18572TIP3   OH277130   0.378   4.540   5.029  0.3397  0.0985 -0.4442
18572TIP3    H177131   0.314   4.582   5.087 -1.9462  1.9908 -3.9667
18572TIP3    H277132   0.461   4.580   5.054 -0.4788  0.7100  1.5748
18573TIP3   OH277133   1.939   4.942  15.980  0.0044  0.0644  0.7587
18573TIP3    H177134   1.998   4.922  15.907 -0.6908  0.4447  0.0770
18573TIP3    H277135   1.892   5.020  15.952 -0.8574 -0.2617  1.2602
18574TIP3   OH277136   3.393   5.467  10.487 -0.3122  0.0702 -0.1928
18574TIP3    H177137   3.321   5.405  10.502  0.4777 -1.2595 -1.5908
18574TIP3    H277138   3.401   5.515  10.570 -3.0022  0.5090 -0.0965
18575TIP3   OH277139   0.413   0.144   5.754  0.5692 -0.9020  0.2058
18575TIP3    H177140   0.339   0.090   5.726  0.5294 -0.3303 -0.8355
18575TIP3    H277141   0.380   0.192   5.830  0.1458 -1.2647  0.2556
18576TIP3   OH277142   3.561   4.655  10.840  0.1384 -0.5760 -0.3079
18576TIP3    H177143   3.551   4.652  10.745 -1.9477 -0.2265 -0.1450
18576TIP3    H277144   3.482   4.614  10.874  0.6416 -0.3045  1.2909
18577TIP3   OH277145   5.087   3.178  13.722  0.0626 -0.1523 -0.1117
18577TIP3    H177146   5.136   3.150  13.644  0.1608 -0.1785 -0.0415
18577TIP3    H277147   5.034   3.251  13.692  1.9928  1.5489  0.3606
18578TIP3   OH277148   2.366   1.791  16.959  0.1355  0.0273  0.3928
18578TIP3    H177149   2.386   1.710  17.005  0.7815  0.0888  0.2300
18578TIP3    H277150   2.432   1.797  16.890 -0.2670  0.3945  0.0238
18579TIP3   OH277151   6.053   2.926   3.615 -0.8010  0.2465  0.0599
18579TIP3    H177152   6.036   2.851   3.671 -1.0545  0.8485  0.7940
18579TIP3    H277153   6.045   2.891   3.526 -0.4074 -0.7067  0.3831
18580TIP3   OH277154   3.745   4.148  15.800 -0.2159  0.4093  0.1606
18580TIP3    H177155   3.700   4.109  15.726  1.1396  0.7615 -0.8996
18580TIP3    H277156   3.793   4.222  15.763 -0.2514  1.1869  1.5678
18581TIP3   OH277157   3.381   4.616   4.124  0.1697  0.0438  0.3919
18581TIP3    H177158   3.306   4.636   4.180 -0.7663  0.6026 -1.0066
18581TIP3    H277159   3.343   4.581   4.043  1.3167  1.4989 -0.8388
18582TIP3   OH277160   4.012   3.904   1.991 -0.1961  0.2448  0.8921
18582TIP3    H177161   4.092   3.956   1.992 -0.4268  0.8614 -2.3289
18582TIP3    H277162   4.039   3.818   2.021  1.8974  0.2361 -0.7799
18583TIP3   OH277163   4.156   5.990  11.941  0.4006  0.2947  0.4039
18583TIP3    H177164   4.244   5.962  11.967  0.6623  0.0088 -0.7367
18583TIP3    H277165   4.114   5.910  11.909  0.0478  0.6077  0.0835
18584TIP3   OH277166   3.178   0.122  12.649 -0.2567  0.0238 -0.0302
18584TIP3    H177167   3.146   0.043  12.691 -0.4522 -0.5907 -1.2905
18584TIP3    H277168   3.099   0.174  12.633 -0.1277  0.5007  0.8108
18585TIP3   OH277169   6.480   5.296  15.066 -0.1406 -0.3261  0.2783
18585TIP3    H177170   6.448   5.218  15.020  0.6850 -1.0399  0.8661
18585TIP3    H277171   6.402   5.348  15.083 -1.0907 -2.1765  1.9847
18586TIP3   OH277172   2.705   0.182   2.897  0.4830 -0.0656  0.1432
18586TIP3    H177173   2.704   0.086   2.893  1.3622 -0.0789 -3.3371
18586TIP3    H277174   2.628   0.205   2.949 -0.6322 -2.6402 -0.2195
18587TIP3   OH277175   0.740   0.036  11.934 -0.3047 -0.2380 -0.2553
18587TIP3    H177176   0.772  -0.019  12.006 -1.9657 -1.4520 -0.4040
18587TIP3    H277177   0.749  -0.018  11.856  0.1552  0.5467 -0.7503
18588TIP3   OH277178   0.759   2.428  16.256  0.0406 -0.2916  0.4272
18588TIP3    H177179   0.839   2.397  16.300  2.0807  2.9730 -0.6402
18588TIP3    H277180   0.724   2.495  16.314  0.4288  1.1436 -0.9213
18589TIP3   OH277181   3.230   1.134  11.595 -0.6210 -0.2707  0.3406
18589TIP3    H177182   3.247   1.226  11.575  0.5237 -0.3944  0.7194
18589TIP3    H277183   3.248   1.088  11.513 -1.7507 -0.1111 -0.0161
18590TIP3   OH277184   6.630   6.162  13.149  0.0734  0.3432  0.6814
18590TIP3    H177185   6.602   6.249  13.179 -1.8547  0.6309 -1.6496
18590TIP3    H277186   6.649   6.173  13.056 -0.4667 -1.7664  0.2622
18591TIP3   OH277187   4.278   3.125   3.947 -0.0768  0.6606  0.7888
18591TIP3    H177188   4.339   3.109   4.019  0.1556  0.8628  0.6406
18591TIP3    H277189   4.246   3.039   3.922 -0.6811  0.6462  1.5892
18592TIP3   OH277190   1.735   5.249  16.501  0.0186  0.1568 -0.1955
18592TIP3    H177191   1.782   5.332  16.491 -0.6784  0.9959  2.4748
18592TIP3    H277192   1.642   5.273  16.498 -0.1912 -0.4102  0.9209
18593TIP3   OH277193   1.903   3.523   5.838  0.8351 -0.4849 -0.5521
18593TIP3    H177194   1.843   3.452   5.860  0.7579 -0.3251 -0.2418
18593TIP3    H277195   1.861   3.601   5.873  0.4396 -0.1365 -1.7400
18594TIP3   OH277196   1.541   3.179  14.668  0.3214  0.2556  0.0668
18594TIP3    H177197   1.478   3.108  14.652 -0.2053  0.8776 -0.6585
18594TIP3    H277198   1.490   3.248  14.709  0.3857  0.9997 -1.0714
18595TIP3   OH277199   1.659   3.640  14.078  0.0164 -0.0691  0.0689
18595TIP3    H177200   1.711   3.639  14.158  0.4758  0.4049 -0.2208
18595TIP3    H277201   1.574   3.604  14.105  0.2513 -0.1657  0.7048
18596TIP3   OH277202   1.141   4.973   4.273  0.2201 -0.8997 -0.6813
18596TIP3    H177203   1.119   4.908   4.339  1.6504  1.8639  2.8988
18596TIP3    H277204   1.075   5.042   4.284  1.7223  0.5823 -0.5679
18597TIP3   OH277205   5.282   6.766  10.932  0.2604 -0.1745  0.1459
18597TIP3    H177206   5.360   6.784  10.984  0.5647 -1.9241  0.3633
18597TIP3    H277207   5.315   6.751  10.844  0.9170 -5.2585  0.9616
18598TIP3   OH277208   6.593   6.760  14.646  0.1188 -0.7943  0.0224
18598TIP3    H177209   6.546   6.821  14.589  0.9016 -1.6432 -1.6000
18598TIP3    H277210   6.593   6.802  14.732 -0.3550  0.9385 -0.7927
18599TIP3   OH277211   2.672   5.867   4.537  0.1230  0.4514 -0.7272
18599TIP3    H177212   2.583   5.833   4.547 -0.1395  0.9127 -1.4340
18599TIP3    H277213   2.662   5.942   4.478  1.1249 -0.0925 -1.6050
18600TIP3   OH277214   4.192   1.083  11.878  0.8734 -0.2591  0.7138
18600TIP3    H177215   4.131   1.128  11.821 -0.1401 -0.6405  1.4663
18600TIP3    H277216   4.270   1.070  11.825  0.4013  0.4808 -0.1784
18601TIP3   OH277217   2.544   0.281   5.539 -0.4071 -0.1769 -0.1641
18601TIP3    H177218   2.509   0.193   5.533  1.6952 -1.0261 -0.8735
18601TIP3    H277219   2.519   0.323   5.456 -0.6797 -0.3832 -0.1858
18602TIP3   OH277220   6.190   1.489   0.909  0.2606  1.0285 -0.1115
18602TIP3    H177221   6.237   1.536   0.979  0.2991  0.5391  0.1974
18602TIP3    H277222   6.186   1.551   0.837  2.5723  0.6565 -0.6411
18603TIP3   OH277223   3.880   1.202  15.984 -0.3931 -0.4888  0.0295
18603TIP3    H177224   3.871   1.286  15.939 -1.4427 -0.3386  0.4962
18603TIP3    H277225   3.958   1.213  16.039  1.6483 -1.0641 -2.5229
18604TIP3   OH277226   3.550   1.978  12.859 -0.3885 -0.5947  0.3060
18604TIP3    H177227   3.500   2.060  12.860 -0.2989 -0.5426  0.8801
18604TIP3    H277228   3.532   1.938  12.944  0.6562 -0.5094  0.5782
18605TIP3   OH277229   4.751   2.805  11.447 -0.1865  0.1777  0.3647
18605TIP3    H177230   4.830   2.752  11.437 -0.5121 -0.4519  1.0226
18605TIP3    H277231   4.747   2.858  11.367 -1.7697 -3.2949 -2.0850
18606TIP3   OH277232   2.169   2.243  10.962 -0.0792  0.4503  0.2221
18606TIP3    H177233   2.120   2.204  11.035 -0.6477  0.3081 -0.2260
18606TIP3    H277234   2.237   2.178  10.941 -0.6566 -0.0531 -0.1407
18607TIP3   OH277235   2.693   6.658  14.794  0.3910 -0.1234 -0.1319
18607TIP3    H177236   2.737   6.725  14.741  1.8211 -0.2323  0.8599
18607TIP3    H277237   2.708   6.577  14.746  2.4573 -0.3649  0.7787
18608TIP3   OH277238   1.918   4.795   0.161  0.0672  0.0110 -0.3549
18608TIP3    H177239   1.965   4.822   0.239 -2.7424 -0.2595  1.6018
18608TIP3    H277240   1.980   4.806   0.089  3.3337 -1.2289  2.0557
18609TIP3   OH277241   5.337   2.668  11.417 -0.1766  0.1662 -0.0548
18609TIP3    H177242   5.381   2.641  11.336  2.5170  0.3587  1.2392
18609TIP3    H277243   5.292   2.589  11.447 -1.1216  0.0631 -1.6299
18610TIP3   OH277244   6.720   0.609  16.053  0.0102  0.1916  0.7860
18610TIP3    H177245   6.707   0.532  15.997  2.3145  0.8239 -0.7516
18610TIP3    H277246   6.631   0.641  16.070 -0.9522 -2.2351  0.6922
18611TIP3   OH277247   4.415   0.518   2.088  0.6285 -0.3152 -0.5398
18611TIP3    H177248   4.459   0.543   2.169  1.8602  0.3494 -1.3766
18611TIP3    H277249   4.402   0.601   2.042 -0.9677 -0.5756 -0.5938
18612TIP3   OH277250   1.946   1.410  13.221  0.3589  0.1457 -1.0362
18612TIP3    H177251   1.900   1.441  13.300  1.0275  1.0266 -0.9777
18612TIP3    H277252   1.973   1.490  13.176  1.8669 -0.3321 -1.0428
18613TIP3   OH277253   2.870   1.349   1.374  0.0009  0.1149 -0.4227
18613TIP3    H177254   2.888   1.282   1.308 -1.8676  2.1770 -3.2513
18613TIP3    H277255   2.828   1.301   1.446  1.3421 -2.1080 -1.0244
18614TIP3   OH277256   6.727   3.996  11.404  0.4893  0.0614  0.2769
18614TIP3    H177257   6.694   4.065  11.346  0.8562 -0.1456 -0.1762
18614TIP3    H277258   6.774   4.043  11.473 -1.6321  0.4652  1.5740
18615TIP3   OH277259   3.993   3.473   0.029  0.3637 -0.0378 -0.1671
18615TIP3    H177260   3.900   3.466   0.006  0.3701  0.4643 -0.3463
18615TIP3    H277261   4.025   3.383   0.022 -0.3624 -0.4065  0.9958
18616TIP3   OH277262   4.846   6.734   5.274 -0.1328  0.0011 -0.5659
18616TIP3    H177263   4.883   6.820   5.293  1.6477 -0.7857 -0.3083
18616TIP3    H277264   4.809   6.743   5.185  1.1120  0.6989 -1.0332
18617TIP3   OH277265   6.240   2.028  12.593  0.8680  0.4987  0.0456
18617TIP3    H177266   6.179   1.958  12.618  1.0749  0.7817  1.4463
18617TIP3    H277267   6.197   2.071  12.519  0.0147 -0.1726  0.1255
18618TIP3   OH277268   2.065   3.985  13.647  0.5056 -0.0665 -0.1922
18618TIP3    H177269   1.972   4.005  13.634  0.3048 -1.9656 -2.2841
18618TIP3    H277270   2.078   3.992  13.741 -1.5916  0.8666  0.0861
18619TIP3   OH277271   4.498   3.444   3.233  0.1037  0.4179 -0.4015
18619TIP3    H177272   4.561   3.516   3.237  0.8819 -0.2966  1.5169
18619TIP3    H277273   4.531   3.387   3.163  0.0615  1.3780 -1.2219
18620TIP3   OH277274   5.129   1.429  11.629  0.6842 -0.2745  0.2481
18620TIP3    H177275   5.143   1.472  11.544  1.9660  0.7683  0.9413
18620TIP3    H277276   5.198   1.364  11.635  0.9992  0.1003  0.7576
18621TIP3   OH277277   6.418   2.216   1.026  0.4808  0.3470  0.0184
18621TIP3    H177278   6.503   2.233   0.984  0.7551 -0.4128  0.2556
18621TIP3    H277279   6.421   2.269   1.106  0.2182  1.2906 -0.5754
18622TIP3   OH277280   6.109   6.663  12.648 -0.2006  0.2126  0.2076
18622TIP3    H177281   6.096   6.748  12.606  1.9221 -0.2718 -1.6232
18622TIP3    H277282   6.174   6.680  12.717  0.9015 -0.0159 -0.7359
18623TIP3   OH277283   5.303   4.012   4.143  0.1848 -0.3955 -0.0798
18623TIP3    H177284   5.286   4.072   4.070  0.5188 -0.3771 -0.1435
18623TIP3    H277285   5.367   4.058   4.196 -0.6595 -0.0491  0.6637
18624TIP3   OH277286   0.291   6.241   0.119  0.7712 -0.4242  0.0920
18624TIP3    H177287   0.312   6.329   0.086  0.7753 -0.3446  0.3095
18624TIP3    H277288   0.259   6.194   0.042  0.0984 -0.0213  0.1170
18625TIP3   OH277289   5.973   4.266  16.807 -0.1576 -0.0628 -0.8543
18625TIP3    H177290   5.935   4.210  16.739 -0.1873 -1.1023  0.0026
18625TIP3    H277291   6.067   4.264  16.789 -0.1799 -0.2020 -0.9578
18626TIP3   OH277292   0.475   5.208  12.262 -0.6228 -0.2800 -0.5416
18626TIP3    H177293   0.489   5.116  12.284  1.8442  0.4598  1.4835
18626TIP3    H277294   0.553   5.233  12.213 -0.7586  0.9814 -0.1347
18627TIP3   OH277295   2.965   2.402  13.538  0.2570  0.2989  0.7514
18627TIP3    H177296   2.902   2.421  13.607 -2.0249 -0.9013 -0.8738
18627TIP3    H277297   2.924   2.334  13.485  2.2697  0.5315 -1.3025
18628TIP3   OH277298   4.995   1.540  13.145 -0.4313  0.3962  0.6378
18628TIP3    H177299   4.906   1.569  13.166 -0.8987  0.0470 -0.7540
18628TIP3    H277300   5.050   1.583  13.211 -1.3845  2.3110  0.2618
18629TIP3   OH277301   5.044   4.966  15.656 -0.0849  0.2613  0.3638
18629TIP3    H177302   5.041   4.871  15.642 -0.9843  0.2795  0.4039
18629TIP3    H277303   5.103   4.977  15.731  2.3990 -0.0376 -1.4237
18630TIP3   OH277304   4.540   6.283  12.970  0.0430 -0.6086  0.8208
18630TIP3    H177305   4.595   6.356  12.941 -0.4748  0.4016  2.2644
18630TIP3    H277306   4.533   6.226  12.893  1.3792  0.2847 -0.0079
18631TIP3   OH277307   0.070   0.668   1.047  0.4441  0.0318 -0.8147
18631TIP3    H177308   0.102   0.684   1.136 -0.7379 -0.1527 -0.3463
18631TIP3    H277309   0.126   0.723   0.992  1.8445 -0.6076 -0.0760
18632TIP3   OH277310   5.263   3.822   0.924 -0.3608  0.1257  0.2327
18632TIP3    H177311   5.193   3.757   0.926 -1.9038  1.6941  0.3851
18632TIP3    H277312   5.255   3.870   1.007 -0.1738  1.3634 -0.4286
18633TIP3   OH277313   0.415   0.382  14.657  0.4190  0.4047 -0.4839
18633TIP3    H177314   0.417   0.451  14.723 -0.6031  1.2546 -1.3179
18633TIP3    H277315   0.433   0.302  14.706 -1.0379  0.9167  0.9730
18634TIP3   OH277316   3.947   5.057   4.053 -0.0758  0.3958 -0.2039
18634TIP3    H177317   3.964   4.973   4.010 -0.3387  0.1406  0.1775
18634TIP3    H277318   4.026   5.109   4.038 -0.5370  0.6708 -1.8065
18635TIP3   OH277319   5.117   0.749   2.447 -0.2272  0.4595  0.0639
18635TIP3    H177320   5.143   0.718   2.534  1.5261 -0.7997 -0.8471
18635TIP3    H277321   5.074   0.674   2.406  2.8511 -0.5251 -1.6739
18636TIP3   OH277322   4.142   6.261   5.193 -0.8668  0.5034 -0.1001
18636TIP3    H177323   4.079   6.332   5.206  0.6770  2.1508 -1.2329
18636TIP3    H277324   4.220   6.303   5.158 -0.1437 -1.8472 -1.5932
18637TIP3   OH277325   1.431   2.150   2.718  0.3828  0.1002 -0.5936
18637TIP3    H177326   1.351   2.190   2.754 -0.7669 -0.2746 -2.6124
18637TIP3    H277327   1.425   2.058   2.743  1.2739  0.4241  1.0110
18638TIP3   OH277328   2.149   4.718  13.512 -0.2093  0.3185  0.5506
18638TIP3    H177329   2.091   4.793  13.521 -1.4389 -0.6684  1.1576
18638TIP3    H277330   2.120   4.675  13.431  1.2356  1.0970 -0.4188
18639TIP3   OH277331   3.039   4.608  12.187 -0.2233 -0.1141 -0.0617
18639TIP3    H177332   3.105   4.552  12.147 -0.4216 -0.6646  0.3644
18639TIP3    H277333   3.018   4.673  12.120 -0.4165 -0.9098 -0.7837
18640TIP3   OH277334   1.229   4.281   3.452  0.6123 -0.3064  0.3915
18640TIP3    H177335   1.206   4.347   3.518  0.1259 -0.4169  0.3311
18640TIP3    H277336   1.153   4.223   3.448  0.9061 -0.6821  0.2041
18641TIP3   OH277337   3.816   3.325   5.849 -0.0534 -0.0299 -0.0518
18641TIP3    H177338   3.732   3.359   5.879  0.6486  0.6064  1.2960
18641TIP3    H277339   3.853   3.281   5.926  0.7635 -0.4527 -0.6689
18642TIP3   OH277340   2.670   4.969   5.638  0.0001 -0.1885  0.6456
18642TIP3    H177341   2.602   4.951   5.702 -0.4266  0.3822  0.3586
18642TIP3    H277342   2.637   4.934   5.556 -0.6854  1.5045  0.1547
18643TIP3   OH277343   6.598   0.932  15.772  1.3057 -0.1262  0.0628
18643TIP3    H177344   6.566   0.893  15.690  3.2185  0.2676 -0.9110
18643TIP3    H277345   6.541   0.895  15.839 -0.5020 -0.2603 -1.4415
18644TIP3   OH277346   6.275   2.931   1.157 -0.2792 -0.5853  0.4579
18644TIP3    H177347   6.334   2.986   1.209  1.4329 -0.9759 -0.9634
18644TIP3    H277348   6.334   2.875   1.107 -1.7347  0.6283 -2.8563
18645TIP3   OH277349   1.241   4.487  11.347 -0.6175 -0.0486  0.0848
18645TIP3    H177350   1.308   4.500  11.279  0.7537  1.9202  1.6858
18645TIP3    H277351   1.243   4.393  11.365  1.0392 -0.1808 -0.6180
18646TIP3   OH277352   0.213   4.702  16.732  0.1118 -0.3661 -0.4220
18646TIP3    H177353   0.284   4.669  16.676 -0.6128 -0.6323 -1.2073
18646TIP3    H277354   0.167   4.624  16.762 -0.3458 -0.1620 -0.5897
18647TIP3   OH277355   6.431   4.534   5.705 -0.0699 -0.2239  0.0623
18647TIP3    H177356   6.413   4.533   5.799  1.4546 -0.5324  0.3842
18647TIP3    H277357   6.368   4.472   5.668 -0.1371 -0.7289  0.9890
18648TIP3   OH277358   3.588   2.036  11.633 -0.6060  0.3786 -0.0869
18648TIP3    H177359   3.575   1.974  11.561 -0.1977 -0.9959  0.9910
18648TIP3    H277360   3.545   2.116  11.603 -0.7049 -0.2542 -1.7296
18649TIP3   OH277361   0.659   5.837   5.203  0.1156 -0.0046  0.1694
18649TIP3    H177362   0.714   5.760   5.212 -1.8015 -1.5126 -0.5317
18649TIP3    H277363   0.637   5.861   5.293 -1.3946 -1.9180  0.3715
18650TIP3   OH277364   1.934   4.234   0.186 -0.2200  0.2360  0.0368
18650TIP3    H177365   1.874   4.193   0.248 -1.6460 -0.4716 -1.7014
18650TIP3    H277366   2.021   4.223   0.225 -0.9019 -1.5307  1.1753
18651TIP3   OH277367   4.756   0.425   1.921 -0.0607  0.1409 -0.0200
18651TIP3    H177368   4.696   0.356   1.949 -0.5579  0.4011 -0.4215
18651TIP3    H277369   4.702   0.504   1.916  0.2858  0.3531 -0.5169
18652TIP3   OH277370   0.085   0.455  15.731  0.1296 -0.0615  1.4776
18652TIP3    H177371   0.104   0.537  15.687 -1.0841 -0.7304 -0.3989
18652TIP3    H277372   0.167   0.405  15.726  0.2886  0.2585  0.8431
18653TIP3   OH277373   3.807   5.380   5.500 -0.3182 -0.2619  0.3220
18653TIP3    H177374   3.889   5.333   5.514  0.4247  0.6184 -0.8571
18653TIP3    H277375   3.805   5.447   5.568 -0.5675 -0.9297  0.9800
18654TIP3   OH277376   5.313   5.811   5.905 -0.1950  0.1553  0.4928
18654TIP3    H177377   5.243   5.747   5.914 -2.0933  2.1443  0.7579
18654TIP3    H277378   5.353   5.816   5.992  0.7203 -1.3903  0.2004
18655TIP3   OH277379   2.524   3.290   3.181 -0.0597  0.0588 -0.2857
18655TIP3    H177380   2.585   3.363   3.196 -0.1823  0.2852 -0.8436
18655TIP3    H277381   2.577   3.212   3.195 -0.2064  0.2261  1.4397
18656TIP3   OH277382   0.232   6.504   0.781  0.0008  0.2909  0.1108
18656TIP3    H177383   0.167   6.439   0.808 -2.4065  2.5119  0.0754
18656TIP3    H277384   0.316   6.463   0.800 -1.2795 -3.3636 -1.2176
18657TIP3   OH277385   1.738   0.387  16.404  0.4214  0.2316  0.1430
18657TIP3    H177386   1.703   0.304  16.370 -2.4086  1.1934  0.4783
18657TIP3    H277387   1.697   0.454  16.351 -0.3105  1.5685  2.2680
18658TIP3   OH277388   2.484   4.795  16.691  0.4522  0.2028 -0.1498
18658TIP3    H177389   2.471   4.843  16.773  0.7689  0.3177 -0.1653
18658TIP3    H277390   2.418   4.830  16.632 -0.9089 -1.0681  0.5717
18659TIP3   OH277391   1.572   4.204  15.153 -0.1673  0.4774 -0.2799
18659TIP3    H177392   1.564   4.174  15.243  2.6325 -0.1351 -0.1526
18659TIP3    H277393   1.595   4.297  15.160  0.3719  0.3513 -0.3404
18660TIP3   OH277394   0.459   1.161   2.839  0.3045 -0.6936  0.4305
18660TIP3    H177395   0.521   1.216   2.887  0.6195 -1.8263  1.3851
18660TIP3    H277396   0.377   1.169   2.888  0.3278 -0.9918  0.5223
18661TIP3   OH277397   2.634   5.002   1.371 -0.2097  0.1253  0.1499
18661TIP3    H177398   2.625   5.079   1.316  0.4890  1.4571  1.8150
18661TIP3    H277399   2.698   4.947   1.326 -0.3014  0.7608 -0.7740
18662TIP3   OH277400   4.859   4.854   3.032  0.2190  0.5325 -0.6424
18662TIP3    H177401   4.916   4.849   3.108 -1.8610  1.3237  1.0759
18662TIP3    H277402   4.855   4.947   3.010 -0.3372  0.4855 -0.7667
18663TIP3   OH277403   1.144   2.851  14.678 -0.2806 -0.3762  0.2732
18663TIP3    H177404   1.159   2.807  14.762  3.0481 -3.8880 -1.8214
18663TIP3    H277405   1.076   2.798  14.636  0.5918 -0.8866 -0.5410
18664TIP3   OH277406   5.759   1.164   1.874 -0.0782 -0.2822  0.5841
18664TIP3    H177407   5.816   1.140   1.947  0.6779 -0.6697 -0.1050
18664TIP3    H277408   5.671   1.144   1.904  0.1537  0.1979  1.6315
18665TIP3   OH277409   5.915   1.566   2.493 -0.1120  0.4613 -0.3902
18665TIP3    H177410   5.827   1.529   2.491  0.1417 -0.1625 -0.2697
18665TIP3    H277411   5.902   1.659   2.477 -1.0091  0.7915  1.9292
18666TIP3   OH277412   5.635   2.864  11.098  0.0078  0.5208 -0.3968
18666TIP3    H177413   5.545   2.894  11.114 -0.0452  0.5963 -0.8351
18666TIP3    H277414   5.661   2.823  11.181 -0.6373 -0.0116 -0.4448
18667TIP3   OH277415   4.374   2.491  16.447  0.5037  0.0091 -0.0576
18667TIP3    H177416   4.453   2.439  16.437  0.7483 -0.1001  2.0256
18667TIP3    H277417   4.393   2.573  16.401  1.2036 -0.6135 -0.9096
18668TIP3   OH277418   1.680   5.748  16.495  0.4586  0.0151 -0.5469
18668TIP3    H177419   1.622   5.743  16.571  1.4881  0.1438  0.2719
18668TIP3    H277420   1.676   5.661  16.455 -0.1509 -0.0289 -0.4022
18669TIP3   OH277421   2.771   2.253   4.334  0.1878  0.6513 -0.3013
18669TIP3    H177422   2.785   2.347   4.340  2.2159  0.4543 -1.1526
18669TIP3    H277423   2.765   2.224   4.425  1.4293  1.3909  0.0441
18670TIP3   OH277424   3.292   0.491  13.698 -0.2766 -0.5963  0.0243
18670TIP3    H177425   3.301   0.424  13.631  1.0698 -1.7207  1.2685
18670TIP3    H277426   3.279   0.442  13.779 -0.5637  0.6959  0.7908
18671TIP3   OH277427   6.808   4.086  16.619 -0.8737  0.0500 -0.0618
18671TIP3    H177428   6.789   4.060  16.529 -1.5181 -2.7729  0.8200
18671TIP3    H277429   6.743   4.154  16.638 -1.8568 -0.5503 -1.1557
18672TIP3   OH277430   5.191   1.044  12.416  0.0151 -0.0940  0.7003
18672TIP3    H177431   5.100   1.073  12.414  0.1456  0.5122  2.2866
18672TIP3    H277432   5.242   1.124  12.428  0.8063 -0.3935 -0.4120
18673TIP3   OH277433   1.258   0.382   1.141 -0.5476  0.0445 -0.4742
18673TIP3    H177434   1.254   0.379   1.045  0.2368 -1.1409 -0.4935
18673TIP3    H277435   1.316   0.456   1.160  0.9238 -0.9143 -1.0083
18674TIP3   OH277436   5.862   6.143   0.117 -0.0682 -0.7155 -0.2411
18674TIP3    H177437   5.912   6.063   0.134 -0.4460 -0.9693 -0.3120
18674TIP3    H277438   5.800   6.148   0.189  1.6901  0.9372  1.2373
18675TIP3   OH277439   6.100   6.032  13.169 -0.1843 -0.0717  0.0161
18675TIP3    H177440   6.140   6.058  13.087  0.4066  0.2232  0.3912
18675TIP3    H277441   6.153   6.073  13.237 -0.6712 -0.2933  0.5501
18676TIP3   OH277442   0.945   0.376  15.146 -0.1213  0.0182  0.1150
18676TIP3    H177443   0.900   0.370  15.062  0.8153  0.1980 -0.4087
18676TIP3    H277444   0.961   0.469  15.159 -0.3560  0.0024  0.5490
18677TIP3   OH277445   2.976   0.416   3.806  0.6600 -0.3196  0.6069
18677TIP3    H177446   2.952   0.345   3.746  0.6488 -0.4350  0.7477
18677TIP3    H277447   2.918   0.488   3.781 -0.7873 -1.0089  1.8014
18678TIP3   OH277448   1.315   4.811   6.650  0.3583  0.3963  0.6878
18678TIP3    H177449   1.368   4.890   6.643 -0.4531  0.9156  0.1782
18678TIP3    H277450   1.319   4.771   6.563 -1.2609  1.2447  0.1739
18679TIP3   OH277451   4.384   3.935  15.537 -0.3518 -0.2373  0.0156
18679TIP3    H177452   4.438   3.877  15.590 -0.4583 -1.3268 -1.0468
18679TIP3    H277453   4.415   4.023  15.561  1.1827 -0.7816  0.1942
18680TIP3   OH277454   3.812   5.987  14.343  0.4577 -0.3307 -0.2626
18680TIP3    H177455   3.717   5.994  14.354  0.5346 -0.1619  0.3047
18680TIP3    H277456   3.843   5.952  14.426  1.0674  1.1141  0.1483
18681TIP3   OH277457   0.505   4.340   0.019 -0.2361 -0.2057  0.3097
18681TIP3    H177458   0.470   4.262   0.063 -0.5251  0.7248  1.7948
18681TIP3    H277459   0.477   4.330  -0.072 -2.2823 -0.7097  0.9363
18682TIP3   OH277460   2.931   5.340  14.111 -0.5093 -0.1630  0.6841
18682TIP3    H177461   2.893   5.427  14.114  0.4557  0.5021 -2.6305
18682TIP3    H277462   3.013   5.348  14.160 -1.0194  0.4116  1.4737
18683TIP3   OH277463   3.337   1.673   1.262  0.0389  0.2481 -0.3735
18683TIP3    H177464   3.241   1.672   1.258  0.0611 -1.2068 -1.3308
18683TIP3    H277465   3.364   1.637   1.178  1.4087 -0.5800  0.3968
18684TIP3   OH277466   6.631   5.478  11.735 -0.8266 -0.5256 -0.2614
18684TIP3    H177467   6.568   5.498  11.666 -0.3319  1.7336 -0.1333
18684TIP3    H277468   6.678   5.401  11.704 -0.3443  0.6542 -2.6884
18685TIP3   OH277469   5.525   2.601   1.615 -0.2864  0.1988  0.2090
18685TIP3    H177470   5.446   2.642   1.650 -1.6255 -2.0351 -0.0420
18685TIP3    H277471   5.518   2.611   1.520 -1.2397 -1.5923  0.0628
18686TIP3   OH277472   3.885   0.608   4.627  0.2882  0.4613 -0.5101
18686TIP3    H177473   3.923   0.577   4.544  0.6385  0.9512 -0.5352
18686TIP3    H277474   3.960   0.627   4.682  0.0635  0.7061 -0.2881
18687TIP3   OH277475   2.302   0.081   3.430  0.4891  0.5661 -0.7591
18687TIP3    H177476   2.290  -0.002   3.476 -0.6810  1.2730  0.3034
18687TIP3    H277477   2.253   0.071   3.348 -1.3755  0.8535  0.2612
18688TIP3   OH277478   6.099   2.797   4.727  0.0187 -0.6025 -0.6042
18688TIP3    H177479   6.153   2.734   4.775 -1.4264  0.4385  2.5890
18688TIP3    H277480   6.010   2.779   4.755 -0.5593  2.1162 -0.4658
18689TIP3   OH277481   4.564   6.402  14.060 -0.2256  0.2345  0.8710
18689TIP3    H177482   4.595   6.450  14.136  0.4541  1.6234 -0.2320
18689TIP3    H277483   4.559   6.311  14.089 -0.7147  0.8277  2.7661
18690TIP3   OH277484   2.047   2.622   0.944 -0.2962  0.6516 -0.3292
18690TIP3    H177485   2.067   2.677   0.868  1.3471 -0.0446 -0.4455
18690TIP3    H277486   1.989   2.554   0.910  3.3338 -1.8939 -2.0041
18691TIP3   OH277487   0.459   3.269  13.638 -0.0526 -0.3117  0.0585
18691TIP3    H177488   0.525   3.325  13.599  1.3109 -1.7829  0.1395
18691TIP3    H277489   0.391   3.329  13.669  0.1575  1.0885 -2.0009
18692TIP3   OH277490   1.371   1.463  13.158  0.5048  0.3445  0.1235
18692TIP3    H177491   1.300   1.413  13.116  0.1789  0.6067  0.3514
18692TIP3    H277492   1.325   1.528  13.211  0.9211  1.0059 -0.3125
18693TIP3   OH277493   4.595   2.305   3.635 -0.3405  0.0124  0.0450
18693TIP3    H177494   4.659   2.356   3.586 -0.8264  1.6256  0.9956
18693TIP3    H277495   4.594   2.345   3.722  0.4442 -2.6767  1.4222
18694TIP3   OH277496   2.626   4.896  15.894  0.0526  0.4172 -0.2992
18694TIP3    H177497   2.558   4.903  15.828 -2.0211 -1.4358  1.4674
18694TIP3    H277498   2.681   4.974  15.882 -1.9966  1.6513 -2.2179
18695TIP3   OH277499   2.609   4.611  15.901 -0.1377 -0.6261 -0.2069
18695TIP3    H177500   2.513   4.608  15.900 -0.2183  0.0970  1.5133
18695TIP3    H277501   2.632   4.683  15.842 -0.7732  0.4801  0.8477
18696TIP3   OH277502   2.281   4.215  15.582  0.1952  0.3492  0.0687
18696TIP3    H177503   2.274   4.166  15.664 -0.1232 -2.6998 -1.6566
18696TIP3    H277504   2.340   4.288  15.603 -1.0571  0.6240  3.3566
18697TIP3   OH277505   4.763   6.650   3.388  0.3226  0.3533 -0.7084
18697TIP3    H177506   4.724   6.678   3.472  0.9004 -1.6973  0.2943
18697TIP3    H277507   4.857   6.663   3.400  0.4522 -0.4412 -0.8436
18698TIP3   OH277508   0.965   4.024   3.181  0.1488 -0.5316 -0.5337
18698TIP3    H177509   1.057   3.996   3.186  1.2099  2.7253  2.5731
18698TIP3    H277510   0.966   4.098   3.120 -0.2730 -0.0834 -0.0044
18699TIP3   OH277511   5.245   4.084  12.070  0.7185  0.2250 -0.6086
18699TIP3    H177512   5.294   4.002  12.076  1.2532  0.3346 -2.5801
18699TIP3    H277513   5.161   4.059  12.033 -0.6386  0.1097  2.3115
18700TIP3   OH277514   3.402   5.438   6.247 -0.0328 -0.1016 -0.1427
18700TIP3    H177515   3.424   5.520   6.291  1.2023 -0.8125  0.6107
18700TIP3    H277516   3.310   5.449   6.221  0.1727  1.6077 -0.2914
18701TIP3   OH277517   2.372   6.093   2.390  0.1808 -0.0039 -0.7099
18701TIP3    H177518   2.377   5.998   2.393 -1.2469 -0.0982 -0.4328
18701TIP3    H277519   2.460   6.123   2.411 -0.1127 -1.2129  2.8917
18702TIP3   OH277520   0.929   0.438   6.201  0.5118 -0.0988  0.4187
18702TIP3    H177521   1.003   0.479   6.156  0.8699 -1.6639 -0.4902
18702TIP3    H277522   0.962   0.352   6.228 -1.4300 -1.6193 -1.6287
18703TIP3   OH277523   3.920   4.986  15.308 -0.0868 -0.1690  0.2613
18703TIP3    H177524   3.991   4.956  15.364  0.4499  0.5193 -0.0231
18703TIP3    H277525   3.962   5.005  15.224 -0.5491  0.5272  0.1749
18704TIP3   OH277526   4.512   1.125   0.036  0.8141  0.2167 -0.0648
18704TIP3    H177527   4.442   1.173   0.080  0.6096  0.6089 -0.8096
18704TIP3    H277528   4.567   1.193  -0.005  1.7101 -0.0761  0.6166
18705TIP3   OH277529   3.099   0.041   4.349 -0.4798  0.2313  0.1658
18705TIP3    H177530   3.146   0.049   4.431  1.1061 -0.8093 -0.5967
18705TIP3    H277531   3.103   0.129   4.310  0.2881  0.3126  0.4132
18706TIP3   OH277532   5.246   6.543  12.016  0.4743  0.0147  0.1468
18706TIP3    H177533   5.303   6.617  12.039 -0.5360  0.2461  2.1490
18706TIP3    H277534   5.268   6.476  12.081  0.1720 -0.8023 -0.5927
18707TIP3   OH277535   0.035   5.941  14.274 -0.0396 -0.1668 -0.2061
18707TIP3    H177536   0.072   5.887  14.204 -0.0453 -0.9571  0.3785
18707TIP3    H277537  -0.033   5.886  14.312  0.2304  0.0897  0.6745
18708TIP3   OH277538   1.215   0.757   1.655 -0.2520 -0.4310 -0.6328
18708TIP3    H177539   1.308   0.771   1.673 -0.2046 -0.4547 -0.8577
18708TIP3    H277540   1.207   0.662   1.646 -0.7478 -0.6842  1.8824
18709TIP3   OH277541   3.256   3.919  16.137 -0.3221 -0.2461 -0.4823
18709TIP3    H177542   3.221   3.993  16.087 -0.2285  1.0106  1.2163
18709TIP3    H277543   3.348   3.941  16.151 -0.5868 -0.0397  1.0894
18710TIP3   OH277544   0.150   0.559  14.243 -0.5805 -0.1415 -0.0665
18710TIP3    H177545   0.165   0.489  14.179 -0.2477 -0.8442  0.7544
18710TIP3    H277546   0.164   0.516  14.328  3.5812  1.7157  0.4487
18711TIP3   OH277547   5.788   4.899  14.540 -0.2891  0.0037  0.1789
18711TIP3    H177548   5.795   4.948  14.622  0.1877 -2.2373  1.5647
18711TIP3    H277549   5.731   4.952  14.484  1.9566  3.2118  0.6825
18712TIP3   OH277550   4.128   3.509   1.576 -0.6808 -0.2075  0.3009
18712TIP3    H177551   4.146   3.420   1.547  0.4474  0.2300 -0.3938
18712TIP3    H277552   4.125   3.503   1.672  1.1086 -0.7052  0.3505
18713TIP3   OH277553   2.996   5.670   4.336  0.2550 -0.0316  0.0726
18713TIP3    H177554   3.033   5.582   4.347  0.3462  0.0159  0.1450
18713TIP3    H277555   3.061   5.717   4.284 -0.1027 -0.2074 -0.5472
18714TIP3   OH277556   5.315   4.675  14.156 -0.6408 -0.1550  0.1754
18714TIP3    H177557   5.328   4.670  14.062 -1.1600  0.4083  0.0732
18714TIP3    H277558   5.232   4.721  14.167  0.0348  0.9459  0.9212
18715TIP3   OH277559   1.074   1.561   4.634  0.3816 -0.5893 -0.1634
18715TIP3    H177560   1.023   1.544   4.555 -0.4628  2.4640 -0.4231
18715TIP3    H277561   1.041   1.499   4.699  0.4311 -2.5246 -1.8717
18716TIP3   OH277562   3.793   5.835   3.401 -0.5761 -0.3581  0.1423
18716TIP3    H177563   3.810   5.776   3.328 -0.8697  1.3558 -1.3992
18716TIP3    H277564   3.879   5.859   3.434 -0.4726 -2.2665  1.3583
18717TIP3   OH277565   6.382   5.241  12.527  0.5600  0.1471 -0.1421
18717TIP3    H177566   6.432   5.168  12.491 -0.2263 -1.1494  1.2743
18717TIP3    H277567   6.378   5.304  12.455  0.2449 -1.6997 -1.8616
18718TIP3   OH277568   0.411   2.342   4.794 -0.5208 -0.1949  0.1100
18718TIP3    H177569   0.478   2.382   4.739 -1.1049  0.0951 -0.4000
18718TIP3    H277570   0.422   2.248   4.781 -1.2692 -0.1148 -1.2639
18719TIP3   OH277571   0.524   2.357   0.175 -0.1802 -0.2630  0.1709
18719TIP3    H177572   0.598   2.363   0.235 -0.3196 -1.3655  0.4767
18719TIP3    H277573   0.558   2.308   0.100 -0.4831 -0.4360  0.1425
18720TIP3   OH277574   6.405   1.667   0.648 -0.2503  0.4465 -0.8623
18720TIP3    H177575   6.314   1.680   0.673 -0.8098  1.2318 -3.1247
18720TIP3    H277576   6.427   1.744   0.595  1.8903  0.5051  0.0219
18721TIP3   OH277577   6.262   4.581   0.562  0.6305  0.1574  0.4526
18721TIP3    H177578   6.197   4.605   0.495  0.7005 -1.4349 -0.2354
18721TIP3    H277579   6.249   4.644   0.632 -0.9411  0.5380 -0.1392
18722TIP3   OH277580   2.190   5.875   1.643 -0.4871  0.3313 -0.1750
18722TIP3    H177581   2.260   5.848   1.703 -0.4406  1.0352  0.0936
18722TIP3    H277582   2.164   5.794   1.598  0.0007 -0.0622  0.2457
18723TIP3   OH277583   5.049   4.870  12.416 -0.1967 -0.0651 -0.5650
18723TIP3    H177584   5.028   4.781  12.386 -2.6568  0.2256  0.0245
18723TIP3    H277585   4.969   4.899  12.461  0.6340  2.3603 -0.5154
18724TIP3   OH277586   4.593   3.547  16.072 -0.0643  0.0018  0.4077
18724TIP3    H177587   4.521   3.510  16.122  0.2715 -0.2471  0.7161
18724TIP3    H277588   4.611   3.483  16.003 -0.9466  0.6409 -0.4416
18725TIP3   OH277589   2.639   4.511   3.303  0.2184 -0.4916 -0.5448
18725TIP3    H177590   2.674   4.422   3.307 -1.4763 -1.2651 -1.5692
18725TIP3    H277591   2.572   4.514   3.371  0.4640  0.1090 -0.3223
18726TIP3   OH277592   2.233   3.513   2.089  0.3566 -0.1746 -0.1736
18726TIP3    H177593   2.205   3.599   2.121 -1.6344 -1.0871  0.6857
18726TIP3    H277594   2.285   3.478   2.161 -0.3471 -0.4038  0.2317
18727TIP3   OH277595   0.845   0.434   3.011 -0.2588  0.5332 -0.2221
18727TIP3    H177596   0.871   0.348   3.046  1.1237  0.2885 -1.7411
18727TIP3    H277597   0.849   0.492   3.087 -1.7119 -0.7987  0.9574
18728TIP3   OH277598   2.565   3.741   1.406  0.3193 -0.0601  0.0772
18728TIP3    H177599   2.611   3.660   1.386  1.2619  0.5022 -0.1112
18728TIP3    H277600   2.498   3.748   1.338  1.1215 -0.0023 -0.7197
18729TIP3   OH277601   1.565   5.839   3.758 -0.3791 -0.0341 -0.2922
18729TIP3    H177602   1.611   5.764   3.720  0.1788 -0.1025  0.4882
18729TIP3    H277603   1.627   5.875   3.821 -1.4383 -0.1912  0.8734
18730TIP3   OH277604   3.548   4.203  16.068 -0.2243  0.9944  0.1439
18730TIP3    H177605   3.493   4.214  16.146  0.9929  0.3433  1.1322
18730TIP3    H277606   3.514   4.266  16.006 -2.5279  0.1743  0.4565
18731TIP3   OH277607   1.698   4.912   3.111  0.4584  0.3812  0.0277
18731TIP3    H177608   1.641   4.894   3.037 -0.3644 -1.7969  1.0924
18731TIP3    H277609   1.733   4.826   3.135  0.6236  0.9943  2.1927
18732TIP3   OH277610   5.522   0.303  13.283 -0.0317 -0.1596 -0.5992
18732TIP3    H177611   5.533   0.212  13.256 -0.5614 -0.0912 -1.0787
18732TIP3    H277612   5.432   0.307  13.315 -0.6501  0.5770 -2.2677
18733TIP3   OH277613   4.000   2.247  12.381  0.9358 -0.4617  0.3932
18733TIP3    H177614   3.929   2.191  12.411  3.2786 -2.7470  2.1668
18733TIP3    H277615   3.961   2.334  12.374 -1.7865 -1.4254  2.0523
18734TIP3   OH277616   1.739   6.428  12.033  0.1901  0.3598  0.3762
18734TIP3    H177617   1.832   6.425  12.057  0.4758 -1.0126 -0.7781
18734TIP3    H277618   1.739   6.450  11.940 -0.5846 -0.7085  0.1093
18735TIP3   OH277619   5.017   6.207   4.891 -0.1015 -0.0699 -0.4036
18735TIP3    H177620   5.054   6.174   4.810  0.7678 -0.5922  0.1863
18735TIP3    H277621   5.037   6.140   4.956 -0.5943  0.4321  0.2892
18736TIP3   OH277622   6.482   3.338   5.635 -0.0752  0.0246 -0.4154
18736TIP3    H177623   6.415   3.337   5.704  1.6782 -0.5209  1.3672
18736TIP3    H277624   6.455   3.270   5.574 -0.1118 -1.6443  1.3736
18737TIP3   OH277625   0.677   1.478   1.618 -0.0014  0.2537 -0.0119
18737TIP3    H177626   0.749   1.534   1.590  0.3082 -0.7940 -1.4665
18737TIP3    H277627   0.602   1.537   1.626  0.6911  1.1250  0.1263
18738TIP3   OH277628   6.284   4.596   3.297  0.1048  0.5775  0.0443
18738TIP3    H177629   6.348   4.529   3.270 -1.2115 -0.0020 -1.8676
18738TIP3    H277630   6.335   4.676   3.307  1.4168 -0.2886  0.5196
18739TIP3   OH277631   5.664   4.339   3.982  0.5970  0.1339 -0.2611
18739TIP3    H177632   5.624   4.262   3.943 -3.2374  2.0506 -0.5728
18739TIP3    H277633   5.711   4.381   3.909  1.7254 -1.2020 -0.3510
18740TIP3   OH277634   4.939   2.474  15.545 -0.3566 -0.1721 -0.5444
18740TIP3    H177635   4.894   2.437  15.469 -0.0817 -0.1390 -0.7238
18740TIP3    H277636   5.026   2.498  15.513 -0.3923  0.2666 -0.3344
18741TIP3   OH277637   0.709   6.278   3.100 -0.1063  0.0022 -0.1879
18741TIP3    H177638   0.618   6.250   3.089  0.0145 -1.1299  1.2822
18741TIP3    H277639   0.760   6.213   3.053  0.0798 -1.4629  1.8675
18742TIP3   OH277640   5.674   5.564   3.313  0.1561 -0.0791  0.0131
18742TIP3    H177641   5.605   5.536   3.253 -0.5641 -0.1084  0.8323
18742TIP3    H277642   5.753   5.519   3.282 -0.2226 -0.1548 -0.8486
18743TIP3   OH277643   1.582   5.402  15.132 -0.3858 -0.5879 -0.4451
18743TIP3    H177644   1.664   5.397  15.181 -0.2181 -2.2464 -0.8392
18743TIP3    H277645   1.522   5.345  15.181 -1.0550 -0.0389 -0.6208
18744TIP3   OH277646   2.044   3.788   3.893  0.7998  0.5195 -0.4324
18744TIP3    H177647   2.128   3.779   3.938  0.4898 -2.5889 -0.2307
18744TIP3    H277648   2.064   3.769   3.801  0.3016 -0.7170 -0.3088
18745TIP3   OH277649   4.592   3.126  14.397  0.2959 -0.3444 -0.1753
18745TIP3    H177650   4.616   3.219  14.392  0.7641 -0.4558 -0.0083
18745TIP3    H277651   4.650   3.083  14.334 -1.7007 -0.1884 -2.2743
18746TIP3   OH277652   1.954   2.560  11.447 -0.1928 -0.2284  0.2056
18746TIP3    H177653   1.868   2.545  11.409 -0.1265  2.4568 -1.2317
18746TIP3    H277654   1.949   2.648  11.484  1.7972 -0.2036  0.5368
18747TIP3   OH277655   1.972   3.549  16.743  0.1079 -0.3047  0.1757
18747TIP3    H177656   1.943   3.460  16.764 -0.2806 -0.1784  0.1877
18747TIP3    H277657   2.034   3.538  16.671 -2.2114 -0.3803 -1.9446
18748TIP3   OH277658   3.050   1.187   3.961 -0.1624 -0.1132 -0.0968
18748TIP3    H177659   3.008   1.271   3.943  1.2061  0.3920 -1.1680
18748TIP3    H277660   3.060   1.146   3.875  0.1680 -0.8761  0.2912
18749TIP3   OH277661   5.653   1.830   1.976 -0.1047 -0.3201 -0.0520
18749TIP3    H177662   5.598   1.754   1.956 -0.8010 -0.4758  2.2638
18749TIP3    H277663   5.634   1.892   1.905 -4.0724  0.0463  1.0939
18750TIP3   OH277664   5.050   1.055   0.898  0.2394 -0.7359  0.3212
18750TIP3    H177665   5.058   0.960   0.885 -2.0810 -1.1500  1.4154
18750TIP3    H277666   5.129   1.091   0.858  0.9799 -3.0856 -0.5254
18751TIP3   OH277667   5.313   2.291  16.844 -0.4666 -0.0952 -0.0998
18751TIP3    H177668   5.278   2.247  16.766  1.0356  0.4205 -1.1145
18751TIP3    H277669   5.316   2.223  16.911  2.1438 -1.7602 -1.7277
18752TIP3   OH277670   0.892   6.398   0.301 -0.0363 -0.9303  0.2183
18752TIP3    H177671   0.895   6.491   0.282 -1.7366 -0.8454  0.2319
18752TIP3    H277672   0.880   6.393   0.396  0.2098 -1.1697  0.2392
18753TIP3   OH277673   4.336   4.119   6.548 -0.3164 -0.2617  0.3588
18753TIP3    H177674   4.290   4.184   6.495  0.6853  0.1976  0.0445
18753TIP3    H277675   4.287   4.038   6.534 -1.0220  0.2113  0.0258
18754TIP3   OH277676   6.468   0.104   5.119  0.3047  0.5543 -0.6059
18754TIP3    H177677   6.522   0.027   5.139  0.1112 -0.3407 -3.2371
18754TIP3    H277678   6.434   0.131   5.205  1.1327 -1.7018  0.5288
18755TIP3   OH277679   6.149   1.985  16.123 -0.1541  0.6710  1.0498
18755TIP3    H177680   6.059   1.953  16.135 -0.0708 -1.4675 -2.6176
18755TIP3    H277681   6.140   2.058  16.061  0.6438  0.2582  0.4408
18756TIP3   OH277682   6.031   6.127  15.015  0.2744  0.6967  0.2982
18756TIP3    H177683   5.981   6.047  15.003 -3.0798  2.7391 -0.6283
18756TIP3    H277684   6.065   6.121  15.104  0.1998 -1.7349  0.2228
18757TIP3   OH277685   1.397   2.709  15.233 -0.4490 -0.1311 -0.5607
18757TIP3    H177686   1.351   2.767  15.294  0.1935 -0.2214  0.0261
18757TIP3    H277687   1.466   2.669  15.286  1.5727  1.4892 -1.8606
18758TIP3   OH277688   5.237   3.907   5.795  0.1734  0.5768  0.1411
18758TIP3    H177689   5.228   3.954   5.878  1.1696 -0.6306  0.9890
18758TIP3    H277690   5.149   3.904   5.759 -0.3976  0.5737  1.4915
18759TIP3   OH277691   3.495   1.682  15.017 -0.7087 -0.1097 -0.2656
18759TIP3    H177692   3.442   1.761  15.006 -0.5843  0.0954  0.5014
18759TIP3    H277693   3.479   1.631  14.938 -1.7494  0.1279 -0.2204
18760TIP3   OH277694   5.814   0.328  14.299 -0.4546 -0.8186 -0.5641
18760TIP3    H177695   5.795   0.258  14.237  1.1790 -1.7213 -0.1024
18760TIP3    H277696   5.858   0.285  14.372  0.7538  0.6928 -0.3379
18761TIP3   OH277697   6.145   4.642   0.049  0.0564 -0.0868 -0.3393
18761TIP3    H177698   6.130   4.729   0.086 -1.1169  0.0850 -1.1337
18761TIP3    H277699   6.238   4.625   0.064  0.1647  1.0211  0.4088
18762TIP3   OH277700   0.321   5.069   5.066 -0.1086  0.1189 -0.2001
18762TIP3    H177701   0.359   4.998   5.118 -0.0958  0.2539 -0.0252
18762TIP3    H277702   0.262   5.114   5.126  0.0646  0.4053 -0.2456
18763TIP3   OH277703   2.168   3.729   0.604 -0.0038 -0.7874 -0.3585
18763TIP3    H177704   2.254   3.717   0.565  0.7267  0.1931  0.8799
18763TIP3    H277705   2.157   3.824   0.610 -0.5323 -0.9029  0.8352
18764TIP3   OH277706   6.605   6.306  12.591 -0.6092  0.6765 -0.4708
18764TIP3    H177707   6.572   6.295  12.502  1.1507 -0.5266 -1.0339
18764TIP3    H277708   6.527   6.314  12.645 -1.7286  0.7239 -2.0421
18765TIP3   OH277709   2.180   6.502   2.712  0.4582 -0.7619  0.1584
18765TIP3    H177710   2.230   6.520   2.791  0.6422 -1.7730  0.2792
18765TIP3    H277711   2.126   6.580   2.699 -1.3359 -1.4869  2.6046
18766TIP3   OH277712   0.111   4.227   4.355  0.6869 -0.4625  0.1172
18766TIP3    H177713   0.108   4.135   4.327 -1.6410 -1.3487  2.7770
18766TIP3    H277714   0.174   4.228   4.427  0.7215  0.0495  0.0822
18767TIP3   OH277715   5.476   1.482   2.835  0.2003  0.1732  0.0102
18767TIP3    H177716   5.389   1.445   2.820 -0.7827  1.7789  1.4183
18767TIP3    H277717   5.461   1.554   2.896  2.3832  1.2132 -0.6026
18768TIP3   OH277718   2.235   4.281   0.781  0.1757  0.7781 -0.2523
18768TIP3    H177719   2.220   4.365   0.824 -0.7227  0.4781  0.0460
18768TIP3    H277720   2.169   4.278   0.712 -0.3977 -0.0623  0.3120
18769TIP3   OH277721   4.771   2.615   1.460  0.4645 -0.1052  0.1907
18769TIP3    H177722   4.866   2.603   1.460  0.3654 -1.4058 -1.6389
18769TIP3    H277723   4.756   2.691   1.404  0.3669 -1.1915 -1.3131
18770TIP3   OH277724   1.272   2.585  17.076  0.2677 -0.0051  0.7554
18770TIP3    H177725   1.213   2.620  17.143  0.6155  1.1574  0.4773
18770TIP3    H277726   1.349   2.555  17.125  0.3763  0.5264  0.9162
18771TIP3   OH277727   4.241   2.068   4.527  0.9227 -0.2591 -0.1229
18771TIP3    H177728   4.260   1.986   4.482 -0.5459  0.1129 -1.4845
18771TIP3    H277729   4.189   2.042   4.603 -0.3622 -0.5411 -1.0705
18772TIP3   OH277730   6.056   6.023   5.963 -0.1423 -0.0092 -0.0210
18772TIP3    H177731   6.085   6.099   6.013  0.8598 -0.7987  0.6477
18772TIP3    H277732   6.038   5.956   6.029 -2.5775  0.0965 -0.4827
18773TIP3   OH277733   6.477   2.043  15.278 -0.5981  0.6066 -0.4797
18773TIP3    H177734   6.543   2.053  15.347 -0.6786  2.2819 -0.6026
18773TIP3    H277735   6.434   1.960  15.299  0.3391  0.3671  0.6487
18774TIP3   OH277736   4.829   0.955  13.457 -0.1154 -0.5857 -0.0251
18774TIP3    H177737   4.911   0.967  13.504  0.1264 -0.3990 -0.4916
18774TIP3    H277738   4.853   0.954  13.364 -0.8783  1.7586 -0.3107
18775TIP3   OH277739   3.893   2.689  11.771  0.3805  0.0126  0.2168
18775TIP3    H177740   3.808   2.660  11.804  0.5605 -3.2624 -1.7883
18775TIP3    H277741   3.949   2.612  11.779  2.0076  0.8388 -2.2717
18776TIP3   OH277742   0.669   4.039  13.153 -0.2316  0.2153  0.3179
18776TIP3    H177743   0.728   4.014  13.081 -0.1230  0.5176  0.3000
18776TIP3    H277744   0.692   3.979  13.224  2.0912  2.0683  1.2998
18777TIP3   OH277745   0.361   2.040  15.311 -0.1732 -0.8678 -0.7623
18777TIP3    H177746   0.424   2.089  15.258  0.6146 -0.1689  0.7770
18777TIP3    H277747   0.368   1.950  15.279  0.9785 -0.6367 -1.1963
18778TIP3   OH277748   5.472   3.131   0.332  0.3773  0.4706  0.1358
18778TIP3    H177749   5.377   3.124   0.322  0.1817  0.1699  1.7798
18778TIP3    H277750   5.507   3.054   0.288 -0.3043 -0.3910  1.0393
18779TIP3   OH277751   2.015   4.127  12.485  0.5001 -0.3096 -0.1434
18779TIP3    H177752   2.005   4.207  12.537 -1.4410  0.5912 -1.7721
18779TIP3    H277753   1.995   4.056  12.546 -0.3844  0.6329  0.7011
18780TIP3   OH277754   2.003   6.433  12.682  0.2492 -0.0140 -0.2995
18780TIP3    H177755   1.932   6.376  12.652  0.9089 -0.9148 -0.1858
18780TIP3    H277756   1.977   6.521  12.654 -0.1903 -0.5330 -1.5950
18781TIP3   OH277757   6.240   5.092  12.748  0.0890 -0.0384 -0.0589
18781TIP3    H177758   6.305   5.096  12.678 -1.0552 -0.4112 -1.1647
18781TIP3    H277759   6.287   5.052  12.821  1.8642  2.0937  0.0730
18782TIP3   OH277760   0.921   6.196   2.592 -1.1155  0.2575 -0.1061
18782TIP3    H177761   0.933   6.290   2.606  1.0605  0.1627 -0.9599
18782TIP3    H277762   0.975   6.154   2.659 -0.4887 -0.3318 -0.9529
18783TIP3   OH277763   2.430   4.314  13.092  0.1570 -0.4598 -0.1997
18783TIP3    H177764   2.507   4.260  13.075  0.7454  0.5283 -0.7965
18783TIP3    H277765   2.383   4.268  13.162 -0.4421 -2.7764 -2.0035
18784TIP3   OH277766   4.706   0.593  10.814 -0.3008 -0.4509 -0.0617
18784TIP3    H177767   4.707   0.573  10.908 -0.3496 -1.0979 -0.1919
18784TIP3    H277768   4.780   0.543  10.779  0.6748  1.0026 -0.1361
18785TIP3   OH277769   5.874   4.475  12.256  0.3943  0.0452 -0.3332
18785TIP3    H177770   5.819   4.402  12.286  2.4609 -1.6091 -0.3220
18785TIP3    H277771   5.931   4.493  12.330  1.3836  0.1515 -1.1062
18786TIP3   OH277772   5.455   1.384  11.190  0.1563 -0.9362 -0.1413
18786TIP3    H177773   5.471   1.350  11.101  0.2558 -0.7695 -0.1869
18786TIP3    H277774   5.369   1.426  11.184 -0.5641 -2.2753  0.2262
18787TIP3   OH277775   0.309   5.083   6.940 -0.0732  0.3221 -0.6825
18787TIP3    H177776   0.396   5.119   6.921 -1.1520  3.5514 -0.0573
18787TIP3    H277777   0.272   5.064   6.854  1.3054 -1.4833 -0.9489
18788TIP3   OH277778   1.179   5.321   0.105  0.7611  0.1001  0.1816
18788TIP3    H177779   1.213   5.235   0.131 -0.4226 -1.1349 -2.0394
18788TIP3    H277780   1.122   5.347   0.178  1.0565 -1.0415  0.8500
18789TIP3   OH277781   1.544   1.341   1.327  0.3843  0.2990 -0.2175
18789TIP3    H177782   1.466   1.288   1.308  1.0529 -0.1452 -1.9170
18789TIP3    H277783   1.513   1.431   1.327 -0.4072  0.0452  0.7361
18790TIP3   OH277784   1.143   5.059  16.093 -0.1146 -0.7353 -0.0410
18790TIP3    H177785   1.107   5.022  16.174 -1.6105 -1.2308 -0.8796
18790TIP3    H277786   1.149   5.153  16.111 -0.8035 -0.7833  0.5234
18791TIP3   OH277787   6.493   2.532  11.462  0.3121 -0.3472 -0.6944
18791TIP3    H177788   6.555   2.603  11.447  1.1439 -0.8258  0.3424
18791TIP3    H277789   6.529   2.457  11.414  0.6323 -0.6700  0.0390
18792TIP3   OH277790   6.138   5.353  12.597  0.5725 -0.1854  0.1579
18792TIP3    H177791   6.230   5.375  12.609  0.4552  0.9224 -0.7187
18792TIP3    H277792   6.137   5.258  12.586  1.9728 -0.0193 -2.3888
18793TIP3   OH277793   1.706   6.551  16.269  0.0131 -0.1350 -0.6741
18793TIP3    H177794   1.703   6.472  16.322  0.1555  0.6863  0.6091
18793TIP3    H277795   1.629   6.601  16.297  1.3635  1.3797  0.5638
18794TIP3   OH277796   5.763   4.204  17.063  0.0292  0.9208 -0.4870
18794TIP3    H177797   5.835   4.244  17.014  1.4085 -0.6336  0.1960
18794TIP3    H277798   5.685   4.226  17.012  0.9242  2.7681 -1.1875
18795TIP3   OH277799   5.134   1.278  14.524 -0.3811  0.5614 -0.3112
18795TIP3    H177800   5.121   1.303  14.432 -0.5950 -0.6908 -0.6327
18795TIP3    H277801   5.229   1.282  14.536 -0.3540  0.7769 -0.5632
18796TIP3   OH277802   1.551   5.498   2.288  0.1885  0.3022 -0.1478
18796TIP3    H177803   1.555   5.587   2.253  0.6787  0.7935  1.1394
18796TIP3    H277804   1.592   5.503   2.374 -0.6450 -0.9685  0.3549
18797TIP3   OH277805   2.382   6.726  13.730  0.3625 -0.3167 -0.1266
18797TIP3    H177806   2.406   6.643  13.689  0.7034 -0.5198  0.4711
18797TIP3    H277807   2.343   6.701  13.814  0.8029  0.1429  0.2179
18798TIP3   OH277808   0.758   5.677  14.355  0.3658  0.3060  0.1452
18798TIP3    H177809   0.718   5.700  14.271  1.0603 -1.1133 -0.6046
18798TIP3    H277810   0.820   5.607  14.334  1.4400  0.7613  1.6616
18799TIP3   OH277811   5.435   5.131   2.725  0.2209 -0.5202  0.2414
18799TIP3    H177812   5.400   5.212   2.762  1.2172 -0.7405  1.7065
18799TIP3    H277813   5.530   5.145   2.722  0.4731 -1.9029  1.2217
18800TIP3   OH277814   2.474   6.501   2.040  0.9090  0.5605  0.0985
18800TIP3    H177815   2.525   6.567   1.992 -1.5166  1.7389 -1.0432
18800TIP3    H277816   2.427   6.453   1.972  0.2114 -0.2469  1.1124
18801TIP3   OH277817   1.712   6.495  12.319  0.2899 -0.2039 -0.2191
18801TIP3    H177818   1.645   6.557  12.347 -0.8799 -0.3220 -2.5491
18801TIP3    H277819   1.694   6.480  12.226  2.9832 -0.9723 -0.6985
18802TIP3   OH277820   1.149   2.606   5.413  0.4602  0.4593  0.1416
18802TIP3    H177821   1.219   2.663   5.445 -0.1325  0.3126  1.7524
18802TIP3    H277822   1.112   2.566   5.491  0.0384 -1.2023 -0.8531
18803TIP3   OH277823   3.253   2.090  14.387 -0.1700 -0.0338  0.0212
18803TIP3    H177824   3.301   2.067  14.466  0.3613 -0.1561 -0.3326
18803TIP3    H277825   3.266   2.184  14.376  1.8100 -0.3880 -1.2366
18804TIP3   OH277826   0.560   5.305   1.867  0.0981 -0.5981  0.2506
18804TIP3    H177827   0.559   5.290   1.773  1.4265  1.0352 -0.0719
18804TIP3    H277828   0.526   5.224   1.905  0.0526 -1.4888 -1.6005
18805TIP3   OH277829   1.810   0.981  15.215  0.2170 -0.1952 -0.4269
18805TIP3    H177830   1.841   1.014  15.300  1.2411 -1.2957 -0.3361
18805TIP3    H277831   1.785   1.059  15.167 -1.4353  0.3947  1.2661
18806TIP3   OH277832   2.207   4.438  14.855 -0.5922  1.1040  0.4017
18806TIP3    H177833   2.237   4.378  14.923  1.3132 -0.7955 -1.9291
18806TIP3    H277834   2.117   4.412  14.838  0.1802 -1.2330 -0.5486
18807TIP3   OH277835   2.552   2.734   2.971  0.0016 -0.1838  0.2041
18807TIP3    H177836   2.609   2.733   3.048  0.1860 -0.5476  0.0615
18807TIP3    H277837   2.586   2.666   2.914 -0.8269 -0.6955  0.2975
18808TIP3   OH277838   4.799   3.000  15.757 -0.0344 -0.2115 -0.5234
18808TIP3    H177839   4.791   2.907  15.780  1.2813 -0.2637 -0.2069
18808TIP3    H277840   4.758   3.007  15.671  1.9424 -1.5823 -1.6389
18809TIP3   OH277841   5.248   3.461   2.280  0.2642  0.5121  0.1673
18809TIP3    H177842   5.166   3.417   2.259  0.3954  0.5491 -0.4514
18809TIP3    H277843   5.228   3.554   2.268  0.5408  0.4878 -0.5238
18810TIP3   OH277844   5.332   4.038   1.155 -0.4955 -0.0481 -0.0700
18810TIP3    H177845   5.321   4.020   1.249  0.6386 -1.0655 -0.1155
18810TIP3    H277846   5.427   4.036   1.141 -0.6609 -0.0700 -1.2710
18811TIP3   OH277847   3.659   0.137  15.657  0.2484 -0.2501  0.3755
18811TIP3    H177848   3.611   0.054  15.658 -0.7374  0.2965  0.0146
18811TIP3    H277849   3.702   0.141  15.742 -3.6898  1.0983  2.5673
18812TIP3   OH277850   1.343   3.582  13.322 -0.2839 -0.0594 -0.3622
18812TIP3    H177851   1.315   3.493  13.344 -3.4173  1.0549  0.6236
18812TIP3    H277852   1.289   3.606  13.247 -0.3858  1.4258  0.1560
18813TIP3   OH277853   6.293   2.432  15.507  0.1637  0.5621 -0.2813
18813TIP3    H177854   6.315   2.356  15.560 -0.5114 -0.0154 -0.8023
18813TIP3    H277855   6.204   2.456  15.534 -0.6960 -0.5100 -1.9611
18814TIP3   OH277856   2.628   2.690  16.751  0.6358 -0.3942 -0.3172
18814TIP3    H177857   2.562   2.663  16.687  1.0966  0.5790 -1.2217
18814TIP3    H277858   2.615   2.630  16.825 -0.4154 -1.0375 -0.9949
18815TIP3   OH277859   1.006   3.858  16.431  0.5340 -0.6288  0.1822
18815TIP3    H177860   1.036   3.872  16.521  1.2741 -0.1388 -0.1268
18815TIP3    H277861   1.044   3.931  16.382 -0.0781 -0.7465 -0.4852
18816TIP3   OH277862   0.133   3.967  11.751 -0.4922  0.4179 -0.1719
18816TIP3    H177863   0.144   3.962  11.656 -0.5901  1.5866 -0.2586
18816TIP3    H277864   0.222   3.972  11.785 -0.3234 -2.3073 -0.0053
18817TIP3   OH277865   4.011   0.715  13.681 -0.7073  0.2575 -0.2490
18817TIP3    H177866   4.040   0.647  13.742  1.4277  1.1276 -0.1990
18817TIP3    H277867   3.959   0.775  13.735  1.2308  1.0748  0.8405
18818TIP3   OH277868   6.492   6.700  15.201  0.0605 -0.5732 -0.2972
18818TIP3    H177869   6.558   6.758  15.240 -0.7628  1.4417 -1.7547
18818TIP3    H277870   6.436   6.675  15.275 -0.1993  1.3781  0.1995
18819TIP3   OH277871   0.497   2.931   4.190  0.1258 -0.4941  0.6602
18819TIP3    H177872   0.551   2.905   4.115  0.5233  1.3479  0.2442
18819TIP3    H277873   0.412   2.892   4.173  0.3676 -0.5800 -0.4726
18820TIP3   OH277874   3.179   1.240  10.713 -0.6626  0.2480  0.0055
18820TIP3    H177875   3.218   1.153  10.701 -0.7973  0.2189 -0.2504
18820TIP3    H277876   3.251   1.295  10.743 -0.7415 -0.1199  0.8865
18821TIP3   OH277877   2.824   5.139  13.970  0.3757 -0.0717 -0.8069
18821TIP3    H177878   2.733   5.165  13.955 -0.6588 -1.1223  2.6895
18821TIP3    H277879   2.861   5.210  14.021 -0.1619 -1.8011  2.2084
18822TIP3   OH277880   0.992   0.411   5.077 -0.2177 -0.5037  0.5919
18822TIP3    H177881   0.927   0.421   5.147 -2.2773  0.1272 -1.2979
18822TIP3    H277882   0.976   0.323   5.043 -1.1578  0.1828 -0.8364
18823TIP3   OH277883   2.125   2.744  16.590  0.1816  0.1253 -0.0644
18823TIP3    H177884   2.072   2.818  16.560 -1.9575 -0.9910  0.7455
18823TIP3    H277885   2.142   2.694  16.510 -0.9194 -0.0349 -0.2239
18824TIP3   OH277886   4.327   3.589  16.987  0.1183 -0.0929  0.2843
18824TIP3    H177887   4.274   3.518  16.950  1.3651 -0.5476 -0.7098
18824TIP3    H277888   4.268   3.633  17.048 -1.3115 -0.7446 -0.5575
18825TIP3   OH277889   6.133   3.153   6.295  0.4596 -0.3108  0.2470
18825TIP3    H177890   6.150   3.245   6.314  0.3633 -0.2496  0.0409
18825TIP3    H277891   6.049   3.135   6.338 -0.1055  0.0143 -0.6785
18826TIP3   OH277892   2.151   0.087  12.451 -0.1965  0.2294 -0.5706
18826TIP3    H177893   2.148   0.094  12.355 -1.7239 -1.5493 -0.7091
18826TIP3    H277894   2.193   0.003  12.467  0.1248  0.5585  0.3526
18827TIP3   OH277895   1.165   5.872  13.835  0.0754  0.1378  0.1336
18827TIP3    H177896   1.225   5.800  13.853  0.9716  0.5684 -0.9621
18827TIP3    H277897   1.103   5.872  13.908  0.9955 -0.7636  0.9327
18828TIP3   OH277898   4.198   6.205  14.366 -0.8059 -0.1677 -0.4031
18828TIP3    H177899   4.256   6.173  14.434  1.3817  0.8100 -1.7017
18828TIP3    H277900   4.164   6.126  14.323  0.7473 -0.7804 -0.5504
18829TIP3   OH277901   3.721   3.154  14.030 -0.0008 -0.3185 -0.1135
18829TIP3    H177902   3.703   3.167  14.123 -1.3794 -0.0454 -0.3953
18829TIP3    H277903   3.637   3.173  13.986  0.6296 -0.4053 -1.4105
18830TIP3   OH277904   4.713   5.763   4.267 -0.2842  0.2850 -0.3215
18830TIP3    H177905   4.692   5.801   4.352  1.1781  0.6566 -0.0955
18830TIP3    H277906   4.762   5.832   4.222 -0.4612 -0.1534 -1.2148
18831TIP3   OH277907   2.280   2.066  11.455 -0.4586  0.2022 -0.0930
18831TIP3    H177908   2.189   2.035  11.451  0.0256 -1.5447  1.2920
18831TIP3    H277909   2.330   1.990  11.484  1.3908  1.2833 -0.2997
18832TIP3   OH277910   1.916   4.851  13.661 -0.4695 -0.1706  0.1837
18832TIP3    H177911   1.905   4.800  13.741  1.2581 -0.7134  0.0997
18832TIP3    H277912   1.917   4.942  13.691 -2.0490 -0.2264  0.4973
18833TIP3   OH277913   2.021   6.363  12.027  0.5601 -0.1463 -0.4576
18833TIP3    H177914   2.088   6.313  12.074 -0.2453  0.7083  1.7690
18833TIP3    H277915   2.068   6.403  11.953  2.9576  1.5423  1.7743
18834TIP3   OH277916   4.718   1.344  11.334  0.0333 -0.0295 -0.1017
18834TIP3    H177917   4.775   1.369  11.406 -0.8989 -0.4810  0.8159
18834TIP3    H277918   4.680   1.427  11.305  1.1505  0.2795 -0.7501
18835TIP3   OH277919   4.311   6.433  14.257  0.6525 -0.2354  0.0653
18835TIP3    H177920   4.374   6.378  14.211  0.6158 -0.8445  0.7352
18835TIP3    H277921   4.261   6.372  14.312 -1.1854  0.0623 -1.1473
18836TIP3   OH277922   1.580   5.075  15.685  0.4772  0.3401  0.1192
18836TIP3    H177923   1.492   5.053  15.716  0.6535 -2.7984 -1.1820
18836TIP3    H277924   1.573   5.164  15.652 -1.4522  1.1946  2.5607
18837TIP3   OH277925   1.307   0.106  16.125  0.0435  0.6861 -0.0574
18837TIP3    H177926   1.274   0.073  16.041  0.7704  1.5315 -0.6866
18837TIP3    H277927   1.400   0.123  16.110 -0.1907  2.5552  0.3664
18838TIP3   OH277928   6.691   4.068   2.249  0.3245  0.0859 -0.5319
18838TIP3    H177929   6.624   4.020   2.201 -1.1333  1.3302  0.1782
18838TIP3    H277930   6.662   4.065   2.340 -0.1443  2.7195 -0.5191
18839TIP3   OH277931   1.472   5.384   3.999  0.0029 -0.1233  0.6357
18839TIP3    H177932   1.489   5.478   4.005 -0.5159 -0.0398  0.8252
18839TIP3    H277933   1.483   5.364   3.906  2.4726 -0.3460  0.9052
18840TIP3   OH277934   3.133   1.859  13.041  0.3246  0.2460  0.0131
18840TIP3    H177935   3.148   1.947  13.076  1.7213 -0.7522  2.1033
18840TIP3    H277936   3.145   1.801  13.115 -0.4877 -1.7581 -1.3318
18841TIP3   OH277937   0.141   1.309  14.995  0.0901 -0.1708 -0.3231
18841TIP3    H177938   0.188   1.235  14.956  0.8978  0.7110 -1.0818
18841TIP3    H277939   0.174   1.313  15.085  0.4812 -0.3754 -0.4530
18842TIP3   OH277940   1.309   2.210  16.882  0.0350  0.4591  0.5412
18842TIP3    H177941   1.249   2.144  16.917 -0.2335  0.2805 -0.2244
18842TIP3    H277942   1.394   2.188  16.920  0.0977 -0.7720 -0.2464
18843TIP3   OH277943   2.189   1.945  11.931  0.4062  0.4625 -0.1181
18843TIP3    H177944   2.166   1.854  11.948  1.9105  0.0640 -0.1199
18843TIP3    H277945   2.165   1.991  12.012 -2.6565  0.5902 -0.9414
18844TIP3   OH277946   6.551   4.074   6.183  0.4154 -0.0616  0.1547
18844TIP3    H177947   6.464   4.039   6.199  0.5020  0.1823  1.1998
18844TIP3    H277948   6.542   4.127   6.103 -0.8176  1.4184  1.2181
18845TIP3   OH277949   0.158   1.266   3.703 -0.3241 -0.1867  0.1567
18845TIP3    H177950   0.170   1.173   3.721  0.2893  0.1769  1.8688
18845TIP3    H277951   0.064   1.280   3.710 -0.5060 -0.7948 -0.8707
18846TIP3   OH277952   0.429   1.962   4.137 -0.3732 -0.2249  0.3947
18846TIP3    H177953   0.498   1.930   4.196  0.4696 -0.6850 -0.7881
18846TIP3    H277954   0.475   2.015   4.073 -1.2886  0.3751  0.2166
18847TIP3   OH277955   1.795   3.479   5.053 -0.0434 -0.1472  0.2009
18847TIP3    H177956   1.802   3.389   5.020  0.8637  0.7345 -2.2538
18847TIP3    H277957   1.876   3.493   5.102  1.0366  0.0906 -1.5719
18848TIP3   OH277958   1.971   3.353   0.766 -0.6135  0.1489 -0.0994
18848TIP3    H177959   2.052   3.313   0.734 -0.6113 -0.2464  0.3837
18848TIP3    H277960   1.903   3.320   0.708 -0.6305 -0.6774  0.3722
18849TIP3   OH277961   4.550   6.088  15.761  0.2447  0.1322  0.3454
18849TIP3    H177962   4.534   6.140  15.682 -0.5995  0.3504  0.6511
18849TIP3    H277963   4.641   6.058  15.752  0.0134 -0.2307 -0.9334
18850TIP3   OH277964   2.825   0.122  15.685 -0.0995 -0.2868 -0.3929
18850TIP3    H177965   2.787   0.207  15.665 -0.3416 -0.2773  0.0887
18850TIP3    H277966   2.756   0.075  15.733  0.7351  0.0086  1.1556
18851TIP3   OH277967   0.830   5.639   5.279  0.1761 -0.4465 -0.2246
18851TIP3    H177968   0.760   5.587   5.318  1.5806 -0.6573  2.2127
18851TIP3    H277969   0.850   5.594   5.197  0.0208 -2.6647  0.8706
18852TIP3   OH277970   5.005   3.512  14.923  0.2030  0.0951 -0.1607
18852TIP3    H177971   5.050   3.596  14.937  1.8287 -0.4826 -1.4920
18852TIP3    H277972   4.980   3.514  14.831 -1.2641 -0.2106  0.2194
18853TIP3   OH277973   1.431   3.856  11.454 -0.0642 -0.5326 -0.5459
18853TIP3    H177974   1.371   3.927  11.475 -0.2654 -0.7318 -0.4430
18853TIP3    H277975   1.450   3.867  11.361  1.2542  0.6760 -0.1648
18854TIP3   OH277976   6.408   0.460  11.371  0.4330 -0.2326  0.4538
18854TIP3    H177977   6.492   0.494  11.339  0.8917 -0.2462  1.6071
18854TIP3    H277978   6.425   0.434  11.461 -1.0002  0.4364  0.9522
18855TIP3   OH277979   3.638   5.751   3.666  0.3528  0.0603  0.4845
18855TIP3    H177980   3.587   5.832   3.673 -1.2456 -0.8348 -0.0597
18855TIP3    H277981   3.674   5.753   3.577 -0.4619 -0.2256  0.1347
18856TIP3   OH277982   0.065   6.094  14.558 -0.2322 -0.5439 -0.2394
18856TIP3    H177983   0.091   6.184  14.578  1.4890 -0.9742 -0.4153
18856TIP3    H277984   0.027   6.100  14.470 -2.5758  0.3975  0.7569
18857TIP3   OH277985   1.969   2.872   5.903  0.0342 -0.2537  0.3778
18857TIP3    H177986   1.932   2.959   5.888  1.1147  0.1228 -0.1966
18857TIP3    H277987   1.901   2.826   5.952 -1.0773  0.5026 -0.3809
18858TIP3   OH277988   0.532   0.135  13.413  0.6422 -0.1820  0.0857
18858TIP3    H177989   0.496   0.046  13.416  2.2879 -0.8767  0.0900
18858TIP3    H277990   0.464   0.189  13.452 -1.7312 -0.9439 -2.5996
18859TIP3   OH277991   2.800   5.252   0.600  0.2921  0.5451 -0.1128
18859TIP3    H177992   2.862   5.305   0.649 -0.3135 -1.6471  3.3369
18859TIP3    H277993   2.854   5.184   0.559  0.3737 -0.7121  1.9740
18860TIP3   OH277994   4.282   1.478   0.839 -0.3009 -0.5229 -0.0404
18860TIP3    H177995   4.238   1.520   0.765  2.0065 -1.1240 -1.8714
18860TIP3    H277996   4.316   1.396   0.804 -0.2303 -1.4672  2.0743
18861TIP3   OH277997   2.890   3.407  16.319  0.2633 -0.3222  0.4153
18861TIP3    H177998   2.902   3.470  16.249 -0.1125 -0.1819  0.4775
18861TIP3    H277999   2.817   3.353  16.291  0.9786 -1.1376  0.0688
18862TIP3   OH278000   3.221   2.283  16.891 -0.1133 -0.3999 -0.5672
18862TIP3    H178001   3.273   2.334  16.829 -1.4812  1.6650 -0.0987
18862TIP3    H278002   3.171   2.223  16.836  0.8739 -0.6865 -1.1998
18863TIP3   OH278003   5.587   3.933  12.520 -0.0642  0.0913  0.1119
18863TIP3    H178004   5.582   3.889  12.435 -0.8043  0.5065 -0.0691
18863TIP3    H278005   5.496   3.958  12.539  0.2879  1.2017  0.3920
18864TIP3   OH278006   0.205   3.782   1.616  0.3650 -0.3442 -0.3014
18864TIP3    H178007   0.253   3.792   1.698 -0.1989 -0.6139  0.0690
18864TIP3    H278008   0.234   3.698   1.581  2.0310  0.6034 -1.3547
18865TIP3   OH278009   1.581   5.276   3.421  0.1206 -0.1689  0.1921
18865TIP3    H178010   1.608   5.298   3.510 -1.1762 -0.1297  0.5987
18865TIP3    H278011   1.518   5.345   3.397 -1.1098 -1.3002  0.0403
18866TIP3   OH278012   4.538   1.446  16.181 -0.2280 -0.3042 -0.1890
18866TIP3    H178013   4.539   1.466  16.087 -1.3022  1.2092  0.0912
18866TIP3    H278014   4.621   1.480  16.213 -1.0659  1.8320 -0.1301
18867TIP3   OH278015   5.755   2.559   0.300  0.2449 -0.3727  0.2253
18867TIP3    H178016   5.791   2.480   0.261  0.8569 -0.2315  0.4847
18867TIP3    H278017   5.775   2.551   0.394 -1.0847 -0.6475  0.4987
18868TIP3   OH278018   3.675   0.313  13.221  0.2712 -0.3726 -0.5448
18868TIP3    H178019   3.688   0.268  13.138  2.1234  1.7733 -1.5315
18868TIP3    H278020   3.585   0.346  13.217  0.6053  0.4360 -2.1328
18869TIP3   OH278021   5.086   0.353   1.273 -0.5157 -0.6382  0.3544
18869TIP3    H178022   5.155   0.322   1.332 -0.7929 -0.8914  0.5474
18869TIP3    H278023   5.085   0.448   1.284  2.1734 -0.1706 -2.2070
18870TIP3   OH278024   6.582   1.359  16.507 -0.1049 -0.7379 -0.6256
18870TIP3    H178025   6.611   1.422  16.573 -0.4675 -0.8098 -0.3942
18870TIP3    H278026   6.592   1.405  16.424  1.3813 -1.0164 -0.6380
18871TIP3   OH278027   1.840   1.533   0.330  0.5463 -0.5370  0.5093
18871TIP3    H178028   1.784   1.538   0.408  0.7330 -1.0516  0.6824
18871TIP3    H278029   1.877   1.620   0.322  0.4864 -0.4646  0.9728
18872TIP3   OH278030   2.456   5.638   2.891 -0.3711  0.0098 -0.3752
18872TIP3    H178031   2.409   5.669   2.968 -2.1026  0.6030 -1.6053
18872TIP3    H278032   2.542   5.679   2.897 -0.9361  1.1115  0.5757
18873TIP3   OH278033   3.163   3.842  15.682 -0.5562  0.0608  0.6134
18873TIP3    H178034   3.134   3.926  15.718  0.7421  0.3860  0.9310
18873TIP3    H278035   3.212   3.801  15.753  0.3680 -0.1606 -0.1267
18874TIP3   OH278036   1.926   5.687  14.992 -0.0238  0.1723 -0.3663
18874TIP3    H178037   1.929   5.623  15.063  1.1605  0.3125 -0.2735
18874TIP3    H278038   1.968   5.765  15.028 -0.0296  0.4763 -1.0015
18875TIP3   OH278039   5.721   3.181   4.628 -0.0275  0.1913 -0.0994
18875TIP3    H178040   5.672   3.192   4.710 -0.3584  1.8964 -0.4875
18875TIP3    H278041   5.735   3.086   4.621 -0.3377 -0.0217  1.7158
18876TIP3   OH278042   2.860   4.284  13.415 -0.2881  0.5351  0.2914
18876TIP3    H178043   2.793   4.294  13.482 -0.5691  1.3777 -0.0948
18876TIP3    H278044   2.814   4.299  13.332 -0.2322 -1.8170 -0.2331
18877TIP3   OH278045   5.227   2.689   6.361  0.1089  0.6770 -0.1789
18877TIP3    H178046   5.290   2.761   6.357 -0.7219  1.6931  2.6026
18877TIP3    H278047   5.142   2.731   6.359 -0.3896 -0.1271  1.7776
18878TIP3   OH278048   4.147   6.107   0.625  0.3256 -0.0240  1.0141
18878TIP3    H178049   4.172   6.182   0.569 -0.7669 -0.0032  0.5282
18878TIP3    H278050   4.117   6.041   0.563 -0.7467 -0.0653  1.5547
18879TIP3   OH278051   6.276   3.150  17.103  0.3374  0.3276  0.5261
18879TIP3    H178052   6.186   3.127  17.126  0.3275 -0.8792 -0.6458
18879TIP3    H278053   6.272   3.243  17.080 -0.7388  0.1287 -0.1333
18880TIP3   OH278054   4.476   0.212   4.427  0.6459 -0.1001 -0.5014
18880TIP3    H178055   4.418   0.150   4.468 -0.6834  1.2792 -0.2132
18880TIP3    H278056   4.512   0.264   4.499 -0.6552  1.4491 -0.9131
18881TIP3   OH278057   4.605   5.326  14.528 -0.4337 -0.5885 -0.5033
18881TIP3    H178058   4.695   5.312  14.500  0.0834 -0.6069  1.0841
18881TIP3    H278059   4.603   5.415  14.561 -0.7753 -0.8705  0.2624
18882TIP3   OH278060   5.568   4.821   2.958 -0.2773 -0.0922  0.4478
18882TIP3    H178061   5.490   4.772   2.985  0.1294 -0.2240  1.4336
18882TIP3    H278062   5.638   4.786   3.013  0.6124 -0.4056 -0.8425
18883TIP3   OH278063   1.508   1.960  16.393 -0.5795  0.0956 -0.5400
18883TIP3    H178064   1.571   1.889  16.394 -0.5050  0.1628 -0.4325
18883TIP3    H278065   1.422   1.917  16.396 -0.5398  0.0322  2.3872
18884TIP3   OH278066   1.009   4.055   5.108  0.0482  0.6473  0.2659
18884TIP3    H178067   1.104   4.064   5.106  0.1729 -0.6554 -1.3210
18884TIP3    H278068   0.977   4.144   5.126  1.5320  1.1835  0.3676
18885TIP3   OH278069   2.368   1.437   4.210  0.6358  0.2200  0.0694
18885TIP3    H178070   2.448   1.384   4.212  0.1170 -0.5742  1.4217
18885TIP3    H278071   2.349   1.448   4.117  2.1973  0.2671 -0.2754
18886TIP3   OH278072   1.756   2.644   2.225  0.6845 -0.0218  0.0386
18886TIP3    H178073   1.726   2.715   2.168  1.9817  1.2118  0.8156
18886TIP3    H278074   1.816   2.594   2.170 -0.2639 -0.5662 -0.5257
18887TIP3   OH278075   2.086   4.833  15.768  0.0831  0.9807  0.2239
18887TIP3    H178076   2.002   4.792  15.747 -0.3011  2.2068 -0.8054
18887TIP3    H278077   2.146   4.798  15.702 -0.0527  1.4177 -0.1408
18888TIP3   OH278078   4.412   5.389   3.679  0.2301 -0.2630 -0.3138
18888TIP3    H178079   4.320   5.404   3.658  0.3707 -0.0393 -0.7843
18888TIP3    H278080   4.424   5.294   3.667 -0.5190 -0.7156  2.1105
18889TIP3   OH278081   2.670   1.632  12.154  0.6452  0.1668  0.2382
18889TIP3    H178082   2.700   1.674  12.235  0.4020  1.5111 -0.3393
18889TIP3    H278083   2.651   1.542  12.180  0.3492  0.6242  1.7355
18890TIP3   OH278084   0.489   1.487  11.636 -0.1664 -0.6171  0.7341
18890TIP3    H178085   0.432   1.413  11.618  0.9364 -1.1447 -0.7599
18890TIP3    H278086   0.449   1.560  11.587 -0.1865 -0.6971  0.6313
18891TIP3   OH278087   6.044   1.961  14.213  0.4295  0.5286  0.2467
18891TIP3    H178088   6.139   1.976  14.207  0.5576  0.5340  1.9242
18891TIP3    H278089   6.007   2.049  14.222  0.1739  0.5813 -1.0513
18892TIP3   OH278090   5.809   4.551   1.548 -0.1897 -0.3279  1.0491
18892TIP3    H178091   5.828   4.519   1.460 -0.5549  0.6443  0.5967
18892TIP3    H278092   5.785   4.473   1.598  0.5778 -0.9700  0.4467
18893TIP3   OH278093   1.248   0.294  13.681  0.1601  0.1423  0.1457
18893TIP3    H178094   1.309   0.352  13.636  0.2937  0.1503  0.3388
18893TIP3    H278095   1.163   0.316  13.644  0.4247 -0.7767 -1.0888
18894TIP3   OH278096   0.630   4.458   4.533  0.6900  0.2726 -0.2306
18894TIP3    H178097   0.639   4.458   4.629 -2.7420 -1.0060  0.2339
18894TIP3    H278098   0.666   4.373   4.507  0.4711  0.0630  0.1239
18895TIP3   OH278099   4.537   1.293   1.904 -0.1073  0.0840 -0.3556
18895TIP3    H178100   4.500   1.207   1.886  0.6907 -0.2311 -0.5280
18895TIP3    H278101   4.524   1.342   1.823 -0.6871  0.1851 -0.2114
18896TIP3   OH278102   1.304   6.670  11.892  0.1782 -0.0633 -0.2056
18896TIP3    H178103   1.223   6.658  11.942  0.2049 -1.5759 -0.4702
18896TIP3    H278104   1.304   6.763  11.867 -1.0902  0.1278  0.4395
18897TIP3   OH278105   6.703   2.750  14.893  0.0875 -0.2361 -0.0018
18897TIP3    H178106   6.703   2.836  14.852 -0.1087 -0.4729 -0.5071
18897TIP3    H278107   6.742   2.764  14.980  1.7961  0.0173 -0.7772
18898TIP3   OH278108   5.025   3.904  13.068  0.5167 -0.2814  0.1898
18898TIP3    H178109   5.036   3.941  12.981  1.0220  2.6617  1.3584
18898TIP3    H278110   5.101   3.847  13.080  2.5770  2.2183 -0.0201
18899TIP3   OH278111   0.979   5.862   5.424 -1.1901  0.1654 -0.0398
18899TIP3    H178112   0.925   5.785   5.409  0.5880 -1.3100  0.8516
18899TIP3    H278113   1.032   5.871   5.345 -1.7347  0.8131 -0.3497
18900TIP3   OH278114   6.248   6.176   4.172 -0.2110 -0.0123 -0.3674
18900TIP3    H178115   6.311   6.181   4.101  0.9226 -0.6738  0.5709
18900TIP3    H278116   6.300   6.158   4.250 -1.5413 -0.4376  0.4584
18901TIP3   OH278117   6.774   4.701  14.097  0.2757 -0.5291  0.2911
18901TIP3    H178118   6.682   4.721  14.086  0.5640  0.4161 -0.5488
18901TIP3    H278119   6.813   4.782  14.129  0.8411 -0.8716  0.4960
18902TIP3   OH278120   0.880   2.294   3.904  0.4009 -0.2151 -0.3124
18902TIP3    H178121   0.953   2.268   3.849 -0.1616 -1.6284 -0.4162
18902TIP3    H278122   0.860   2.217   3.958 -1.4312 -0.1051 -0.7664
18903TIP3   OH278123   3.404   2.136   1.699 -0.4145  0.0213 -0.0282
18903TIP3    H178124   3.321   2.148   1.652 -0.2512  0.9636 -0.1020
18903TIP3    H278125   3.437   2.225   1.712  0.0147 -0.2784  1.0371
18904TIP3   OH278126   6.412   5.016   2.747 -0.1079  0.2501  0.2138
18904TIP3    H178127   6.351   4.969   2.804 -0.0725 -0.2959 -0.1957
18904TIP3    H278128   6.370   5.014   2.661  0.7561 -0.6401 -0.1990
18905TIP3   OH278129   3.573   1.238  11.948  0.0498 -0.1483  0.0797
18905TIP3    H178130   3.601   1.231  11.857 -0.7504  0.2657 -0.2058
18905TIP3    H278131   3.539   1.327  11.956 -0.1662 -0.2794  0.6997
18906TIP3   OH278132   4.928   6.232   3.396  0.0134 -0.2324  0.3443
18906TIP3    H178133   4.998   6.207   3.335  0.7283 -1.3502  1.5785
18906TIP3    H278134   4.971   6.235   3.482 -0.7792  2.1582  0.7164
18907TIP3   OH278135   5.988   1.051  13.911 -0.7484 -0.7018  0.8221
18907TIP3    H178136   5.992   1.147  13.909 -2.9817 -0.5235  1.6831
18907TIP3    H278137   5.901   1.032  13.947 -0.4360 -3.0607  0.4649
18908TIP3   OH278138   5.554   0.771  13.660 -0.2127  0.7766 -0.4982
18908TIP3    H178139   5.468   0.741  13.632 -0.0658  0.2433 -0.3815
18908TIP3    H278140   5.536   0.838  13.726 -0.5459 -1.3283  1.6653
18909TIP3   OH278141   6.387   0.432   4.730  0.5080  0.2762  0.4243
18909TIP3    H178142   6.439   0.492   4.784 -1.1588  0.3252  2.1089
18909TIP3    H278143   6.341   0.378   4.794  1.3348 -2.3187 -1.0281
18910TIP3   OH278144   1.178   3.629  14.216 -0.6906 -0.0891  0.0238
18910TIP3    H178145   1.119   3.582  14.157  0.6369  0.0423 -1.4676
18910TIP3    H278146   1.160   3.592  14.303 -2.6813 -0.2984 -0.4314
18911TIP3   OH278147   0.780   2.327  13.541  0.1342 -0.3294 -0.5350
18911TIP3    H178148   0.849   2.261  13.534  1.2430  0.7080  0.2105
18911TIP3    H278149   0.720   2.306  13.469  0.2559 -2.3377 -0.1236
18912TIP3   OH278150   4.627   1.904  11.059  0.4139  0.0002  0.4682
18912TIP3    H178151   4.557   1.963  11.032 -1.1186 -0.6951  2.6970
18912TIP3    H278152   4.650   1.933  11.147 -0.2992 -2.5901  1.5833
18913TIP3   OH278153   0.440   2.465   5.065  0.1976  0.2389 -0.3184
18913TIP3    H178154   0.386   2.400   5.110  0.7984 -0.3390 -0.4090
18913TIP3    H278155   0.459   2.424   4.980  3.4620 -1.0766  0.8871
18914TIP3   OH278156   4.200   1.881   5.097  0.4135  0.2843 -0.5553
18914TIP3    H178157   4.140   1.930   5.153  0.6498  0.6416 -0.6117
18914TIP3    H278158   4.255   1.948   5.056  1.5483 -0.0811  0.3096
18915TIP3   OH278159   2.242   1.809   1.472 -0.1601  0.2700 -0.2433
18915TIP3    H178160   2.266   1.885   1.525 -1.2105  0.3898  0.1010
18915TIP3    H278161   2.288   1.820   1.390 -0.6212  1.5119 -0.3536
18916TIP3   OH278162   4.716   4.910   2.140  0.3650 -0.2198 -0.3992
18916TIP3    H178163   4.732   4.908   2.046  0.7152  0.6747 -0.3675
18916TIP3    H278164   4.795   4.950   2.176  0.0730 -0.2151  0.2420
18917TIP3   OH278165   0.398   0.068   1.525 -0.1485  0.4512 -0.8228
18917TIP3    H178166   0.457   0.113   1.586 -1.8519  1.1542  0.3796
18917TIP3    H278167   0.363   0.139   1.470  0.2571  0.0103 -1.6729
18918TIP3   OH278168   6.368   6.703  10.927 -0.1435 -0.0560  0.0995
18918TIP3    H178169   6.364   6.611  10.901 -0.9459  0.1120 -0.4204
18918TIP3    H278170   6.327   6.750  10.855 -1.2404  0.5463  1.0720
18919TIP3   OH278171   6.184   2.453   2.592  0.0684  0.0149 -0.0410
18919TIP3    H178172   6.137   2.438   2.673  1.1671 -1.3160  0.3856
18919TIP3    H278173   6.223   2.540   2.602  0.6557 -0.3677  1.0998
18920TIP3   OH278174   1.676   1.417   6.166 -0.1267  0.0538  0.1125
18920TIP3    H178175   1.754   1.472   6.164  0.0063  0.3315  4.0472
18920TIP3    H278176   1.698   1.346   6.226 -1.7617 -1.9241 -1.4872
18921TIP3   OH278177   3.331   4.670   6.711 -0.1673 -0.1879 -0.2009
18921TIP3    H178178   3.370   4.646   6.795  2.2303  1.7944 -0.6046
18921TIP3    H278179   3.244   4.702   6.733  0.6062  0.7976  1.6640
18922TIP3   OH278180   4.972   3.624   5.751 -0.0884  0.1972 -0.0034
18922TIP3    H178181   4.984   3.715   5.726  0.3663  0.6226  1.6248
18922TIP3    H278182   5.044   3.578   5.708 -0.4742  0.5278 -1.0525
18923TIP3   OH278183   1.710   0.228  11.541 -0.1328  0.2110  0.3409
18923TIP3    H178184   1.633   0.276  11.511 -0.1723  0.4924  0.8874
18923TIP3    H278185   1.778   0.294  11.550  0.0737  0.0184  0.2000
18924TIP3   OH278186   0.045   6.133   1.072  0.3194  0.1739 -0.1075
18924TIP3    H178187   0.075   6.124   1.163 -2.4261 -4.7298  0.6817
18924TIP3    H278188   0.090   6.063   1.025 -2.6137 -1.2991 -0.9614
18925TIP3   OH278189   6.206   1.019   0.474  0.3213 -0.5298  0.4860
18925TIP3    H178190   6.135   0.961   0.447 -0.0687  0.3642 -0.5258
18925TIP3    H278191   6.163   1.088   0.524  0.3281  0.4362 -0.7843
18926TIP3   OH278192   0.495   2.126  11.309 -0.0764  0.2982 -1.0607
18926TIP3    H178193   0.429   2.142  11.376 -0.9104 -1.1381 -1.4894
18926TIP3    H278194   0.486   2.199  11.247 -2.3315 -0.6089 -1.9118
18927TIP3   OH278195   5.222   6.334   0.377  0.4324  0.2808 -0.3418
18927TIP3    H178196   5.226   6.427   0.400 -0.8182  0.6113 -1.3124
18927TIP3    H278197   5.128   6.316   0.369  0.7039 -0.4443 -2.4950
18928TIP3   OH278198   0.507   2.389  12.378 -0.1747 -0.6680  0.0968
18928TIP3    H178199   0.469   2.447  12.443 -1.1469 -1.0930 -0.0758
18928TIP3    H278200   0.436   2.373  12.315  0.6362 -0.5325 -0.8880
18929TIP3   OH278201   1.570   0.072   3.639  0.2457 -0.3444  0.1219
18929TIP3    H178202   1.615  -0.012   3.644 -1.0800 -1.0326  1.0493
18929TIP3    H278203   1.523   0.079   3.722 -1.0835  0.5052 -0.6673
18930TIP3   OH278204   2.374   0.170   2.191 -0.2540 -0.0245 -0.2515
18930TIP3    H178205   2.354   0.082   2.224 -0.0253  0.9388  2.7635
18930TIP3    H278206   2.331   0.174   2.106 -1.4870 -2.5603  0.1566
18931TIP3   OH278207   1.759   5.054  13.982  0.4949 -0.9395 -0.6139
18931TIP3    H178208   1.836   5.070  13.928  1.1611 -0.5041  0.4244
18931TIP3    H278209   1.693   5.114  13.949  0.4307 -1.6433 -1.8173
18932TIP3   OH278210   5.585   4.214   0.878 -0.0980 -0.8211  0.8889
18932TIP3    H178211   5.598   4.140   0.937 -0.6771 -2.1299 -0.5710
18932TIP3    H278212   5.494   4.205   0.849 -1.3126  2.3197  3.1159
18933TIP3   OH278213   4.666   3.320  15.595  0.5895 -0.1106  0.1564
18933TIP3    H178214   4.747   3.338  15.548 -0.6998  1.5462 -1.6143
18933TIP3    H278215   4.599   3.370  15.547 -0.9325  1.3058  3.4462
18934TIP3   OH278216   6.219   2.909  12.966  0.3623  0.2456  0.3881
18934TIP3    H178217   6.185   2.982  13.019  1.2023  0.2093  1.0004
18934TIP3    H278218   6.290   2.947  12.915 -0.1110  0.1609 -0.3578
18935TIP3   OH278219   1.399   6.725  14.057  0.0359  0.5447 -0.5905
18935TIP3    H178220   1.336   6.738  14.128  1.0224  1.4051  0.1408
18935TIP3    H278221   1.347   6.682  13.988 -1.4079  1.4031 -0.0945
18936TIP3   OH278222   0.447   6.368   1.114 -0.6200  0.0240  0.0723
18936TIP3    H178223   0.360   6.401   1.138 -1.2222 -2.2411  1.3381
18936TIP3    H278224   0.506   6.440   1.135 -2.0663  1.1733  0.3940
18937TIP3   OH278225   2.786   6.507   5.198  0.1839  0.2223  0.0203
18937TIP3    H178226   2.821   6.595   5.182  1.7243 -0.3009  0.3851
18937TIP3    H278227   2.742   6.514   5.282  0.7278  0.5225  0.2827
18938TIP3   OH278228   6.708   2.375  16.453 -0.3347  0.3733  0.0114
18938TIP3    H178229   6.715   2.297  16.508  1.6084 -0.4538 -1.2891
18938TIP3    H278230   6.796   2.413  16.454 -0.0330 -0.0132 -2.9074
18939TIP3   OH278231   3.726   6.644   5.210  0.2729  0.0259 -0.2270
18939TIP3    H178232   3.631   6.637   5.199  0.3009 -0.5094 -0.1686
18939TIP3    H278233   3.736   6.698   5.288 -0.0084 -0.7121  0.3380
18940TIP3   OH278234   6.588   0.645  14.314  0.1101  0.4475 -0.2340
18940TIP3    H178235   6.541   0.703  14.254  0.7928  0.4659 -0.7668
18940TIP3    H278236   6.573   0.557  14.279 -0.6370  0.3265  0.3730
18941TIP3   OH278237   3.498   2.191  15.918  0.3463  0.3163 -0.0982
18941TIP3    H178238   3.586   2.156  15.905 -0.2601 -1.2685 -0.2000
18941TIP3    H278239   3.442   2.134  15.865 -0.6440  1.9515 -0.8930
18942TIP3   OH278240   6.494   5.196   3.084 -0.3307  0.3960  0.1839
18942TIP3    H178241   6.551   5.260   3.127 -1.7652  1.8233  0.0392
18942TIP3    H278242   6.523   5.196   2.993  1.7271 -1.5312  0.7545
18943TIP3   OH278243   1.643   1.493  11.357 -0.1123  0.0753  0.0539
18943TIP3    H178244   1.666   1.531  11.442 -3.8107  0.4547  1.0559
18943TIP3    H278245   1.672   1.558  11.293  0.0341  1.2500  1.2623
18944TIP3   OH278246   0.986   4.680   1.467 -0.2375  0.2355 -0.4011
18944TIP3    H178247   1.009   4.591   1.438  1.9920  1.1713 -1.7570
18944TIP3    H278248   0.907   4.702   1.417 -0.5779 -0.8027 -0.3532
18945TIP3   OH278249   1.329   2.882   1.659 -0.2790 -0.1078 -0.1929
18945TIP3    H178250   1.244   2.844   1.634 -0.8541  1.0858 -0.0955
18945TIP3    H278251   1.311   2.928   1.741  0.1489  1.2583 -0.8503
18946TIP3   OH278252   0.765   3.657   3.369 -0.1234 -0.0150 -0.1857
18946TIP3    H178253   0.740   3.750   3.369  0.5460  0.2078  2.0887
18946TIP3    H278254   0.707   3.617   3.304 -1.1055  1.8131 -0.4993
18947TIP3   OH278255   2.478   2.336   0.474  0.0493 -0.1271  0.0475
18947TIP3    H178256   2.521   2.287   0.545 -1.2428 -0.5008  0.6034
18947TIP3    H278257   2.397   2.370   0.513 -0.8877 -0.6591 -1.3325
18948TIP3   OH278258   6.199   6.100   5.308 -0.3365 -0.0893  0.0302
18948TIP3    H178259   6.245   6.030   5.354  0.3441  0.0243 -0.4613
18948TIP3    H278260   6.146   6.143   5.376 -1.3767 -1.5576  0.1854
18949TIP3   OH278261   4.229   4.661  11.254  0.0767 -0.5256  0.2254
18949TIP3    H178262   4.216   4.754  11.270  1.6571 -0.4129  1.0376
18949TIP3    H278263   4.218   4.620  11.340 -0.3365 -1.0558 -0.0770
18950TIP3   OH278264   3.950   4.480   3.528  0.6612 -0.0574 -0.0515
18950TIP3    H178265   3.975   4.388   3.536  2.4322  0.2628 -1.3092
18950TIP3    H278266   3.858   4.482   3.554  0.7245 -2.0885  0.4981
18951TIP3   OH278267   3.797   1.022   0.408  0.4010 -0.4094  0.4402
18951TIP3    H178268   3.884   1.060   0.395  0.5045 -0.7461  0.1334
18951TIP3    H278269   3.737   1.094   0.391  0.6070 -0.2802  0.2576
18952TIP3   OH278270   4.075   5.603  13.119 -0.1378 -0.4344  0.5676
18952TIP3    H178271   4.004   5.667  13.113 -1.6692 -2.0181  0.9982
18952TIP3    H278272   4.078   5.564  13.031  0.6416  0.0452  0.3722
18953TIP3   OH278273   3.867   5.439  16.263  0.0941 -0.3088 -0.0563
18953TIP3    H178274   3.924   5.513  16.286  1.7656 -1.3447 -0.6586
18953TIP3    H278275   3.779   5.476  16.259  0.7188  1.3619  0.9348
18954TIP3   OH278276   2.486   5.788   1.495 -1.1684  0.2158 -0.5564
18954TIP3    H178277   2.557   5.763   1.436 -0.3669  0.3010  0.3533
18954TIP3    H278278   2.514   5.873   1.531 -0.1029 -1.2116  2.2976
18955TIP3   OH278279   3.826   4.493  11.778  0.0122  0.0424  0.4767
18955TIP3    H178280   3.903   4.437  11.781  0.7370  0.9372 -0.7703
18955TIP3    H278281   3.755   4.434  11.753  0.6754 -0.4201 -0.3766
18956TIP3   OH278282   0.792   3.850  12.038  0.1805  0.1760 -1.0675
18956TIP3    H178283   0.738   3.772  12.023  0.3055  0.0432 -0.8408
18956TIP3    H278284   0.729   3.921  12.048  0.0148 -0.0558 -0.3403
18957TIP3   OH278285   2.799   4.718   0.102 -0.2013 -0.2226 -0.1079
18957TIP3    H178286   2.866   4.786   0.091 -0.5925 -0.1157 -2.6180
18957TIP3    H278287   2.835   4.642   0.057 -0.7449 -0.9635  0.6829
18958TIP3   OH278288   5.070   3.274   2.213  0.0446  0.3085  0.3962
18958TIP3    H178289   5.032   3.323   2.140 -0.2632 -1.0085 -0.3815
18958TIP3    H278290   5.120   3.204   2.171  2.4760  1.3396  1.4296
18959TIP3   OH278291   2.378   4.176  16.720  0.3065  0.2623 -0.2250
18959TIP3    H178292   2.296   4.141  16.753 -0.4984  2.4380  0.2273
18959TIP3    H278293   2.357   4.265  16.690  2.2398  0.4518 -1.2209
18960TIP3   OH278294   1.611   2.360  16.590 -0.4619 -0.3693 -0.2792
18960TIP3    H178295   1.573   2.277  16.619 -0.6962 -0.5992 -1.1988
18960TIP3    H278296   1.604   2.418  16.666 -0.8171 -1.0200  0.1931
18961TIP3   OH278297   3.584   0.755  15.146  0.0708 -0.3501 -0.0653
18961TIP3    H178298   3.553   0.845  15.136  0.3995 -0.3128 -0.7822
18961TIP3    H278299   3.508   0.708  15.182 -0.4463 -0.0179 -0.6948
18962TIP3   OH278300   6.283   4.499  11.277 -0.1038  0.5063  0.3162
18962TIP3    H178301   6.259   4.578  11.326 -0.5438  1.3770 -1.2493
18962TIP3    H278302   6.379   4.505  11.269 -0.0823  0.6152  0.6064
18963TIP3   OH278303   1.723   2.072   1.379 -0.3730 -0.0612 -0.1195
18963TIP3    H178304   1.817   2.067   1.361 -0.6730 -0.5876 -1.7942
18963TIP3    H278305   1.714   2.044   1.470  1.0599 -0.2503 -0.0084
18964TIP3   OH278306   5.557   5.161   3.075  0.4678  0.5486  0.1104
18964TIP3    H178307   5.487   5.096   3.081  1.3597 -0.4377  0.0680
18964TIP3    H278308   5.620   5.123   3.015 -0.1102  2.5458 -1.8893
18965TIP3   OH278309   4.502   3.175  13.217  0.1476 -0.1415 -0.4457
18965TIP3    H178310   4.561   3.213  13.283 -0.4935 -0.3709  0.2763
18965TIP3    H278311   4.494   3.243  13.150  1.6968 -0.3339 -0.8690
18966TIP3   OH278312   3.238   3.809   3.471  0.0489  0.2663  0.3286
18966TIP3    H178313   3.198   3.807   3.384 -1.9028  0.7778  1.1615
18966TIP3    H278314   3.330   3.790   3.455 -0.2048  0.6002 -1.8737
18967TIP3   OH278315   0.614   6.743  14.897  0.1396  0.4638  0.1350
18967TIP3    H178316   0.698   6.718  14.936  0.2808  0.7520  0.0128
18967TIP3    H278317   0.549   6.695  14.949  0.4274 -0.4062 -0.2907
18968TIP3   OH278318   1.249   0.571   2.769  0.6683 -0.1811  0.4928
18968TIP3    H178319   1.187   0.529   2.709  0.7727 -0.4019  0.5397
18968TIP3    H278320   1.308   0.620   2.712  0.1908  0.3831  0.4697
18969TIP3   OH278321   0.465   0.211   3.743  0.7508 -0.1292 -0.3545
18969TIP3    H178322   0.449   0.259   3.662 -0.5532  0.4822  0.2322
18969TIP3    H278323   0.381   0.171   3.764  0.7458  0.6993  1.3148
18970TIP3   OH278324   5.964   5.780   5.276 -0.1144 -0.5838  0.1962
18970TIP3    H178325   5.933   5.777   5.186  0.7496 -0.3507 -0.1244
18970TIP3    H278326   5.911   5.847   5.318  0.9430  0.9154 -0.7441
18971TIP3   OH278327   3.338   1.507   3.275  0.2334  0.2675 -0.3945
18971TIP3    H178328   3.335   1.598   3.246 -0.1566  0.3721 -0.0311
18971TIP3    H278329   3.321   1.511   3.369  3.3880  0.1227  0.2859
18972TIP3   OH278330   4.978   6.523  16.720  1.2186  0.4204 -0.5762
18972TIP3    H178331   4.934   6.438  16.713  1.4854  0.2151  0.1154
18972TIP3    H278332   5.066   6.501  16.753  1.2557  0.9677 -0.3061
18973TIP3   OH278333   1.357   1.796   3.252 -0.4643 -0.0348 -0.0492
18973TIP3    H178334   1.376   1.758   3.338 -0.3573 -1.5625 -0.7048
18973TIP3    H278335   1.331   1.721   3.199  1.4597  0.5230 -1.9216
18974TIP3   OH278336   3.676   2.864  15.123 -0.0586  0.4806 -0.4268
18974TIP3    H178337   3.663   2.945  15.172 -0.3254  0.4271 -0.4083
18974TIP3    H278338   3.620   2.874  15.045 -0.6471  0.0107 -0.0706
18975TIP3   OH278339   3.275   5.912  16.741  0.1633 -0.3328 -0.3723
18975TIP3    H178340   3.325   5.908  16.659 -0.0077 -1.7477 -0.4368
18975TIP3    H278341   3.247   5.822  16.756 -2.4897  0.4031 -0.4081
18976TIP3   OH278342   6.555   4.514  16.352 -0.0343 -0.4045 -0.8413
18976TIP3    H178343   6.480   4.550  16.304 -0.4736  0.4932  0.4719
18976TIP3    H278344   6.520   4.438  16.398 -0.0028 -0.3113 -0.6632
18977TIP3   OH278345   2.327   4.855  10.749 -0.1400 -0.0233 -0.0059
18977TIP3    H178346   2.368   4.782  10.794  0.0479 -0.2630 -0.5673
18977TIP3    H278347   2.271   4.895  10.816 -0.0662 -0.5340  0.3683
18978TIP3   OH278348   6.498   4.829   5.313  0.5169  0.1858  0.6189
18978TIP3    H178349   6.495   4.920   5.281  1.7868  0.2430  0.6161
18978TIP3    H278350   6.407   4.810   5.337 -0.9155 -0.3047 -4.1326
18979TIP3   OH278351   1.254   2.498  11.854 -0.0445 -0.2739 -0.2996
18979TIP3    H178352   1.335   2.546  11.840  0.4984 -1.2337 -0.5576
18979TIP3    H278353   1.204   2.510  11.774  0.2617 -0.4510 -0.5222
18980TIP3   OH278354   0.190   5.873  13.030 -0.0251 -0.0612  0.5362
18980TIP3    H178355   0.141   5.885  12.949  0.0535 -1.3809  0.2721
18980TIP3    H278356   0.282   5.867  13.002 -0.0219 -0.7797  0.6814
18981TIP3   OH278357   6.044   6.657  14.402  0.1199 -0.0147  0.2926
18981TIP3    H178358   5.996   6.689  14.479  0.0250 -0.3674  0.3838
18981TIP3    H278359   6.122   6.616  14.438 -0.1509 -0.5845  0.2337
18982TIP3   OH278360   6.248   4.369   5.585 -0.3672 -0.1607  0.3324
18982TIP3    H178361   6.217   4.335   5.501  1.0958 -0.7970  0.0130
18982TIP3    H278362   6.255   4.292   5.641  0.8327 -0.0814  0.3086
18983TIP3   OH278363   3.415   4.345   1.336  0.6742 -0.6675 -0.6160
18983TIP3    H178364   3.413   4.437   1.363 -2.4144 -0.2085 -1.9953
18983TIP3    H278365   3.497   4.312   1.372  0.5878  1.8652  2.3598
18984TIP3   OH278366   0.325   5.003   0.487 -0.5913 -0.2780  0.3269
18984TIP3    H178367   0.273   5.082   0.470 -1.5256 -1.1151 -0.9051
18984TIP3    H278368   0.371   5.022   0.568 -2.6050  0.6519  1.3414
18985TIP3   OH278369   6.497   6.521  16.627 -0.1066 -0.3494  0.4041
18985TIP3    H178370   6.509   6.563  16.712  1.8253 -0.1886  0.0955
18985TIP3    H278371   6.465   6.591  16.570 -2.7563 -0.7539  1.2230
18986TIP3   OH278372   5.093   1.388   4.005  0.1318 -0.1637 -0.4403
18986TIP3    H178373   5.073   1.349   4.090 -2.2186  0.9225 -0.4315
18986TIP3    H278374   5.031   1.347   3.945  1.9763 -1.1539 -1.7553
18987TIP3   OH278375   0.348   0.064   1.914  0.6933  0.2286 -0.0990
18987TIP3    H178376   0.316   0.036   2.000 -2.3029 -2.3620 -1.8191
18987TIP3    H278377   0.309   0.151   1.901 -0.3625 -0.1481  0.4421
18988TIP3   OH278378   6.691   2.296   1.423 -0.0874 -0.3995 -0.2025
18988TIP3    H178379   6.722   2.384   1.442  0.2951  0.0269 -2.5090
18988TIP3    H278380   6.712   2.245   1.502 -0.3934  1.5404  1.2107
18989TIP3   OH278381   1.531   2.519  16.368 -0.3302  0.4963 -0.6039
18989TIP3    H178382   1.567   2.457  16.432  1.1254  1.1307 -0.7634
18989TIP3    H278383   1.514   2.465  16.291  0.5264  0.2086 -0.6025
18990TIP3   OH278384   0.282   6.148  15.132 -0.1873 -0.4279 -0.2572
18990TIP3    H178385   0.208   6.089  15.116 -0.6211 -0.1333  0.6134
18990TIP3    H278386   0.298   6.141  15.226 -0.6811  1.3432 -0.0099
18991TIP3   OH278387   3.147   1.834  14.317 -0.5434  0.5129 -0.0357
18991TIP3    H178388   3.221   1.776  14.301 -0.3041  0.4833  1.0766
18991TIP3    H278389   3.185   1.921  14.322 -0.7097  0.6043 -0.3134
18992TIP3   OH278390   0.804   6.277   4.086  0.1279  0.2927  0.0817
18992TIP3    H178391   0.772   6.367   4.089 -1.2801 -0.1830  3.5523
18992TIP3    H278392   0.732   6.228   4.046 -0.4799  0.2743  1.1708
18993TIP3   OH278393   0.841   2.748  11.383  0.0683 -0.1714 -0.2190
18993TIP3    H178394   0.821   2.717  11.294  0.3732 -1.6320  0.1843
18993TIP3    H278395   0.916   2.805  11.372  1.2962 -1.8026 -0.7388
18994TIP3   OH278396   2.551   5.687   0.887 -0.6935 -0.1107 -0.3047
18994TIP3    H178397   2.501   5.714   0.964 -0.5906 -1.3285  0.2191
18994TIP3    H278398   2.505   5.727   0.813 -2.3049 -0.9686  0.1803
18995TIP3   OH278399   1.872   0.134   1.203 -0.1146 -0.1893  0.2682
18995TIP3    H178400   1.924   0.055   1.191 -1.0489 -0.5053 -2.5220
18995TIP3    H278401   1.909   0.197   1.141 -1.7581  0.2276 -0.3538
18996TIP3   OH278402   4.073   6.394   0.654 -0.2597  0.1845  0.1979
18996TIP3    H178403   4.089   6.391   0.748 -0.4366 -0.0347  0.2231
18996TIP3    H278404   3.994   6.341   0.641  0.1644 -0.3782 -0.1519
18997TIP3   OH278405   2.794   4.790  14.101  0.3447 -0.1807 -0.5778
18997TIP3    H178406   2.747   4.872  14.114  0.7122  0.0413 -0.6498
18997TIP3    H278407   2.882   4.816  14.077  0.5984 -0.5959 -0.1124
18998TIP3   OH278408   2.012   2.145  16.812 -0.2484  0.0246 -0.3704
18998TIP3    H178409   2.035   2.074  16.871 -0.4657  2.0759  2.3821
18998TIP3    H278410   2.090   2.199  16.807 -1.3408  1.8591  1.1707
18999TIP3   OH278411   2.562   4.325  16.270  0.2252 -0.0462  0.3085
18999TIP3    H178412   2.497   4.263  16.236  1.8156 -2.8198  1.9710
18999TIP3    H278413   2.589   4.287  16.354  0.6436  3.4569  1.9274
19000TIP3   OH278414   4.354   3.570   2.269 -0.3046 -0.4940  0.0859
19000TIP3    H178415   4.310   3.537   2.191  2.6789 -1.3857 -1.3748
19000TIP3    H278416   4.371   3.492   2.322 -0.5195 -0.1582  0.6620
19001TIP3   OH278417   6.486   6.036   1.022  0.9989 -0.1179  0.8871
19001TIP3    H178418   6.436   5.987   0.957  1.3364  0.8060 -0.0974
19001TIP3    H278419   6.420   6.071   1.082  0.6313 -0.4512  0.6823
19002TIP3   OH278420   0.918   1.176   2.796 -0.7209  0.3731 -0.0778
19002TIP3    H178421   0.855   1.240   2.765  1.2423  1.0967 -2.9477
19002TIP3    H278422   0.919   1.108   2.730  1.4538  0.4047 -0.1628
19003TIP3   OH278423   1.047   3.391  11.270 -0.0801 -0.1009 -0.4211
19003TIP3    H178424   1.035   3.445  11.348  0.3747  1.1152 -1.1639
19003TIP3    H278425   1.117   3.434  11.221  0.4739 -1.5164 -0.9286
19004TIP3   OH278426   1.051   0.188   6.192 -0.0577  0.0500 -0.0402
19004TIP3    H178427   1.133   0.238   6.194 -0.0314 -0.0003  0.2217
19004TIP3    H278428   1.077   0.099   6.215 -0.1189 -0.0652 -0.4149
19005TIP3   OH278429   5.792   3.786   5.396 -0.5603 -0.4500 -0.4153
19005TIP3    H178430   5.704   3.754   5.379 -1.7070  0.4653  2.9139
19005TIP3    H278431   5.780   3.873   5.433  1.6160 -0.7369  1.2171
19006TIP3   OH278432   0.057   2.646  14.203 -0.2242  0.5097  0.0942
19006TIP3    H178433   0.069   2.650  14.108  0.6166  0.6112  0.1972
19006TIP3    H278434  -0.034   2.674  14.217 -0.8153 -0.8358 -0.7900
19007TIP3   OH278435   1.499   4.135  13.169  0.7405  0.3114 -0.0800
19007TIP3    H178436   1.436   4.064  13.180  1.4627 -0.0466  2.4080
19007TIP3    H278437   1.447   4.214  13.173  0.0467 -0.0069 -1.8950
19008TIP3   OH278438   4.874   5.675  16.332  0.4062 -0.1077 -0.0338
19008TIP3    H178439   4.965   5.645  16.323  0.5058  0.2063 -0.0756
19008TIP3    H278440   4.839   5.622  16.404  1.2707  1.2505  1.4553
19009TIP3   OH278441   2.009   6.749  13.680 -0.0091 -0.3412  0.3491
19009TIP3    H178442   2.041   6.725  13.767 -0.7560  1.4477  1.1741
19009TIP3    H278443   1.942   6.683  13.660 -1.0179  0.1535  1.8927
19010TIP3   OH278444   6.071   0.132   2.301  0.1445  0.1875 -0.5552
19010TIP3    H178445   6.116   0.178   2.371  0.1207  0.5952 -0.8044
19010TIP3    H278446   6.121   0.051   2.289  1.2969  0.9809 -1.3531
19011TIP3   OH278447   6.209   2.230   2.963  0.9160 -0.0437 -0.3380
19011TIP3    H178448   6.211   2.221   3.059 -0.2331  0.2882 -0.2637
19011TIP3    H278449   6.116   2.238   2.942  1.1840  0.3279 -1.4499
19012TIP3   OH278450   4.156   5.930  14.287  0.5182  0.4534  0.4005
19012TIP3    H178451   4.086   5.948  14.225 -0.0769  0.3393  1.0250
19012TIP3    H278452   4.228   5.898  14.233 -0.2388 -0.3547 -0.1573
19013TIP3   OH278453   2.000   4.822   3.807  0.4180  0.2348 -0.7525
19013TIP3    H178454   1.962   4.780   3.885 -0.2816 -0.2311 -1.3258
19013TIP3    H278455   1.997   4.916   3.827  0.7272  0.0939 -0.0091
19014TIP3   OH278456   5.511   2.051  14.886  0.1167 -0.1016  0.1247
19014TIP3    H178457   5.454   2.119  14.921  0.4625  1.1001 -1.5108
19014TIP3    H278458   5.451   1.982  14.856 -0.5311  1.1420 -1.5634
19015TIP3   OH278459   5.959   0.142  12.286  0.0186  0.1545  0.0711
19015TIP3    H178460   5.888   0.087  12.254  0.5813 -1.3309  1.2831
19015TIP3    H278461   6.038   0.102  12.249  0.4539 -0.0162  1.1670
19016TIP3   OH278462   6.527   2.943   3.664 -0.0515 -0.2457 -0.2940
19016TIP3    H178463   6.497   2.938   3.755  1.2442 -0.2493  0.1522
19016TIP3    H278464   6.612   2.897   3.664  0.9829  1.5801 -1.0373
19017TIP3   OH278465   2.884   2.166  12.025 -0.1284  0.0285  0.2095
19017TIP3    H178466   2.842   2.141  12.107 -1.9186  0.6064 -0.4813
19017TIP3    H278467   2.964   2.114  12.022  1.5720  2.1090  3.7068
19018TIP3   OH278468   2.745   4.407   1.027 -0.4566 -0.0436  0.0139
19018TIP3    H178469   2.756   4.360   0.944 -0.6578 -2.1438  1.1082
19018TIP3    H278470   2.651   4.405   1.043 -0.7139  2.4600 -0.8107
19019TIP3   OH278471   3.755   3.289  15.405  0.0413  0.0833  0.1713
19019TIP3    H178472   3.720   3.301  15.493 -0.4030 -2.1296  0.3661
19019TIP3    H278473   3.842   3.250  15.418  0.0041 -0.1892 -0.3431
19020TIP3   OH278474   1.146   4.262   5.335 -0.3272 -0.0662  0.0953
19020TIP3    H178475   1.223   4.208   5.350  0.0028  0.0794 -1.0470
19020TIP3    H278476   1.177   4.352   5.347 -0.6613 -0.0623  1.0496
19021TIP3   OH278477   5.452   4.155   4.333 -0.0383 -0.2330 -0.6864
19021TIP3    H178478   5.394   4.132   4.406 -1.0037  0.2995 -1.2748
19021TIP3    H278479   5.525   4.201   4.374 -0.2513 -0.5021  0.0121
19022TIP3   OH278480   1.355   3.596  11.850 -0.2866  0.2589  0.0852
19022TIP3    H178481   1.404   3.537  11.908 -0.1714 -2.0179 -2.1640
19022TIP3    H278482   1.413   3.671  11.838  1.5514 -1.1319 -0.3412
19023TIP3   OH278483   2.408   3.178  11.929  0.6746  0.2495  0.1745
19023TIP3    H178484   2.448   3.205  12.011 -1.1033  1.1854  0.7781
19023TIP3    H278485   2.416   3.255  11.872 -0.2047  0.4339  0.2906
19024TIP3   OH278486   1.944   1.533  11.035  0.2000  0.4374  0.3455
19024TIP3    H178487   1.971   1.543  10.944  1.7296  0.9479  0.8264
19024TIP3    H278488   1.886   1.456  11.035 -1.5863  1.7021 -1.3837
19025TIP3   OH278489   4.759   1.199   5.228  0.0559 -0.5199 -0.0015
19025TIP3    H178490   4.691   1.139   5.199  0.8805 -0.5248 -2.0656
19025TIP3    H278491   4.827   1.143   5.265  0.1914 -0.7471 -0.5899
19026TIP3   OH278492   6.621   1.112  12.459 -0.5328  0.3367  0.1255
19026TIP3    H178493   6.657   1.201  12.451  0.1987  0.1241  0.8599
19026TIP3    H278494   6.542   1.123  12.511 -0.2415  0.5271  0.5415
19027TIP3   OH278495   6.492   3.268   4.434 -0.0148 -0.6216 -0.2317
19027TIP3    H178496   6.470   3.234   4.520  2.1053  1.4633  1.2730
19027TIP3    H278497   6.567   3.326   4.450 -0.2847  0.7539 -3.2916
19028TIP3   OH278498   5.381   2.040  16.513  0.2634 -0.2297  0.0773
19028TIP3    H178499   5.431   1.962  16.538  0.1543 -0.3200  0.0204
19028TIP3    H278500   5.408   2.058  16.423  2.5813  1.6166  1.0357
19029TIP3   OH278501   3.571   6.683  14.784 -0.4275 -0.4603  0.2995
19029TIP3    H178502   3.656   6.685  14.827 -0.7035 -0.3579  0.8517
19029TIP3    H278503   3.512   6.645  14.849 -0.4784 -2.1390 -0.6656
19030TIP3   OH278504   3.570   2.103  12.146 -0.6186  0.3207 -0.1310
19030TIP3    H178505   3.579   2.083  12.052 -0.4504 -1.8704  0.2945
19030TIP3    H278506   3.657   2.083  12.183 -0.1946  2.7199  0.2812
19031TIP3   OH278507   0.955   3.146   4.130 -1.1174  0.1091 -0.5730
19031TIP3    H178508   0.999   3.229   4.110 -0.3547 -0.2641 -0.5020
19031TIP3    H278509   1.022   3.080   4.114 -0.8873 -0.3240  1.8083
19032TIP3   OH278510   3.322   2.572  10.556  0.5560 -0.1410  0.5237
19032TIP3    H178511   3.256   2.531  10.499  1.7869 -1.2829 -0.1497
19032TIP3    H278512   3.361   2.499  10.603  2.6072  0.2459 -0.4719
19033TIP3   OH278513   4.594   1.040   3.769 -0.7697  0.6602 -0.3217
19033TIP3    H178514   4.683   1.011   3.789 -1.3447 -0.3131  0.9978
19033TIP3    H278515   4.562   1.075   3.852 -2.0878 -0.3327 -0.3813
19034TIP3   OH278516   5.077   2.967  12.743  0.0343 -0.0298  0.0254
19034TIP3    H178517   5.092   2.930  12.830 -1.6382 -0.7004  0.0754
19034TIP3    H278518   5.140   2.922  12.686  1.9013  1.2060  1.0272
19035TIP3   OH278519   3.452   1.894   3.475  0.2702 -0.7415 -0.0484
19035TIP3    H178520   3.536   1.890   3.520  0.7292 -0.6037 -0.8834
19035TIP3    H278521   3.446   1.983   3.442 -2.0284  0.6131  3.4039
19036TIP3   OH278522   6.431   4.587  13.005  0.1884 -0.8538 -0.4820
19036TIP3    H178523   6.378   4.514  13.037 -1.2693  0.1317 -0.5560
19036TIP3    H278524   6.367   4.651  12.974  1.3529  1.0620  0.8564
19037TIP3   OH278525   2.963   3.049   4.345  0.1891 -0.3646  0.5778
19037TIP3    H178526   3.010   2.977   4.388 -0.1698 -1.1793 -0.3637
19037TIP3    H278527   2.907   3.006   4.281  0.4168  0.7964 -0.4368
19038TIP3   OH278528   2.436   3.175   5.979  0.0514 -0.3948  0.8489
19038TIP3    H178529   2.375   3.102   5.963 -2.9770  1.2958  3.4575
19038TIP3    H278530   2.458   3.167   6.072 -1.0674  2.3776  1.4457
19039TIP3   OH278531   0.699   1.277   3.952  0.5348 -0.3493  0.0876
19039TIP3    H178532   0.730   1.201   4.002  3.9158  1.2647  0.7602
19039TIP3    H278533   0.737   1.265   3.865  1.9875  0.9526  0.4880
19040TIP3   OH278534   5.707   3.590  13.637 -0.4491  0.0121  0.3944
19040TIP3    H178535   5.689   3.498  13.656 -0.6315 -0.3606 -1.3657
19040TIP3    H278536   5.642   3.639  13.687 -0.4128 -0.8256  1.2726
19041TIP3   OH278537   2.575   5.992  11.555  0.8399 -0.2289 -0.4891
19041TIP3    H178538   2.491   5.968  11.516  1.5795 -2.1060 -1.0157
19041TIP3    H278539   2.623   6.033  11.484  0.7240 -0.0206 -0.4484
19042TIP3   OH278540   1.768   1.308   3.190 -0.5061  0.8499  0.1513
19042TIP3    H178541   1.709   1.236   3.214 -0.8173  0.8461 -0.5729
19042TIP3    H278542   1.849   1.265   3.163  0.6387  0.9240  3.1056
19043TIP3   OH278543   1.789   3.643   1.027 -0.8845 -0.2046  0.1964
19043TIP3    H178544   1.741   3.637   1.109  0.0497  0.1829  0.7810
19043TIP3    H278545   1.874   3.605   1.046 -0.1240  1.2605 -0.1537
19044TIP3   OH278546   5.297   3.109   2.559  0.0236  0.1596 -0.6105
19044TIP3    H178547   5.305   3.028   2.508 -0.4101 -0.0655 -0.3234
19044TIP3    H278548   5.299   3.178   2.493 -1.1021 -0.1523 -0.9923
19045TIP3   OH278549   4.873   5.007  13.607  0.3372  0.3539 -0.3883
19045TIP3    H178550   4.942   5.022  13.541 -0.1565  1.4251 -0.6872
19045TIP3    H278551   4.920   4.976  13.684  1.2334  1.5377 -0.4248
19046TIP3   OH278552   3.073   5.012   4.452 -0.0168 -0.4255 -0.2279
19046TIP3    H178553   3.128   5.086   4.424 -0.4869 -0.4108 -1.1314
19046TIP3    H278554   2.984   5.048   4.454  0.0546 -0.2329  1.9945
19047TIP3   OH278555   1.237   6.723  12.541 -0.4346  0.2877  0.0781
19047TIP3    H178556   1.191   6.683  12.466 -1.2632  0.9856  0.1973
19047TIP3    H278557   1.301   6.657  12.567 -1.8942 -1.0820  0.3928
19048TIP3   OH278558   4.574   0.813   5.236  0.0574  0.3416 -0.0665
19048TIP3    H178559   4.551   0.731   5.193 -1.2824  0.6693 -0.0189
19048TIP3    H278560   4.661   0.798   5.272 -0.1748 -1.0486 -0.0505
19049TIP3   OH278561   0.591   4.326  11.551 -0.5078  0.4773  0.4929
19049TIP3    H178562   0.517   4.355  11.604  0.1204  2.4265  0.3870
19049TIP3    H278563   0.615   4.403  11.499  0.2444 -0.7414 -1.0529
19050TIP3   OH278564   0.608   6.666   3.906 -0.1617 -0.2898  0.4837
19050TIP3    H178565   0.574   6.750   3.937  0.5013  0.5117 -0.8981
19050TIP3    H278566   0.698   6.684   3.880  0.0400 -1.4761  0.2909
19051TIP3   OH278567   6.133   1.365  15.986 -0.1344  0.1320 -0.2351
19051TIP3    H178568   6.165   1.386  16.074 -0.5767  2.4089 -0.5630
19051TIP3    H278569   6.038   1.375  15.992 -0.0510  2.0474 -1.3433
19052TIP3   OH278570   6.605   2.408  10.514  0.1285 -0.1223  0.7358
19052TIP3    H178571   6.587   2.441  10.602 -0.1346  2.3993 -0.1817
19052TIP3    H278572   6.519   2.378  10.482 -0.5961  2.3756  0.0875
19053TIP3   OH278573   0.528   5.996  15.225 -0.1524 -0.1601 -0.2740
19053TIP3    H178574   0.518   6.062  15.156 -0.1342  1.7321  1.4502
19053TIP3    H278575   0.622   5.983  15.233 -0.1333 -0.0596 -0.3340
19054TIP3   OH278576   1.748   1.167  14.592  0.8558 -0.6926 -0.3784
19054TIP3    H178577   1.734   1.088  14.644  1.3758 -2.2220 -2.4285
19054TIP3    H278578   1.685   1.159  14.520  0.1482  1.3533 -0.0487
19055TIP3   OH278579   5.881   4.978   1.962  0.6477 -0.0208  0.3155
19055TIP3    H178580   5.799   4.960   1.917 -1.5830  3.6057  2.4327
19055TIP3    H278581   5.896   4.901   2.016 -2.1100 -0.3304  0.7921
19056TIP3   OH278582   5.485   6.271   0.172  0.2520  0.2050  0.1032
19056TIP3    H178583   5.562   6.325   0.157  1.5148 -1.1813  1.3079
19056TIP3    H278584   5.447   6.306   0.253  0.0076  0.4331 -0.1071
19057TIP3   OH278585   4.481   3.581  12.945 -0.0396 -0.1505 -0.2483
19057TIP3    H178586   4.554   3.584  12.883 -0.1911  1.8148 -0.3999
19057TIP3    H278587   4.403   3.597  12.891 -0.2502  0.8152  0.3274
19058TIP3   OH278588   4.218   6.043   3.389  0.5920  0.1614 -0.5722
19058TIP3    H178589   4.290   6.080   3.440  0.6354  2.3105 -2.0534
19058TIP3    H278590   4.145   6.038   3.451  1.0815  1.2137  0.1195
19059TIP3   OH278591   2.128   4.174   5.457  0.0094 -0.1548  0.2418
19059TIP3    H178592   2.069   4.220   5.517 -0.8757 -0.8443 -0.0746
19059TIP3    H278593   2.157   4.097   5.506 -0.9517 -0.8800 -0.2965
19060TIP3   OH278594   3.890   1.232  10.735  0.7198 -0.1069  0.6719
19060TIP3    H178595   3.982   1.253  10.719  0.8565  0.5402  2.1485
19060TIP3    H278596   3.870   1.274  10.819 -0.9212 -0.2565  0.3858
19061TIP3   OH278597   0.607   1.850   4.857  0.0333  0.2394  0.1411
19061TIP3    H178598   0.690   1.830   4.900  0.0783  1.4050  0.6315
19061TIP3    H278599   0.541   1.842   4.926 -0.0409  0.9253  0.1635
19062TIP3   OH278600   2.188   6.388  15.407  0.0691  0.7622 -0.1072
19062TIP3    H178601   2.118   6.344  15.358  0.3517  1.4234 -1.1321
19062TIP3    H278602   2.235   6.439  15.341 -0.2617  2.6458  1.0344
19063TIP3   OH278603   2.512   5.933   1.129 -0.2652  0.0361 -0.1998
19063TIP3    H178604   2.459   5.920   1.050  0.2737  0.4559 -0.6371
19063TIP3    H278605   2.448   5.935   1.200 -0.8121  0.2162 -0.6869
19064TIP3   OH278606   3.833   4.240   5.671  0.0445  0.6042  0.5374
19064TIP3    H178607   3.788   4.285   5.743  1.1049  0.4491  1.3274
19064TIP3    H278608   3.905   4.298   5.648 -0.4563  0.7845 -0.6193
19065TIP3   OH278609   1.929   0.951  11.067 -0.0863  0.0290  0.4497
19065TIP3    H178610   1.976   1.032  11.046  1.2839 -1.3475 -2.1995
19065TIP3    H278611   1.975   0.916  11.144  0.6702  0.6908  0.3116
19066TIP3   OH278612   6.167   0.894  10.795  0.0628  0.5795 -0.1959
19066TIP3    H178613   6.097   0.828  10.796  0.2221  0.4120  0.3234
19066TIP3    H278614   6.243   0.849  10.830  0.1495  1.0618  0.2642
19067TIP3   OH278615   0.153   0.957   5.725  0.7412 -0.3919  0.5818
19067TIP3    H178616   0.218   0.964   5.795 -0.0649 -0.2376  1.3214
19067TIP3    H278617   0.071   0.938   5.770 -0.0201  0.8969 -0.2227
19068TIP3   OH278618   5.599   3.997  14.925  0.1168 -0.1734 -0.0740
19068TIP3    H178619   5.575   3.906  14.938 -0.4953 -0.0912 -0.5782
19068TIP3    H278620   5.571   4.016  14.835  1.8066  0.0074 -0.6047
19069TIP3   OH278621   4.927   5.493  13.436 -0.2916  0.0144 -0.0050
19069TIP3    H178622   4.979   5.551  13.380 -1.8757 -0.3077 -1.9681
19069TIP3    H278623   4.866   5.552  13.481 -0.4678  0.0835 -0.3305
19070TIP3   OH278624   1.200   1.856  11.458 -0.0322 -0.7016 -0.3788
19070TIP3    H178625   1.236   1.863  11.370  0.3999  1.1387 -0.1022
19070TIP3    H278626   1.246   1.923  11.508 -1.3811 -0.6326  0.8525
19071TIP3   OH278627   6.516   1.651   5.585 -0.2515 -0.3019 -0.2648
19071TIP3    H178628   6.551   1.562   5.580  0.1321 -0.2626  1.3978
19071TIP3    H278629   6.500   1.666   5.678  1.6629  2.1088 -0.2319
19072TIP3   OH278630   5.825   6.044  12.108  0.8607  0.4154  0.5564
19072TIP3    H178631   5.903   6.062  12.162 -0.2648  0.2637  2.2946
19072TIP3    H278632   5.834   6.104  12.034  2.2990  0.8885  1.0743
19073TIP3   OH278633   0.163   2.496  14.408 -0.0958  0.9090 -0.5774
19073TIP3    H178634   0.136   2.577  14.366  0.2793  0.9558 -0.7342
19073TIP3    H278635   0.211   2.524  14.486  0.4273  0.8553 -0.8701
19074TIP3   OH278636   3.570   4.008   5.660  0.3761 -0.1699 -0.3540
19074TIP3    H178637   3.559   4.057   5.742 -0.0684 -1.2647  0.2507
19074TIP3    H278638   3.567   4.076   5.592 -0.8149  0.5923  0.4150
19075TIP3   OH278639   3.604   2.488  11.499 -0.2907  0.3765 -0.2973
19075TIP3    H178640   3.670   2.438  11.449  1.5342  1.2893  1.0909
19075TIP3    H278641   3.625   2.580  11.482  1.6740  0.8246  3.5099
19076TIP3   OH278642   4.675   2.921   2.758 -0.0852 -0.4384 -0.6492
19076TIP3    H178643   4.753   2.956   2.799  0.4641  0.4401 -2.3619
19076TIP3    H278644   4.649   2.848   2.814  0.8843  0.4086  0.9523
19077TIP3   OH278645   4.228   3.309   1.409  0.1634  0.1949  0.3523
19077TIP3    H178646   4.298   3.356   1.364  0.4005 -0.3013  0.1923
19077TIP3    H278647   4.272   3.238   1.455 -0.4100 -1.3052 -1.3065
19078TIP3   OH278648   2.577   4.254   1.366  0.4707  0.2457 -0.0830
19078TIP3    H178649   2.594   4.322   1.431  2.2188 -0.1901 -0.0473
19078TIP3    H278650   2.664   4.224   1.338 -0.2466 -1.5429 -0.5456
19079TIP3   OH278651   0.223   0.436   2.560  0.3820 -0.6526  0.1922
19079TIP3    H178652   0.314   0.461   2.541  0.2645 -0.8785 -0.6917
19079TIP3    H278653   0.170   0.499   2.513  0.0826 -1.5538 -0.7165
19080TIP3   OH278654   0.569   6.234  12.355  0.2424  0.2082  0.0462
19080TIP3    H178655   0.617   6.308  12.317 -2.0000  1.4494 -0.5456
19080TIP3    H278656   0.518   6.199  12.283 -0.0976 -0.7683  0.7437
19081TIP3   OH278657   0.156   3.987   4.587 -0.1828  0.5782  0.4782
19081TIP3    H178658   0.089   3.945   4.640 -0.3462  1.9769  1.4269
19081TIP3    H278659   0.228   3.925   4.584 -0.5853  0.0613  1.4784
19082TIP3   OH278660   6.451   3.327   6.425 -0.2679  0.0621 -0.1883
19082TIP3    H178661   6.361   3.358   6.431  0.0835  1.0454  0.2275
19082TIP3    H278662   6.452   3.269   6.349 -1.4936 -0.8197  0.4324
19083TIP3   OH278663   2.191   0.128  16.023 -0.2553 -0.6622 -0.2851
19083TIP3    H178664   2.172   0.077  16.101  1.2771  0.6632  1.0476
19083TIP3    H278665   2.279   0.102  15.998  1.2037  2.1576  1.3089
19084TIP3   OH278666   2.062   1.819  12.424 -0.4544 -0.3146  0.0400
19084TIP3    H178667   2.015   1.783  12.348 -0.2397 -0.1417 -0.1790
19084TIP3    H278668   2.135   1.867  12.385 -2.6216  3.3820  0.0460
19085TIP3   OH278669   2.918   5.262   3.608 -0.5435 -0.5550  0.9911
19085TIP3    H178670   2.986   5.203   3.577 -0.9038 -0.6211  0.3057
19085TIP3    H278671   2.918   5.251   3.704  2.2166  1.4467  1.3212
19086TIP3   OH278672   4.329   5.681   2.261  0.4666 -0.0237  0.0635
19086TIP3    H178673   4.417   5.690   2.298  0.8543 -2.4645 -0.0471
19086TIP3    H278674   4.299   5.770   2.247  3.2230  0.9011 -0.6024
19087TIP3   OH278675   4.636   2.513   0.290  0.0479  0.0066  0.5018
19087TIP3    H178676   4.583   2.498   0.211 -0.1613 -1.4917  0.8821
19087TIP3    H278677   4.702   2.444   0.287 -0.7798 -0.9109  2.2820
19088TIP3   OH278678   6.172   3.418   0.331 -0.6977  0.3193 -0.0908
19088TIP3    H178679   6.091   3.469   0.335 -0.3387  0.8515  0.8008
19088TIP3    H278680   6.238   3.474   0.373 -0.2265 -0.7450  0.6489
19089TIP3   OH278681   2.356   2.343  13.811 -0.3791  0.0140  0.3811
19089TIP3    H178682   2.367   2.377  13.900  4.2482 -0.4750  0.2421
19089TIP3    H278683   2.427   2.384  13.761 -3.3671  1.0779 -3.5123
19090TIP3   OH278684   6.546   4.819  14.303  0.2434 -0.3085 -0.0208
19090TIP3    H178685   6.459   4.843  14.336  0.7489  1.1687  0.3187
19090TIP3    H278686   6.590   4.780  14.379  0.2265 -0.1290  0.0808
19091TIP3   OH278687   3.524   3.784  16.135 -0.2722  0.8629  0.1733
19091TIP3    H178688   3.580   3.857  16.162  1.1633  0.0862 -0.6260
19091TIP3    H278689   3.497   3.807  16.046 -1.4629  1.3296  0.6171
19092TIP3   OH278690   1.447   2.016  14.284  0.0748 -0.1574  0.0409
19092TIP3    H178691   1.378   2.079  14.264  1.2215  0.8788 -0.7957
19092TIP3    H278692   1.401   1.933  14.297 -1.5146  0.8702  1.4430
19093TIP3   OH278693   3.487   6.483   2.705  0.0027 -0.5387 -0.3012
19093TIP3    H178694   3.403   6.468   2.749  0.1598 -0.4181  0.0472
19093TIP3    H278695   3.477   6.443   2.619  0.4821 -2.9255  0.6630
19094TIP3   OH278696   2.516   4.005  12.872  0.2975 -0.5009 -0.5785
19094TIP3    H178697   2.502   4.089  12.828  1.5910 -0.7273 -1.5131
19094TIP3    H278698   2.573   3.956  12.811  1.3826 -1.1946  0.9330
19095TIP3   OH278699   0.510   3.046  15.996  0.0868  0.0618  0.3950
19095TIP3    H178700   0.602   3.072  15.993  0.2251 -0.4202  0.4424
19095TIP3    H278701   0.497   2.993  15.918  0.8241 -3.0071  2.1977
19096TIP3   OH278702   0.888   0.651  13.577  0.5051  0.5113 -0.0798
19096TIP3    H178703   0.867   0.710  13.649  1.9289  1.2570 -0.2328
19096TIP3    H278704   0.954   0.698  13.526  0.9117 -0.7759 -0.7986
19097TIP3   OH278705   2.889   5.613   0.327 -0.1188 -0.3165 -0.3977
19097TIP3    H178706   2.967   5.644   0.373  1.1598 -1.2082 -1.8423
19097TIP3    H278707   2.856   5.690   0.281  0.7310 -0.2152 -0.8590
19098TIP3   OH278708   1.559   5.457   1.538  0.2539  0.2200  0.0347
19098TIP3    H178709   1.523   5.368   1.532  0.6326  0.1483 -2.5593
19098TIP3    H278710   1.484   5.512   1.562  0.2945 -0.8870  3.0674
19099TIP3   OH278711   1.968   1.892   3.927  0.6657 -0.0474 -0.1595
19099TIP3    H178712   1.994   1.984   3.918  0.9288 -0.1996 -1.1129
19099TIP3    H278713   1.974   1.875   4.020 -0.8935  1.3266  0.2461
19100TIP3   OH278714   4.900   2.335   5.684  0.1970 -0.3175 -0.3442
19100TIP3    H178715   4.846   2.360   5.608 -1.2763 -0.0597  0.7344
19100TIP3    H278716   4.836   2.307   5.750  0.9791  3.6854  2.4547
19101TIP3   OH278717   1.109   1.698   5.293  0.3667 -0.2946  0.1332
19101TIP3    H178718   1.122   1.671   5.202  1.3600 -2.5437  0.8696
19101TIP3    H278719   1.042   1.638   5.326 -1.6599  1.9349  0.3555
19102TIP3   OH278720   5.951   4.155   4.522  0.0022  0.2753  0.5166
19102TIP3    H178721   5.994   4.154   4.437  2.4129 -2.3977  1.6109
19102TIP3    H278722   5.873   4.100   4.510  0.7868 -0.7963  0.1945
19103TIP3   OH278723   5.357   4.453  11.198  0.1260  0.5341 -0.1598
19103TIP3    H178724   5.271   4.487  11.226 -0.6481 -0.3956 -1.3158
19103TIP3    H278725   5.385   4.398  11.271 -0.1920  0.9551  0.2897
19104TIP3   OH278726   5.612   0.652  16.419 -0.2386 -0.0920  0.6704
19104TIP3    H178727   5.603   0.558  16.433  0.4222 -0.5790 -1.6893
19104TIP3    H278728   5.524   0.687  16.429 -0.7901 -1.2383 -0.0183
19105TIP3   OH278729   1.517   3.039   5.520 -0.3461  0.0052  0.0641
19105TIP3    H178730   1.423   3.024   5.516 -0.5167  1.1791 -1.6423
19105TIP3    H278731   1.527   3.114   5.579 -0.4364 -0.4571  0.6641
19106TIP3   OH278732   6.484   2.431  12.477 -0.7548 -0.1564  0.0625
19106TIP3    H178733   6.422   2.429  12.549 -2.2234  0.0076 -1.1468
19106TIP3    H278734   6.445   2.491  12.413  0.9708  0.4751 -0.4629
19107TIP3   OH278735   3.467   1.643  10.193 -0.0161 -0.4732  0.4021
19107TIP3    H178736   3.450   1.565  10.140  1.1188 -0.3661 -0.1499
19107TIP3    H278737   3.522   1.611  10.265 -1.0263 -0.4983  1.1823
19108TIP3   OH278738   5.012   3.508   4.384 -0.1364  0.2417  0.5042
19108TIP3    H178739   5.079   3.441   4.369 -0.0660 -0.0024  1.8047
19108TIP3    H278740   4.957   3.473   4.454 -0.9262  0.9544  0.2594
19109TIP3   OH278741   6.682   0.873   1.546  0.2059 -0.0014  0.1937
19109TIP3    H178742   6.640   0.911   1.623  0.6597 -0.0823  0.4881
19109TIP3    H278743   6.758   0.826   1.581  0.9710  0.7748 -0.3882
19110TIP3   OH278744   1.133   4.225   0.970  0.3009  0.1219  0.3539
19110TIP3    H178745   1.177   4.187   1.046  3.1283 -1.0500 -1.7162
19110TIP3    H278746   1.106   4.151   0.917  0.5984  0.9089 -0.9541
19111TIP3   OH278747   0.073   4.747   2.387  0.0824 -0.2771  0.4118
19111TIP3    H178748   0.007   4.727   2.453 -1.4392 -0.0017 -0.9644
19111TIP3    H278749   0.041   4.827   2.345  0.8809 -0.5869 -0.8278
19112TIP3   OH278750   4.078   6.190   2.051  0.0742  0.5229 -0.4921
19112TIP3    H178751   3.998   6.242   2.052  0.1725  0.6751 -0.0412
19112TIP3    H278752   4.049   6.101   2.073  0.1787  0.8241  0.9712
19113TIP3   OH278753   3.343   5.906   0.376 -0.2497 -0.1401 -0.0904
19113TIP3    H178754   3.391   5.964   0.435  0.6582 -2.5755  1.7562
19113TIP3    H278755   3.411   5.868   0.320 -0.5698 -0.7387 -0.0785
19114TIP3   OH278756   1.630   4.211   5.823  0.0544 -1.4354 -0.0624
19114TIP3    H178757   1.697   4.233   5.759 -0.6351  0.0131 -0.3307
19114TIP3    H278758   1.664   4.133   5.867  2.2608 -0.3513  0.3125
19115TIP3   OH278759   1.920   4.383   0.931  0.7874  0.0291  0.2813
19115TIP3    H178760   1.979   4.436   0.878 -1.6431  2.2815 -0.3850
19115TIP3    H278761   1.874   4.327   0.868  0.4986  0.0345  0.4820
19116TIP3   OH278762   6.293   5.043   3.181  0.2386  0.2079  0.3500
19116TIP3    H178763   6.217   5.099   3.196  0.2302 -0.3148  2.6841
19116TIP3    H278764   6.358   5.101   3.141 -1.1334  0.8105 -1.1239
19117TIP3   OH278765   4.490   4.761   6.128  0.1452 -0.3574 -0.5634
19117TIP3    H178766   4.506   4.780   6.220  0.4429 -1.5860 -0.3442
19117TIP3    H278767   4.396   4.775   6.117  0.2328  0.5353 -0.2679
19118TIP3   OH278768   2.551   6.703  14.070 -0.3033  0.4481 -0.0280
19118TIP3    H178769   2.463   6.690  14.034 -0.4418 -0.8070  0.7077
19118TIP3    H278770   2.598   6.622  14.047  0.0932  0.3216  1.1683
19119TIP3   OH278771   6.071   0.299  17.081  0.7410 -0.2642  0.4330
19119TIP3    H178772   6.030   0.212  17.087 -0.3656  0.1893 -0.3432
19119TIP3    H278773   6.149   0.284  17.027 -0.1346 -0.5512 -0.7886
19120TIP3   OH278774   2.341   6.438   4.215  0.6373 -0.0735 -0.0379
19120TIP3    H178775   2.382   6.521   4.236  0.6312  0.0892 -0.6691
19120TIP3    H278776   2.247   6.456   4.219  0.6160  0.3430 -1.6312
19121TIP3   OH278777   0.639   0.630   1.952 -0.4633  0.1331 -0.8129
19121TIP3    H178778   0.656   0.715   1.991 -1.0930  0.5046 -1.3172
19121TIP3    H278779   0.543   0.623   1.952 -0.4950  0.2097 -2.3941
19122TIP3   OH278780   2.707   6.447   2.526 -0.1500 -0.0961 -0.0635
19122TIP3    H178781   2.717   6.474   2.435  0.8521  0.0645  0.0818
19122TIP3    H278782   2.783   6.391   2.543 -1.0547 -1.2567  0.2813
19123TIP3   OH278783   6.590   6.435   4.274 -0.2462  0.5460 -0.2352
19123TIP3    H178784   6.497   6.434   4.252  0.2414 -0.3546 -2.4523
19123TIP3    H278785   6.592   6.428   4.370 -2.4374  0.0938 -0.1808
19124TIP3   OH278786   5.213   0.756   0.832  0.2866  0.0129  0.0714
19124TIP3    H178787   5.193   0.699   0.906 -0.8518  0.1880 -0.0842
19124TIP3    H278788   5.308   0.765   0.833  0.4752 -1.7009  0.2392
19125TIP3   OH278789   4.826   4.947  12.560 -0.1307  0.4064  0.0953
19125TIP3    H178790   4.789   4.880  12.619 -1.3464 -1.4832 -2.6180
19125TIP3    H278791   4.757   5.012  12.551  0.5185  1.3620  1.6200
19126TIP3   OH278792   3.127   5.242  10.362 -0.1710 -0.2148  0.1242
19126TIP3    H178793   3.132   5.182  10.435 -0.0267  0.6513  0.8421
19126TIP3    H278794   3.102   5.326  10.401  1.3171  0.6200 -0.5850
19127TIP3   OH278795   1.194   1.258  14.872 -0.4024 -0.2559 -0.1659
19127TIP3    H178796   1.125   1.240  14.807 -0.0204 -0.4360 -0.5282
19127TIP3    H278797   1.239   1.335  14.838  0.3565 -0.8694 -0.5811
19128TIP3   OH278798   5.132   5.527   5.641 -0.3342 -0.2739  0.8236
19128TIP3    H178799   5.152   5.616   5.613 -0.9763 -0.2657  0.3708
19128TIP3    H278800   5.217   5.486   5.655 -0.0142  0.0405 -0.1523
19129TIP3   OH278801   3.190   6.238  12.792 -0.2659  0.0823  0.4104
19129TIP3    H178802   3.239   6.260  12.871 -0.5006 -0.0970  0.6083
19129TIP3    H278803   3.199   6.143  12.784  0.2680  0.1783 -0.1218
19130TIP3   OH278804   2.503   1.605  12.522 -0.0793 -0.1833 -0.1404
19130TIP3    H178805   2.579   1.660  12.504 -0.7025  0.3806 -1.1859
19130TIP3    H278806   2.535   1.515  12.514  0.8568  0.0149  1.1837
19131TIP3   OH278807   4.835   2.568   4.893  0.0272  0.2439  0.8040
19131TIP3    H178808   4.902   2.574   4.825  0.4103 -1.2417  1.0154
19131TIP3    H278809   4.817   2.659   4.916  1.3661  0.7083  0.1622
19132TIP3   OH278810   3.445   6.457   6.110 -0.3157 -0.1524  0.3735
19132TIP3    H178811   3.386   6.513   6.162  0.1416  0.3017  0.4099
19132TIP3    H278812   3.520   6.513   6.092 -0.1356 -0.5592 -0.1338
19133TIP3   OH278813   6.512   3.400  15.316  0.3572 -0.3034  0.8878
19133TIP3    H178814   6.603   3.429  15.305  0.9392 -2.2770  0.0008
19133TIP3    H278815   6.462   3.454  15.255  1.6547 -2.1113 -2.0005
19134TIP3   OH278816   1.584   6.019  12.907 -0.0244 -0.0394 -0.2484
19134TIP3    H178817   1.582   6.036  13.002 -0.7651 -2.2052  0.1774
19134TIP3    H278818   1.677   6.002  12.889  0.1232  0.3834  0.0808
19135TIP3   OH278819   0.976   0.614  16.750  0.0109 -0.2313 -0.5186
19135TIP3    H178820   0.899   0.566  16.719 -0.1548 -0.2343 -0.1041
19135TIP3    H278821   0.947   0.659  16.829  0.6430 -0.8799  0.1053
19136TIP3   OH278822   2.090   3.075  14.867  0.0378 -0.2112 -0.1754
19136TIP3    H178823   1.999   3.081  14.899  0.8404 -0.9113  2.5662
19136TIP3    H278824   2.118   2.987  14.892  1.4484 -0.0669 -1.1238
19137TIP3   OH278825   3.939   3.987   1.718  0.2016  0.4792  0.4692
19137TIP3    H178826   3.959   3.936   1.797  3.1579 -0.6308 -0.8403
19137TIP3    H278827   3.991   3.945   1.649  0.4268  3.4718 -1.3495
19138TIP3   OH278828   0.397   3.684  13.727  0.1861  0.1210  0.7507
19138TIP3    H178829   0.475   3.705  13.677  1.3408 -0.9702  1.9882
19138TIP3    H278830   0.340   3.638  13.666  0.6046  0.7270 -0.1087
19139TIP3   OH278831   6.012   1.624  15.448  0.3470 -0.1663  0.3730
19139TIP3    H178832   6.057   1.627  15.364  0.1040 -0.4037  0.2348
19139TIP3    H278833   6.064   1.681  15.505  1.3672 -1.1708  0.4779
19140TIP3   OH278834   2.070   3.094  10.581  0.5616  0.1407 -0.6395
19140TIP3    H178835   2.086   3.000  10.591  0.7890  0.3484  1.3635
19140TIP3    H278836   2.154   3.130  10.551  1.0562 -0.0568  0.4714
19141TIP3   OH278837   2.638   1.921   4.813 -0.0791  0.0991  0.2740
19141TIP3    H178838   2.648   1.838   4.766  0.3112 -0.0836  0.6680
19141TIP3    H278839   2.573   1.970   4.762  0.1832 -0.1742 -0.3369
19142TIP3   OH278840   0.724   2.015  15.115 -0.7141 -0.1069  0.4620
19142TIP3    H178841   0.711   2.073  15.190  0.7943 -0.7986  1.2993
19142TIP3    H278842   0.753   2.073  15.045 -2.6043  0.6217  0.2201
19143TIP3   OH278843   1.394   1.953   1.706 -0.1507 -0.0433  0.4178
19143TIP3    H178844   1.474   1.955   1.653 -0.8954  0.8363 -0.7208
19143TIP3    H278845   1.405   2.025   1.769 -0.5265  0.8783 -0.5269
19144TIP3   OH278846   1.137   3.372  12.903  0.2207  0.1525 -0.4217
19144TIP3    H178847   1.205   3.341  12.844 -0.5582 -0.7130 -0.8885
19144TIP3    H278848   1.106   3.293  12.947  0.1683  0.6644  0.4938
19145TIP3   OH278849   0.419   0.368   1.815 -0.0966  0.1340  0.5962
19145TIP3    H178850   0.514   0.371   1.814 -0.1121  1.3369  0.3304
19145TIP3    H278851   0.394   0.419   1.892 -0.5277  1.2188 -0.2267
19146TIP3   OH278852   3.764   4.135  13.417 -0.0170  0.5261  0.8370
19146TIP3    H178853   3.798   4.048  13.393  1.1101  1.1363  0.1058
19146TIP3    H278854   3.681   4.117  13.461 -0.4359 -0.8684 -0.4087
19147TIP3   OH278855   3.740   0.590  14.517  0.0184  0.2608  0.6442
19147TIP3    H178856   3.701   0.601  14.603 -0.0812 -0.2384  0.6644
19147TIP3    H278857   3.799   0.665  14.507 -0.5128  0.7049  0.8473
19148TIP3   OH278858   4.554   1.723  12.576  0.7314  0.4629 -0.0422
19148TIP3    H178859   4.488   1.788  12.551  0.8906  0.0319 -1.6879
19148TIP3    H278860   4.611   1.715  12.499  2.0682  0.0202  0.9435
19149TIP3   OH278861   4.089   6.608   3.466  0.3142 -0.5367  0.6665
19149TIP3    H178862   4.044   6.628   3.548  0.2291 -0.4872  0.6076
19149TIP3    H278863   4.022   6.564   3.413  0.6956 -1.6275  1.0636
19150TIP3   OH278864   6.463   3.152   1.140 -0.0885 -0.7701  0.5496
19150TIP3    H178865   6.452   3.168   1.233 -1.2159 -0.8431  0.4435
19150TIP3    H278866   6.553   3.122   1.131  0.3469  0.2065  1.4714
19151TIP3   OH278867   2.717   4.940   2.008  0.0091  0.1685  0.5244
19151TIP3    H178868   2.723   4.849   1.978 -1.4031 -0.0400  0.8179
19151TIP3    H278869   2.808   4.964   2.027  0.3600 -1.3868  1.0145
19152TIP3   OH278870   5.423   4.364   4.120 -0.3855 -0.1931 -0.5160
19152TIP3    H178871   5.502   4.336   4.075  0.5869  0.1156  0.9309
19152TIP3    H278872   5.418   4.309   4.198 -0.4694  1.1398  0.4579
19153TIP3   OH278873   2.706   3.506   4.176  0.1196 -0.1691 -0.3733
19153TIP3    H178874   2.731   3.431   4.123 -0.8715 -0.8977  0.1563
19153TIP3    H278875   2.770   3.507   4.248  2.5430  1.8250 -2.3381
19154TIP3   OH278876   4.882   6.814  16.632  0.1257  0.3800 -0.1329
19154TIP3    H178877   4.878   6.874  16.558  0.8001  0.4733 -0.1019
19154TIP3    H278878   4.950   6.751  16.608 -2.7088 -2.3852 -1.6435
19155TIP3   OH278879   4.564   6.022   1.554  0.1975  0.1573 -0.4178
19155TIP3    H178880   4.630   5.955   1.538  1.1946  1.5137 -2.4326
19155TIP3    H278881   4.485   5.973   1.575  1.1076 -1.6275 -0.9531
19156TIP3   OH278882   5.094   4.807   5.112 -0.5257 -0.1275 -0.3255
19156TIP3    H178883   5.103   4.715   5.138 -0.0225  0.1787  0.6239
19156TIP3    H278884   5.129   4.810   5.023  1.3986 -0.4940  0.3666
19157TIP3   OH278885   0.489   1.344   1.271  0.1639 -0.2612 -0.7966
19157TIP3    H178886   0.509   1.258   1.235 -0.6069 -1.9312  2.3977
19157TIP3    H278887   0.397   1.338   1.298  0.4148  1.1162  0.5305
19158TIP3   OH278888   5.004   5.977   5.059 -0.0959 -0.5907  0.3743
19158TIP3    H178889   4.965   6.012   5.139 -0.9103 -0.2554 -0.1451
19158TIP3    H278890   4.972   5.887   5.053 -0.4056 -0.4727  0.2049
19159TIP3   OH278891   5.781   5.766   4.146 -0.1770  0.2671 -0.6733
19159TIP3    H178892   5.797   5.671   4.143 -1.8692 -0.0951  0.5918
19159TIP3    H278893   5.772   5.786   4.239 -0.7992  1.5022 -0.9793
19160TIP3   OH278894   5.485   6.415  15.955  0.2267  0.4076 -0.3661
19160TIP3    H178895   5.471   6.434  15.862  0.4021 -0.4026 -0.5640
19160TIP3    H278896   5.401   6.437  15.997 -0.5325 -1.0892 -1.0200
19161TIP3   OH278897   3.439   1.422   1.162 -0.2732 -0.2565  0.1297
19161TIP3    H178898   3.503   1.398   1.094  0.4699  0.9566  0.3804
19161TIP3    H278899   3.357   1.435   1.114  0.2052  0.4082 -0.5304
19162TIP3   OH278900   3.049   5.822   5.241  0.1804 -0.0303  0.0423
19162TIP3    H178901   2.971   5.825   5.297 -0.5511  0.1737 -0.9606
19162TIP3    H278902   3.117   5.864   5.293 -0.1129 -1.0696  1.3298
19163TIP3   OH278903   1.989   0.738   2.098  0.1625  0.2112  0.2154
19163TIP3    H178904   1.913   0.795   2.112  0.7314  0.9347  0.4671
19163TIP3    H278905   2.063   0.789   2.132  0.6717 -0.7440  0.5817
19164TIP3   OH278906   4.475   0.429   4.250 -0.0041 -0.3571  0.0129
19164TIP3    H178907   4.390   0.469   4.271  1.1243  1.5279  1.1830
19164TIP3    H278908   4.467   0.339   4.283 -1.9184 -0.5937 -0.9275
19165TIP3   OH278909   2.207   0.861   4.263  0.2607 -0.0869 -0.0976
19165TIP3    H178910   2.204   0.922   4.337  0.8354 -0.4403  0.2228
19165TIP3    H278911   2.191   0.775   4.302  0.3254 -0.2466 -0.4224
19166TIP3   OH278912   1.609   2.281  14.538 -0.5370 -0.3439 -0.3470
19166TIP3    H178913   1.642   2.336  14.467  0.8397 -0.4242  0.2049
19166TIP3    H278914   1.631   2.191  14.512  2.7766 -0.2136  1.4779
19167TIP3   OH278915   3.086   1.177   3.404  0.3330 -0.4970 -0.0409
19167TIP3    H178916   3.100   1.143   3.316 -0.6968  0.6510 -0.6864
19167TIP3    H278917   2.994   1.201   3.406  0.8262  1.5719  0.5706
19168TIP3   OH278918   2.355   4.891  13.246 -0.2286  0.2834 -0.6602
19168TIP3    H178919   2.286   4.926  13.302  0.7003  0.7687  0.2029
19168TIP3    H278920   2.314   4.881  13.160 -2.1058 -1.7890  0.3690
19169TIP3   OH278921   0.091   0.965   1.224  0.5447  0.4328 -0.1276
19169TIP3    H178922   0.093   0.975   1.129  1.2185  2.4259  0.0598
19169TIP3    H278923   0.129   0.878   1.239  0.6021  0.1660 -1.6649
19170TIP3   OH278924   4.042   3.432  11.625  0.1220  0.4371 -0.1747
19170TIP3    H178925   3.963   3.434  11.680  0.7215 -0.6458  0.7686
19170TIP3    H278926   4.030   3.505  11.564 -3.0281 -1.3698 -2.0458
19171TIP3   OH278927   3.957   1.201  13.849 -0.1057 -0.0104 -0.2241
19171TIP3    H178928   4.010   1.262  13.901  0.4979 -0.1311 -0.6859
19171TIP3    H278929   3.925   1.137  13.912 -0.4909  0.6019  0.2160
19172TIP3   OH278930   5.185   5.522  15.939  0.3060  0.2248  0.1334
19172TIP3    H178931   5.117   5.520  16.006 -0.5846  2.1396 -0.6342
19172TIP3    H278932   5.167   5.602  15.889  3.6569  1.3935  0.4976
19173TIP3   OH278933   5.154   3.100   2.992 -0.0852  0.3690 -0.0904
19173TIP3    H178934   5.201   3.178   2.961 -0.1376  1.0635  1.4879
19173TIP3    H278935   5.175   3.095   3.085 -1.1802 -0.7275  0.1228
19174TIP3   OH278936   6.683   6.786  17.001 -0.5501 -0.3050  0.3080
19174TIP3    H178937   6.637   6.751  17.078 -0.6184 -1.3303 -0.1819
19174TIP3    H278938   6.639   6.746  16.926 -0.4669  0.6660 -0.2778
19175TIP3   OH278939   0.755   0.593   5.635  0.0506 -0.3243  0.3806
19175TIP3    H178940   0.791   0.675   5.670  1.3089 -0.7548  0.1529
19175TIP3    H278941   0.832   0.543   5.608 -0.7111 -1.5058  0.3340
19176TIP3   OH278942   5.105   4.187  15.669 -0.1743 -0.6137  0.3035
19176TIP3    H178943   5.071   4.239  15.597  0.7714  1.7739  1.4732
19176TIP3    H278944   5.172   4.131  15.629 -1.1772 -0.9363 -0.9799
19177TIP3   OH278945   2.530   4.268   5.911 -0.0300  0.3855 -0.6787
19177TIP3    H178946   2.566   4.233   5.830 -1.4912  0.9473 -1.6051
19177TIP3    H278947   2.442   4.296   5.888 -0.3291  0.9426  1.0145
19178TIP3   OH278948   2.587   4.899  16.957  0.3780 -0.0803  0.2317
19178TIP3    H178949   2.661   4.896  16.896 -0.7215 -1.1557 -1.1238
19178TIP3    H278950   2.577   4.808  16.986 -0.1272  0.1383  0.7487
19179TIP3   OH278951   0.335   2.519  11.929 -0.3834 -0.2085 -0.3851
19179TIP3    H178952   0.343   2.564  11.845 -0.2315 -1.6197 -1.1583
19179TIP3    H278953   0.263   2.457  11.916 -0.6554 -0.1330  0.6767
19180TIP3   OH278954   4.065   3.443  13.922 -0.0661 -0.0040 -0.0930
19180TIP3    H178955   4.094   3.415  14.009  0.0809 -1.5351 -0.6096
19180TIP3    H278956   4.146   3.457  13.873 -0.1073  2.0531  0.3216
19181TIP3   OH278957   5.688   3.467  15.469 -0.1332  0.0371  0.2269
19181TIP3    H178958   5.668   3.374  15.484 -0.4248 -0.0304 -0.5482
19181TIP3    H278959   5.753   3.466  15.399 -0.6627  0.4444 -0.2728
19182TIP3   OH278960   3.531   0.417  12.854 -0.1623 -0.6270 -0.0792
19182TIP3    H178961   3.496   0.423  12.943 -0.5221 -1.6552 -0.1430
19182TIP3    H278962   3.620   0.451  12.861  0.2011 -1.7136  0.9113
19183TIP3   OH278963   0.608   6.056   4.325 -0.2966  0.6145  0.3611
19183TIP3    H178964   0.582   6.089   4.239  0.4300 -1.3433 -0.6453
19183TIP3    H278965   0.673   6.120   4.356  2.1021 -0.4309 -2.1359
19184TIP3   OH278966   4.623   5.166  11.184 -0.3014 -0.2784 -0.3848
19184TIP3    H178967   4.609   5.139  11.093  0.0845 -1.3771 -0.1360
19184TIP3    H278968   4.535   5.173  11.221 -0.5471  1.5197 -1.1807
19185TIP3   OH278969   2.187   2.572  12.539 -0.4896  0.6937 -0.0528
19185TIP3    H178970   2.137   2.525  12.607 -0.1691  0.8537  0.3011
19185TIP3    H278971   2.127   2.578  12.465 -0.9229  0.6969  0.2889
19186TIP3   OH278972   4.078   1.128   5.740  0.1768  0.0154  0.3464
19186TIP3    H178973   4.034   1.052   5.700  1.1285 -0.6965  0.6139
19186TIP3    H278974   4.010   1.195   5.745 -0.6223 -0.7343 -0.1285
19187TIP3   OH278975   1.375   1.746   0.361 -0.2840  0.4637 -0.0925
19187TIP3    H178976   1.315   1.737   0.287  0.6732 -0.9998 -0.7290
19187TIP3    H278977   1.450   1.794   0.325 -0.3461  0.8279  0.2606
19188TIP3   OH278978   5.871   4.794   4.795 -0.1623 -0.0821  0.0055
19188TIP3    H178979   5.871   4.713   4.846 -1.6317 -0.0454  0.1007
19188TIP3    H278980   5.832   4.859   4.853  2.4176  1.1186  0.5097
19189TIP3   OH278981   2.131   3.861  14.132  0.1280  0.2603  0.1184
19189TIP3    H178982   2.192   3.853  14.206 -1.2421 -0.3735  1.2348
19189TIP3    H278983   2.106   3.954  14.132 -1.8976 -0.1976  2.2242
19190TIP3   OH278984   5.838   1.321   0.767  0.2102  0.6406 -0.4087
19190TIP3    H178985   5.858   1.371   0.846  2.0060  0.3373 -0.6304
19190TIP3    H278986   5.788   1.381   0.713 -1.6290  0.6494  1.1855
19191TIP3   OH278987   4.068   4.955  13.901 -0.6274 -0.4560  0.2779
19191TIP3    H178988   4.157   4.986  13.885  0.0260 -2.6381 -0.7941
19191TIP3    H278989   4.015   5.034  13.905  1.4194  0.9363  1.4972
19192TIP3   OH278990   1.269   6.589   6.150  0.0489 -0.3173 -0.6797
19192TIP3    H178991   1.244   6.499   6.168 -0.4079  0.3137  2.2994
19192TIP3    H278992   1.197   6.641   6.185  1.8378  1.2851  0.8307
19193TIP3   OH278993   5.102   4.845  14.160 -0.0952  0.1006  0.2435
19193TIP3    H178994   5.016   4.826  14.199  0.5125  2.0842  2.8913
19193TIP3    H278995   5.103   4.941  14.152  1.8923  0.1192  0.3152
19194TIP3   OH278996   1.459   1.628   1.310 -0.3485 -0.0414  0.2638
19194TIP3    H178997   1.369   1.608   1.335  0.0413 -0.5218  1.3633
19194TIP3    H278998   1.456   1.719   1.281 -1.3139 -0.2696 -0.4223
19195TIP3   OH278999   3.404   5.464  12.553  0.1775  0.3067  0.0939
19195TIP3    H179000   3.398   5.476  12.648  1.9019 -1.2813  0.4467
19195TIP3    H279001   3.313   5.463  12.524 -0.4091  0.2998  1.7927
19196TIP3   OH279002   6.463   3.263   3.793  0.3024  0.3509  0.1363
19196TIP3    H179003   6.403   3.200   3.833 -0.4464 -0.5138 -2.1678
19196TIP3    H279004   6.550   3.226   3.808 -0.1652 -1.8591 -1.9994
19197TIP3   OH279005   5.803   3.560  12.285  0.0130 -0.5162  0.3938
19197TIP3    H179006   5.717   3.545  12.246  0.8370 -0.6841 -1.4939
19197TIP3    H279007   5.799   3.650  12.319 -0.7671 -0.3715 -0.0642
19198TIP3   OH279008   4.394   2.906   4.348  0.1657 -0.2987 -0.1985
19198TIP3    H179009   4.381   2.832   4.407  1.5208 -1.1354 -0.8917
19198TIP3    H279010   4.423   2.977   4.405 -0.4159 -0.5062  0.3738
19199TIP3   OH279011   6.780   6.257   5.708 -0.4191 -0.0493  0.3358
19199TIP3    H179012   6.782   6.213   5.623 -0.0778 -0.0609  0.3485
19199TIP3    H279013   6.708   6.215   5.754 -0.2882 -0.3903  0.2363
19200TIP3   OH279014   5.123   4.415  16.944 -0.2763  0.0911 -0.1077
19200TIP3    H179015   5.164   4.400  16.859  0.9887  1.6128  0.1878
19200TIP3    H279016   5.195   4.404  17.007 -0.5167  1.7537  0.5132
19201TIP3   OH279017   5.320   4.575   5.301 -0.2471  0.3344 -0.0772
19201TIP3    H179018   5.348   4.495   5.346 -0.7590  0.9679  1.4274
19201TIP3    H279019   5.230   4.557   5.273  0.0513 -0.0381 -0.8272
19202TIP3   OH279020   5.497   4.358   5.415  0.0356 -0.1902  0.0561
19202TIP3    H179021   5.570   4.420   5.419  0.6958 -0.9943  1.0666
19202TIP3    H279022   5.508   4.303   5.493 -2.0211  0.0465  0.5561
19203TIP3   OH279023   1.204   6.087  14.932  0.2112 -0.6401  0.1949
19203TIP3    H179024   1.233   6.099  14.841 -0.9576  1.4558  0.0460
19203TIP3    H279025   1.269   6.134  14.984 -0.6055  0.5527  0.1813
19204TIP3   OH279026   0.424   2.315   6.186  0.0025  0.5243  0.3004
19204TIP3    H179027   0.519   2.314   6.174 -0.0828  0.2152 -0.4372
19204TIP3    H279028   0.399   2.407   6.176  0.0770  0.4325 -0.8737
19205TIP3   OH279029   0.114   0.317   4.504 -0.0388  0.3645 -0.4606
19205TIP3    H179030   0.025   0.329   4.537  0.5570  0.7260  1.1047
19205TIP3    H279031   0.170   0.365   4.566  1.2531  0.1147 -1.3767
19206TIP3   OH279032   3.259   4.049  11.338  0.0109 -0.2840 -0.2528
19206TIP3    H179033   3.259   3.955  11.357  0.2383  0.0383  1.4400
19206TIP3    H279034   3.258   4.091  11.424  2.4578  1.2871 -0.8971
19207TIP3   OH279035   0.532   2.798   1.068 -0.5398 -0.0606  0.2493
19207TIP3    H179036   0.574   2.753   0.994 -1.7676  1.1113 -1.2213
19207TIP3    H279037   0.483   2.729   1.113 -1.1693 -0.5104 -1.0674
19208TIP3   OH279038   1.713   3.432  10.625  0.2052  0.5958 -0.0546
19208TIP3    H179039   1.676   3.482  10.697  1.0326  1.2126 -0.0433
19208TIP3    H279040   1.775   3.373  10.666  1.2406  1.4743 -0.3039
19209TIP3   OH279041   1.619   1.973  14.670 -0.0682  0.7178  0.1290
19209TIP3    H179042   1.661   2.027  14.604 -1.5160  1.3854 -0.2737
19209TIP3    H279043   1.612   1.886  14.630  0.4666  0.7160  0.0282
19210TIP3   OH279044   5.162   1.584  16.118 -0.3646  0.3078 -0.4515
19210TIP3    H179045   5.176   1.504  16.170  1.2575 -0.5591 -2.1186
19210TIP3    H279046   5.067   1.590  16.109 -0.6028 -0.4529  1.1464
19211TIP3   OH279047   6.455   2.889   0.014 -0.3449  0.2612  0.6147
19211TIP3    H179048   6.466   2.971  -0.033 -1.3648  0.2361  0.3014
19211TIP3    H279049   6.381   2.904   0.073 -0.4658 -0.3860  0.6415
19212TIP3   OH279050   0.954   5.862   0.397  1.0018  0.4897 -0.1781
19212TIP3    H179051   1.035   5.907   0.371  1.1923 -0.0495 -0.5392
19212TIP3    H279052   0.979   5.771   0.408  0.0549 -0.1330 -2.4100
19213TIP3   OH279053   6.790   3.104  16.606 -0.1699  0.3218  0.1674
19213TIP3    H179054   6.854   3.144  16.664  0.5439 -1.9639  1.0618
19213TIP3    H279055   6.834   3.098  16.521 -0.2938  1.3706  0.0153
19214TIP3   OH279056   1.157   4.031   3.679 -1.1371  0.3077  0.5833
19214TIP3    H179057   1.089   4.063   3.620 -2.2239 -0.7012  1.2283
19214TIP3    H279058   1.152   3.936   3.671  0.3941  0.2185  0.4585
19215TIP3   OH279059   3.927   2.610   2.425  0.0019 -0.3404 -0.4087
19215TIP3    H179060   3.959   2.617   2.335  0.0335  3.8598 -0.3052
19215TIP3    H279061   3.842   2.654   2.424 -0.3963 -0.9541  1.4606
19216TIP3   OH279062   0.399   3.554  15.729  0.4330 -0.0211 -0.2126
19216TIP3    H179063   0.417   3.472  15.775  0.1165  0.4435  0.7727
19216TIP3    H279064   0.317   3.538  15.683  0.3152 -0.2249  0.0631
19217TIP3   OH279065   5.863   2.464   2.530 -0.0891 -0.1372  0.6955
19217TIP3    H179066   5.896   2.432   2.447  1.0673  0.2081  0.9909
19217TIP3    H279067   5.769   2.447   2.528 -0.0477 -0.2856 -0.5974
19218TIP3   OH279068   4.551   5.636  12.378  0.1957  0.0907  0.5858
19218TIP3    H179069   4.460   5.655  12.401  0.2657  0.9836  0.1580
19218TIP3    H279070   4.547   5.594  12.293  0.3682  4.7156 -2.0722
19219TIP3   OH279071   1.897   3.082   2.556  0.4571  0.1228  0.1998
19219TIP3    H179072   1.991   3.092   2.570  0.1476  1.4322  1.5233
19219TIP3    H279073   1.867   3.167   2.523 -0.5892  0.4540  1.8821
19220TIP3   OH279074   6.509   0.233   2.815 -0.4046  0.0694 -0.2045
19220TIP3    H179075   6.525   0.176   2.740  1.8734 -1.8705  1.5710
19220TIP3    H279076   6.569   0.306   2.803 -1.3271  0.6930 -1.1147
19221TIP3   OH279077   1.746   2.099  16.242 -0.3703 -0.0840  0.3184
19221TIP3    H179078   1.774   2.153  16.315 -0.6016 -0.8602  0.9965
19221TIP3    H279079   1.820   2.041  16.225 -0.2833  0.1538 -0.1262
19222TIP3   OH279080   3.898   2.294  16.951 -0.0891 -0.7338 -0.0343
19222TIP3    H179081   3.936   2.212  16.919 -0.0734 -0.4892 -0.6583
19222TIP3    H279082   3.961   2.362  16.924  0.7484 -0.6735  1.9568
19223TIP3   OH279083   2.918   4.895  14.511 -0.0236  0.1744  0.0852
19223TIP3    H179084   2.977   4.902  14.436  0.6162  1.6397  0.6818
19223TIP3    H279085   2.970   4.923  14.586 -0.6118 -1.4021  1.1259
19224TIP3   OH279086   0.908   3.687  14.824  0.2997  0.1605 -0.6009
19224TIP3    H179087   0.998   3.704  14.854  0.4131 -0.4852 -0.5578
19224TIP3    H279088   0.893   3.595  14.846 -0.7606  0.5463  0.3904
19225TIP3   OH279089   5.365   5.807  15.472 -0.5097 -0.5496 -0.4091
19225TIP3    H179090   5.303   5.740  15.498 -0.0539 -0.9098 -0.2453
19225TIP3    H279091   5.317   5.861  15.409 -0.8531 -1.0713 -0.5974
19226TIP3   OH279092   0.663   0.184  11.482  0.3537 -0.6249 -0.1236
19226TIP3    H179093   0.629   0.127  11.413 -0.6648  0.4198 -0.4978
19226TIP3    H279094   0.740   0.225  11.443 -0.4405  0.2593 -0.7933
19227TIP3   OH279095   4.985   5.436  16.120  0.6126  0.0695 -0.2737
19227TIP3    H179096   4.958   5.348  16.147 -0.1159 -0.0589 -1.3583
19227TIP3    H279097   5.032   5.471  16.196 -3.4961  0.7448  2.2787
19228TIP3   OH279098   2.337   2.809   6.098 -0.2484  0.1034 -0.7675
19228TIP3    H179099   2.273   2.760   6.046 -0.1669  0.8284 -1.5625
19228TIP3    H279100   2.283   2.869   6.150 -0.2697  0.0543 -0.7326
19229TIP3   OH279101   0.730   1.629   5.591 -0.2459 -0.4127  0.1649
19229TIP3    H179102   0.695   1.562   5.651  2.0996 -1.0747  0.9332
19229TIP3    H279103   0.715   1.712   5.637 -0.5921 -0.6949  0.5738
19230TIP3   OH279104   3.435   1.461  16.372  0.8880  0.2814 -0.0881
19230TIP3    H179105   3.340   1.472  16.382  0.7575 -0.7523 -0.0217
19230TIP3    H279106   3.455   1.502  16.288  0.6050  1.6170  0.4726
19231TIP3   OH279107   4.102   5.474  13.625 -0.1626  0.5193  0.7077
19231TIP3    H179108   4.054   5.498  13.705  1.1172  1.6387  1.1665
19231TIP3    H279109   4.179   5.428  13.656  0.1524  0.6216  0.0972
19232TIP3   OH279110   3.643   6.046   6.213  0.2523  0.1337 -0.0586
19232TIP3    H179111   3.638   6.012   6.303  1.1776 -1.7548 -0.6568
19232TIP3    H279112   3.589   5.985   6.162 -0.9343  1.6614 -0.7044
19233TIP3   OH279113   1.632   1.205   3.697  0.5152 -0.2680  0.2056
19233TIP3    H179114   1.632   1.242   3.609  1.2326  0.5706  0.5456
19233TIP3    H279115   1.722   1.173   3.710  0.2793 -0.8476  0.4468
19234TIP3   OH279116   6.359   2.028  13.592  0.2498  0.2746 -0.8562
19234TIP3    H179117   6.353   2.123  13.588 -0.4425  0.2166 -1.6010
19234TIP3    H279118   6.422   2.010  13.662  1.1790  1.2904 -1.4052
19235TIP3   OH279119   4.039   3.845  13.975  0.7886 -0.1355 -0.3969
19235TIP3    H179120   4.133   3.829  13.962  0.8711 -0.3712  0.3837
19235TIP3    H279121   4.009   3.881  13.892  1.3629 -0.9877 -0.9910
19236TIP3   OH279122   4.956   5.348  14.798 -0.2652 -0.1749  0.4484
19236TIP3    H179123   4.957   5.259  14.763  1.4424  0.6124 -1.7456
19236TIP3    H279124   5.008   5.343  14.878 -0.4791 -1.2037  0.5304
19237TIP3   OH279125   5.665   6.197  15.694 -0.3179 -0.3674  0.2019
19237TIP3    H179126   5.606   6.131  15.658  0.4107 -0.5461 -0.6948
19237TIP3    H279127   5.696   6.158  15.776 -0.6145 -0.7331  0.1474
19238TIP3   OH279128   3.794   2.127  10.839 -0.6049 -0.8182  0.5517
19238TIP3    H179129   3.735   2.116  10.914  0.0862 -0.2088  1.2044
19238TIP3    H279130   3.793   2.042  10.796 -0.1879 -1.5294  1.8855
19239TIP3   OH279131   4.476   4.153   5.401 -0.7945 -0.3827 -0.0460
19239TIP3    H179132   4.541   4.085   5.384  1.4933  1.4818  0.6828
19239TIP3    H279133   4.463   4.150   5.496 -0.7206  0.1697 -0.0188
19240TIP3   OH279134   0.731   4.790  15.893  0.2496  0.3107  0.3929
19240TIP3    H179135   0.811   4.772  15.943  0.6438 -1.1133 -0.6800
19240TIP3    H279136   0.660   4.780  15.957  0.8265 -0.0901  0.9869
19241TIP3   OH279137   0.424   4.019  13.031 -0.6122 -0.4505  0.4574
19241TIP3    H179138   0.510   4.007  13.071 -0.5696  0.3079  0.6222
19241TIP3    H279139   0.362   3.983  13.095 -0.6744  2.1672  2.0384
19242TIP3   OH279140   5.558   0.670  14.828  0.0682  0.5102 -0.1512
19242TIP3    H179141   5.652   0.673  14.810  0.1638 -0.2858  0.1955
19242TIP3    H279142   5.520   0.632  14.749  0.1212  0.1267  0.0077
19243TIP3   OH279143   4.634   0.375  13.831  0.2774  0.1089  0.4702
19243TIP3    H179144   4.705   0.437  13.849  2.1381 -1.4912 -0.9103
19243TIP3    H279145   4.559   0.409  13.880  1.4805  2.8603  0.5689
19244TIP3   OH279146   1.370   5.559  11.775  0.6773 -1.0274 -0.2625
19244TIP3    H179147   1.305   5.535  11.841 -0.0456 -0.8749 -0.9002
19244TIP3    H279148   1.426   5.623  11.818 -0.2698 -0.3322 -0.0436
19245TIP3   OH279149   1.533   0.584  11.790  0.1856  1.2997  0.1816
19245TIP3    H179150   1.509   0.504  11.838 -0.6173  1.0038 -0.6776
19245TIP3    H279151   1.627   0.577  11.776  0.1060  0.4351  0.0161
19246TIP3   OH279152   4.527   3.704  15.657  0.9229  0.1415  0.1748
19246TIP3    H179153   4.622   3.694  15.650  0.9823  1.4470 -2.2785
19246TIP3    H279154   4.493   3.615  15.647  1.8492  0.0243 -3.3717
19247TIP3   OH279155   0.351   3.546  13.280 -0.3015  0.1730  0.4537
19247TIP3    H179156   0.324   3.638  13.276 -0.3091  0.2323  1.5838
19247TIP3    H279157   0.441   3.549  13.313 -0.4734 -0.2472  0.9708
19248TIP3   OH279158   0.397   4.820   2.534 -0.3132  0.0023  0.2293
19248TIP3    H179159   0.468   4.758   2.550 -0.7762 -0.1644  1.7769
19248TIP3    H279160   0.396   4.876   2.612 -0.3632  1.5111 -0.8213
19249TIP3   OH279161   5.184   5.110   2.041  0.4021 -0.1457  0.3500
19249TIP3    H179162   5.121   5.160   1.990  0.6764 -0.7234 -0.5694
19249TIP3    H279163   5.159   5.018   2.029  2.3306 -0.5113 -1.3383
19250TIP3   OH279164   0.240   2.054  13.779 -0.3648 -0.3114 -0.2205
19250TIP3    H179165   0.257   1.974  13.829  0.7935  0.3325  0.4612
19250TIP3    H279166   0.224   2.023  13.690  1.5619 -1.2452 -0.3072
19251TIP3   OH279167   5.135   2.601  13.838  0.5563 -1.1698  0.0615
19251TIP3    H179168   5.211   2.652  13.810  1.3698 -1.0800  2.2152
19251TIP3    H279169   5.075   2.604  13.763  2.0525 -0.0341 -1.1694
19252TIP3   OH279170   3.924   5.914  16.451 -0.1043 -0.3325 -0.0746
19252TIP3    H179171   3.965   5.879  16.530  1.8313 -1.0344 -1.3255
19252TIP3    H279172   3.919   6.008  16.466 -1.1200 -0.6018  1.4563
19253TIP3   OH279173   2.214   3.952  10.876 -0.4981 -0.6932  0.6706
19253TIP3    H179174   2.288   3.895  10.853 -0.1665  0.4530 -1.3748
19253TIP3    H279175   2.169   3.967  10.793  0.4171  3.3335  0.7203
19254TIP3   OH279176   0.023   6.798   5.925 -0.2185 -0.0481 -0.2739
19254TIP3    H179177   0.053   6.888   5.908  0.3344  0.0484  1.0699
19254TIP3    H279178   0.066   6.774   6.007 -0.9294 -1.2866 -0.2442
19255TIP3   OH279179   2.185   2.403  11.502 -0.0666 -0.1197 -0.0453
19255TIP3    H179180   2.117   2.447  11.451 -0.3976 -0.5462  0.0109
19255TIP3    H279181   2.140   2.375  11.582 -0.2092 -1.6131 -0.5951
19256TIP3   OH279182   0.455   0.790   5.227 -0.2445  0.6283 -0.5093
19256TIP3    H179183   0.449   0.851   5.154  1.0512  0.3268 -0.8899
19256TIP3    H279184   0.492   0.710   5.188 -3.0192 -0.8963 -0.3095
19257TIP3   OH279185   0.840   4.513  16.265 -0.9510  0.4444 -0.3372
19257TIP3    H179186   0.833   4.609  16.263 -0.3279  0.4726 -1.2332
19257TIP3    H279187   0.890   4.490  16.187 -1.6958 -0.6739 -0.5106
19258TIP3   OH279188   6.798   4.843  14.677 -0.4946 -0.2028 -0.7881
19258TIP3    H179189   6.808   4.782  14.603  0.4326 -0.1730 -0.7005
19258TIP3    H279190   6.717   4.890  14.658 -1.3120 -1.5471 -0.7999
19259TIP3   OH279191   1.834   0.955   5.484 -0.5992  0.1334 -0.1316
19259TIP3    H179192   1.853   1.034   5.433  0.0973 -1.2805 -2.2099
19259TIP3    H279193   1.853   0.883   5.424  1.1202 -1.7279  2.4464
19260TIP3   OH279194   1.603   2.487  10.286  0.1701  0.4399 -0.3729
19260TIP3    H179195   1.654   2.456  10.361  0.8617  0.7327 -0.7137
19260TIP3    H279196   1.569   2.407  10.246  0.7542  0.2026 -0.4107
19261TIP3   OH279197   5.247   1.270  16.631  0.2610 -0.3944  0.0111
19261TIP3    H179198   5.225   1.259  16.724 -0.6241  1.1534  0.0188
19261TIP3    H279199   5.281   1.359  16.625 -1.1865  0.1110 -1.3981
19262TIP3   OH279200   2.705   3.399   1.078  0.0125 -0.2047  0.4795
19262TIP3    H179201   2.667   3.388   1.166  0.3656 -0.5468  0.5962
19262TIP3    H279202   2.631   3.387   1.019 -0.1882 -0.2002  0.7233
19263TIP3   OH279203   4.076   0.365  16.714 -0.5638  0.2244 -0.0431
19263TIP3    H179204   4.079   0.303  16.642  1.5137 -0.7179  0.7691
19263TIP3    H279205   4.020   0.436  16.683 -1.0094 -0.9045 -1.9365
19264TIP3   OH279206   4.860   1.795   2.129 -0.0472 -0.0511 -0.4541
19264TIP3    H179207   4.869   1.815   2.222  0.6726 -1.2586 -0.2382
19264TIP3    H279208   4.788   1.850   2.099  0.4262  1.1663  0.5554
19265TIP3   OH279209   5.418   2.829   1.955  0.2260 -0.2245 -0.2021
19265TIP3    H179210   5.354   2.797   1.891  0.1214  0.2731 -0.3444
19265TIP3    H279211   5.369   2.831   2.038 -1.1146  3.5967 -0.8858
19266TIP3   OH279212   4.453   3.621   5.772  0.1245 -0.3229  0.3321
19266TIP3    H179213   4.484   3.614   5.682 -0.0356  0.2056  0.2304
19266TIP3    H279214   4.532   3.626   5.825  0.2233 -1.1669  0.2727
19267TIP3   OH279215   2.537   3.129   0.168 -0.0698 -0.0431 -0.6155
19267TIP3    H179216   2.461   3.185   0.151  0.2937  0.2073 -1.4595
19267TIP3    H279217   2.610   3.189   0.178  0.0962 -0.3054 -0.2126
19268TIP3   OH279218   0.079   3.482   0.787 -0.4283 -0.3317  0.3414
19268TIP3    H179219   0.082   3.406   0.846 -2.1768  0.2491  1.2537
19268TIP3    H279220   0.076   3.444   0.699  2.3311 -1.2173  0.5072
19269TIP3   OH279221   0.869   1.926   0.509 -0.2121  0.0404 -0.0129
19269TIP3    H179222   0.937   1.972   0.557  1.1442  0.2209 -2.0006
19269TIP3    H279223   0.833   1.992   0.449  0.4932 -0.9495 -1.5988
19270TIP3   OH279224   3.862   0.097  15.010  0.1190 -0.0704 -0.6666
19270TIP3    H179225   3.817   0.013  15.019 -0.0268  0.0278 -0.4664
19270TIP3    H279226   3.805   0.149  14.953 -0.7597  0.5574  0.7261
19271TIP3   OH279227   1.236   1.807  14.651  0.6317 -0.3115 -0.4198
19271TIP3    H179228   1.244   1.902  14.659  1.0988 -0.3629 -0.1780
19271TIP3    H279229   1.146   1.792  14.623  0.1183  0.1365  0.8803
19272TIP3   OH279230   1.196   5.945   3.458  0.1541 -0.5526  0.3287
19272TIP3    H179231   1.200   5.870   3.517  1.1992 -1.7063 -1.1330
19272TIP3    H279232   1.266   6.003   3.489 -0.6250 -0.1567  1.4320
19273TIP3   OH279233   2.349   4.788   2.058  0.0808 -0.2965  0.2735
19273TIP3    H179234   2.353   4.746   1.972  1.6049 -2.7302  1.4038
19273TIP3    H279235   2.273   4.748   2.101 -0.3075  0.4415  0.2757
19274TIP3   OH279236   2.684   1.209   0.709  0.1289  0.6353  0.0222
19274TIP3    H179237   2.712   1.128   0.751 -0.5348  0.0626 -0.6444
19274TIP3    H279238   2.657   1.265   0.782  1.9886  0.8348  0.6170
19275TIP3   OH279239   5.686   2.465  15.012  0.6547 -0.2379  0.5904
19275TIP3    H179240   5.741   2.533  15.052  0.9601  0.4777 -0.9728
19275TIP3    H279241   5.727   2.447  14.928 -1.6987  0.6537 -0.8608
19276TIP3   OH279242   0.957   3.682   4.818 -0.6834 -0.7710 -0.1865
19276TIP3    H179243   0.965   3.652   4.908 -1.5325 -0.4851 -0.0026
19276TIP3    H279244   0.952   3.602   4.766  1.2815 -0.9588 -0.1545
19277TIP3   OH279245   3.551   6.349  13.964  0.2318  0.3210 -0.0234
19277TIP3    H179246   3.487   6.279  13.952 -0.7285  1.3250 -0.9303
19277TIP3    H279247   3.550   6.397  13.882  1.2199  1.1305  0.4148
19278TIP3   OH279248   6.349   2.357  12.122 -0.3945  0.0157 -0.6346
19278TIP3    H179249   6.257   2.373  12.102 -1.0243 -0.6388  1.4594
19278TIP3    H279250   6.393   2.440  12.104 -1.9567  1.3484  1.2397
19279TIP3   OH279251   5.863   5.413   1.425 -0.2358  0.3769 -0.6727
19279TIP3    H179252   5.898   5.390   1.511  0.2863  0.3469 -0.8888
19279TIP3    H279253   5.804   5.342   1.404 -1.1097  0.8606  0.0802
19280TIP3   OH279254   3.427   1.571   0.559  0.0593  0.0093  0.0925
19280TIP3    H179255   3.492   1.510   0.595 -0.0262  0.9595  2.0313
19280TIP3    H279256   3.348   1.519   0.548  0.3637 -0.5342  0.4254
19281TIP3   OH279257   2.859   5.488   1.587  0.6367 -0.3059  0.1788
19281TIP3    H179258   2.813   5.426   1.531  0.7691  0.9353 -1.3814
19281TIP3    H279259   2.802   5.565   1.591  1.6590  0.5096 -0.1879
19282TIP3   OH279260   2.105   1.764  15.116 -0.1906  0.3247  0.8702
19282TIP3    H179261   2.047   1.712  15.172  0.5401 -1.0990  0.3635
19282TIP3    H279262   2.160   1.699  15.072  0.0623  1.4708 -0.6015
19283TIP3   OH279263   6.709   6.139  15.984  0.1640  0.1472 -0.2745
19283TIP3    H179264   6.717   6.167  15.893  0.4795  0.8033 -0.0499
19283TIP3    H279265   6.678   6.217  16.030 -2.8709 -0.9319 -0.2839
19284TIP3   OH279266   4.652   6.384   5.005  0.6523 -0.0799  0.6604
19284TIP3    H179267   4.693   6.407   4.922  0.7236 -1.1762  0.3768
19284TIP3    H279268   4.687   6.297   5.025  0.5235  0.1140  1.7658
19285TIP3   OH279269   1.187   4.678   0.759  0.0752 -0.5511 -0.0234
19285TIP3    H179270   1.184   4.635   0.844  3.3285 -0.3386  0.3253
19285TIP3    H279271   1.167   4.770   0.777 -0.0505 -0.6529  0.3590
19286TIP3   OH279272   6.187   3.040   2.763  0.4355 -0.0215 -0.3231
19286TIP3    H179273   6.130   3.116   2.773 -0.4532 -0.7064 -0.0471
19286TIP3    H279274   6.146   2.989   2.693  0.4160 -0.7780  0.2277
19287TIP3   OH279275   4.670   2.369  12.209 -0.3546  0.5511  0.2601
19287TIP3    H179276   4.655   2.438  12.274 -1.2390 -0.4328  1.1361
19287TIP3    H279277   4.639   2.289  12.251  1.1342 -0.4993 -0.5103
19288TIP3   OH279278   5.963   6.722   5.827 -0.2054  0.9395 -0.2892
19288TIP3    H179279   6.054   6.694   5.820  0.4882  2.6962  0.8555
19288TIP3    H279280   5.942   6.758   5.741 -0.6909 -1.6940 -1.3562
19289TIP3   OH279281   3.564   2.431  14.491 -0.1628 -0.1949 -0.2684
19289TIP3    H179282   3.560   2.483  14.571  0.7460 -1.0868  0.3824
19289TIP3    H279283   3.626   2.477  14.435 -1.8706  1.2169 -1.0883
19290TIP3   OH279284   0.284   1.593   5.908  0.1740 -0.8180 -0.0607
19290TIP3    H179285   0.309   1.578   5.999 -0.7631 -0.6030  0.2360
19290TIP3    H279286   0.343   1.663   5.879  0.7898 -1.2021  0.2248
19291TIP3   OH279287   0.038   0.811  16.385 -0.4509  0.1510  0.2350
19291TIP3    H179288  -0.042   0.862  16.396  0.8560  2.2742  0.4221
19291TIP3    H279289   0.106   0.876  16.364  0.8087 -1.7869 -2.2271
19292TIP3   OH279290   4.000   4.300   6.388 -0.3669 -0.0622  0.1640
19292TIP3    H179291   3.945   4.377   6.402  0.1732  0.0773  1.7391
19292TIP3    H279292   3.979   4.243   6.462 -0.0260 -0.9919 -0.4487
19293TIP3   OH279293   3.557   4.694  11.668 -0.7250  0.2904  0.2050
19293TIP3    H179294   3.570   4.764  11.604 -0.4515 -0.9924 -1.2061
19293TIP3    H279295   3.468   4.708  11.701 -0.5979  1.4107  0.1260
19294TIP3   OH279296   0.490   5.260  14.100 -0.0973 -0.1563 -0.0531
19294TIP3    H179297   0.520   5.289  14.014 -0.7983  1.7448  0.2947
19294TIP3    H279298   0.397   5.243  14.089 -0.7943  2.6645  0.8695
19295TIP3   OH279299   3.143   0.989   5.046 -0.0303 -0.3977  0.0565
19295TIP3    H179300   3.136   0.941   4.963  0.8848  1.5925 -1.2474
19295TIP3    H279301   3.229   1.030   5.043 -0.5222  0.8279  1.3936
19296TIP3   OH279302   6.092   1.583   5.452 -0.0765  0.9376 -0.0825
19296TIP3    H179303   6.006   1.600   5.490 -0.0744 -1.2904  1.0967
19296TIP3    H279304   6.150   1.645   5.496 -1.0165  2.4262 -0.8421
19297TIP3   OH279305   5.762   5.458  13.014  0.5429  0.8158  0.2289
19297TIP3    H179306   5.717   5.410  13.083  0.7557  0.8481  0.3917
19297TIP3    H279307   5.800   5.391  12.958 -0.6566  0.7644 -0.5542
19298TIP3   OH279308   6.125   5.242  15.415  0.1905 -0.3219  0.6071
19298TIP3    H179309   6.151   5.334  15.419  2.0417 -0.7507 -0.3643
19298TIP3    H279310   6.044   5.238  15.465 -1.5271  2.3439 -1.6197
19299TIP3   OH279311   5.049   2.555   1.434 -0.2815 -0.0574  0.0763
19299TIP3    H179312   5.102   2.510   1.368 -0.4110 -0.3736  0.1872
19299TIP3    H279313   5.071   2.647   1.423  0.6888 -0.2333  0.4766
19300TIP3   OH279314   5.909   5.091  10.672 -0.4316  0.4357 -0.0623
19300TIP3    H179315   5.913   5.041  10.590 -0.4762 -0.8358  0.6800
19300TIP3    H279316   5.910   5.182  10.644  0.5898  0.0450 -1.4363
19301TIP3   OH279317   0.438   6.483  17.072 -0.3721  0.0074 -1.0388
19301TIP3    H179318   0.350   6.452  17.049  0.2711 -1.9948 -0.9716
19301TIP3    H279319   0.425   6.575  17.094 -2.9423 -0.7686  1.4220
19302TIP3   OH279320   0.165   3.290   4.775 -0.3107 -0.5531 -0.2767
19302TIP3    H179321   0.188   3.319   4.863 -1.6520 -2.2534  0.6923
19302TIP3    H279322   0.227   3.219   4.757  0.1652 -0.0003 -0.8504
19303TIP3   OH279323   5.378   2.235   1.905 -0.0588 -0.0565  0.3066
19303TIP3    H179324   5.283   2.245   1.910 -0.0704 -0.0420  0.0565
19303TIP3    H279325   5.412   2.320   1.932 -0.1128 -0.1362  0.6277
19304TIP3   OH279326   0.167   3.395  17.008  0.5191  0.3535 -0.2081
19304TIP3    H179327   0.136   3.319  17.058 -0.7986  1.5708  0.9245
19304TIP3    H279328   0.245   3.424  17.055  0.5744  0.1668 -0.1821
19305TIP3   OH279329   5.832   2.092   0.948  0.4212  0.4674  0.5443
19305TIP3    H179330   5.758   2.063   1.001 -0.0122 -0.1370 -0.3721
19305TIP3    H279331   5.903   2.104   1.012  1.2588 -4.4409  0.9205
19306TIP3   OH279332   6.404   3.046  16.052 -0.1434 -0.0146  0.0806
19306TIP3    H179333   6.466   3.117  16.069  0.2658 -0.1629 -0.7635
19306TIP3    H279334   6.386   3.010  16.138  0.9185  0.0545  0.3454
19307TIP3   OH279335   2.011   5.552   5.529 -0.1879  0.3487 -0.6023
19307TIP3    H179336   1.979   5.462   5.524 -1.8111  0.7598  1.2308
19307TIP3    H279337   2.088   5.547   5.585  0.4483 -0.0318 -1.4819
19308TIP3   OH279338   4.737   6.619  11.604 -0.3606 -0.2218  0.3046
19308TIP3    H179339   4.799   6.633  11.675  0.3383 -0.0290 -0.3333
19308TIP3    H279340   4.764   6.536  11.564 -0.6247 -0.2280  0.1356
19309TIP3   OH279341   3.686   2.224   3.036  0.2911 -0.0770  0.5390
19309TIP3    H179342   3.718   2.224   3.126 -1.3629 -1.6942  1.2072
19309TIP3    H279343   3.660   2.133   3.020 -1.7843  0.6479 -0.6523
19310TIP3   OH279344   5.399   0.923  14.556 -0.0072  0.2441  0.1654
19310TIP3    H179345   5.441   0.949  14.474  0.0485  1.8360  0.6569
19310TIP3    H279346   5.400   0.828  14.555  0.1925  0.2389 -1.5785
19311TIP3   OH279347   5.059   4.223   1.441  0.3529 -0.0880 -0.3327
19311TIP3    H179348   5.059   4.262   1.529 -1.2852 -1.1096  0.1694
19311TIP3    H279349   5.055   4.129   1.456  0.1176 -0.2832 -1.5049
19312TIP3   OH279350   0.307   5.431  12.045 -0.6357 -0.1266 -0.1889
19312TIP3    H179351   0.375   5.380  12.001  0.1307 -0.2051  1.0287
19312TIP3    H279352   0.268   5.369  12.108 -0.8999  0.2916  0.0631
19313TIP3   OH279353   4.562   5.826   5.079 -0.3071 -0.1900 -0.3434
19313TIP3    H179354   4.647   5.803   5.041 -1.0980 -1.0109 -1.6881
19313TIP3    H279355   4.564   5.790   5.168  0.6553 -0.3881 -0.4386
19314TIP3   OH279356   4.540   0.651   1.614  0.4269  0.0143  0.3677
19314TIP3    H179357   4.523   0.559   1.596  2.4758 -0.4159  0.3556
19314TIP3    H279358   4.453   0.691   1.622 -0.5561 -1.4027 -2.0941
19315TIP3   OH279359   0.454   1.704  14.870 -0.4962  0.0828  0.5418
19315TIP3    H179360   0.529   1.762  14.856  0.1832 -1.1520 -1.1329
19315TIP3    H279361   0.474   1.659  14.952 -0.0006  0.6327  0.7343
19316TIP3   OH279362   5.861   5.862   4.638  0.1160 -0.1430  0.1191
19316TIP3    H179363   5.925   5.919   4.596 -0.4343  1.0651  0.8715
19316TIP3    H279364   5.831   5.912   4.714 -0.3154 -1.4818  0.8599
19317TIP3   OH279365   5.466   3.636   1.768  0.7567 -0.2600 -0.0410
19317TIP3    H179366   5.506   3.684   1.696 -0.8181 -0.5088 -1.1402
19317TIP3    H279367   5.507   3.671   1.846  0.8769  1.6647 -0.9078
19318TIP3   OH279368   3.554   6.380  16.624  0.0056 -0.1184  0.6078
19318TIP3    H179369   3.514   6.360  16.539 -0.6629 -0.2399  0.9446
19318TIP3    H279370   3.647   6.362  16.611  0.0957  0.9413 -0.4260
19319TIP3   OH279371   4.856   0.979   3.829 -0.5485  0.6916 -0.3423
19319TIP3    H179372   4.914   1.029   3.772 -0.3652 -0.4618 -1.1981
19319TIP3    H279373   4.910   0.908   3.863 -1.1230  0.3409 -0.1485
19320TIP3   OH279374   0.075   1.536  11.434  0.6683 -0.3501 -0.1490
19320TIP3    H179375  -0.015   1.559  11.456  0.5720 -1.2483  0.4317
19320TIP3    H279376   0.128   1.584  11.497  0.5339 -0.7044  0.2365
19321TIP3   OH279377   3.729   6.635   0.281  0.1626 -0.7921 -0.4423
19321TIP3    H179378   3.812   6.622   0.235  0.5709  0.4118 -0.0971
19321TIP3    H279379   3.676   6.686   0.219 -0.5284 -1.9866 -0.8625
19322TIP3   OH279380   6.807   0.264   1.233  0.3427  0.2825  0.1628
19322TIP3    H179381   6.766   0.343   1.198 -0.0234  0.4586  0.9701
19322TIP3    H279382   6.864   0.234   1.163  0.3164  1.1411 -0.2435
19323TIP3   OH279383   6.259   4.263  16.700  0.4277  0.2308  0.4896
19323TIP3    H179384   6.313   4.256  16.621  0.6756  0.8616  0.5927
19323TIP3    H279385   6.282   4.186  16.751 -0.5927 -0.8078 -0.5546
19324TIP3   OH279386   4.877   4.994  14.385  0.1034  0.3457  0.2170
19324TIP3    H179387   4.804   5.046  14.353  0.5879  0.1103 -1.3596
19324TIP3    H279388   4.955   5.044  14.361  0.5282  1.6659  3.7379
19325TIP3   OH279389   4.086   6.013  11.040  0.1991  0.1237  0.3290
19325TIP3    H179390   4.024   5.942  11.056  0.5108 -0.5504 -1.2509
19325TIP3    H279391   4.165   5.969  11.009  0.6864  1.1150  0.1234
19326TIP3   OH279392   4.744   5.862   0.472 -0.2537 -0.0311 -0.0613
19326TIP3    H179393   4.660   5.820   0.452  1.7047 -3.8162 -1.2617
19326TIP3    H279394   4.763   5.915   0.395 -0.4435 -1.1574 -0.9062
19327TIP3   OH279395   5.400   6.393  15.059  0.7202 -0.2468 -0.2877
19327TIP3    H179396   5.384   6.423  15.148 -1.6397  0.0169 -0.7161
19327TIP3    H279397   5.419   6.473  15.010  2.4271 -0.4342  0.0015
19328TIP3   OH279398   4.983   4.370  14.536  0.5720  0.4286 -0.0256
19328TIP3    H179399   4.944   4.285  14.559  1.7523  0.1380  1.0220
19328TIP3    H279400   4.973   4.377  14.441  0.6421 -0.9833 -0.1520
19329TIP3   OH279401   6.117   5.498  13.510  0.0875  0.2041 -0.0966
19329TIP3    H179402   6.095   5.591  13.516 -1.9382 -0.0460 -2.1390
19329TIP3    H279403   6.048   5.454  13.559  1.6121 -0.2610  1.7648
19330TIP3   OH279404   5.178   2.122  13.568 -0.3354 -0.2140  0.2302
19330TIP3    H179405   5.230   2.045  13.544 -0.4497 -0.4294  0.6644
19330TIP3    H279406   5.139   2.151  13.485  0.5958  0.0467 -0.1347
19331TIP3   OH279407   4.489   2.848   3.415 -0.0478  0.2793 -0.3141
19331TIP3    H179408   4.424   2.864   3.484  1.3455  2.7946  0.5553
19331TIP3    H279409   4.500   2.933   3.373 -1.3548 -1.2889 -4.2850
19332TIP3   OH279410   1.932   4.174   5.909  0.2974  0.3189  0.0150
19332TIP3    H179411   2.018   4.145   5.879  0.7831  1.3700  0.3405
19332TIP3    H279412   1.932   4.154   6.003  0.9410  1.9907  0.4079
19333TIP3   OH279413   5.786   1.863   1.319 -0.0419  0.0919 -0.1827
19333TIP3    H179414   5.843   1.841   1.245 -0.5054  0.2145 -0.5803
19333TIP3    H279415   5.702   1.885   1.279 -0.6333 -0.9191  0.4368
19334TIP3   OH279416   3.285   3.333  13.957 -0.2729 -0.1545  0.4607
19334TIP3    H179417   3.275   3.423  13.926  1.8055  0.2048  0.6757
19334TIP3    H279418   3.197   3.305  13.979 -1.0190  1.6811 -0.0314
19335TIP3   OH279419   2.523   3.218  12.197 -0.5842  0.5418  0.5429
19335TIP3    H179420   2.595   3.217  12.260  1.0629 -0.1235 -1.2707
19335TIP3    H279421   2.447   3.187  12.247  0.7787 -0.5117  2.0621
19336TIP3   OH279422   4.522   2.299   2.185 -0.4904 -0.3604  0.3044
19336TIP3    H179423   4.502   2.350   2.106  0.2778 -0.1858  0.2165
19336TIP3    H279424   4.437   2.286   2.227 -0.7677  0.4984  0.0264
19337TIP3   OH279425   5.744   6.319   5.196  0.5369  0.2721 -0.3885
19337TIP3    H179426   5.787   6.238   5.171 -3.2305 -2.2670  0.5749
19337TIP3    H279427   5.683   6.338   5.126  0.7453  1.8728 -0.1929
19338TIP3   OH279428   4.495   2.119  15.484 -0.5720 -1.0583  0.4013
19338TIP3    H179429   4.518   2.117  15.577  1.4411  1.2049  0.0449
19338TIP3    H279430   4.565   2.169  15.443 -3.4249  1.6331 -1.6923
19339TIP3   OH279431   6.102   2.366   0.569  0.2578  0.3143 -0.3263
19339TIP3    H179432   6.066   2.314   0.641  0.8903 -2.1029 -1.6597
19339TIP3    H279433   6.185   2.400   0.603 -1.2360  2.5938  1.3777
19340TIP3   OH279434   1.464   6.195  11.324  0.1247  0.8585 -0.2794
19340TIP3    H179435   1.514   6.245  11.388  1.4444 -1.0452  0.2453
19340TIP3    H279436   1.432   6.118  11.373  1.2782 -0.7114 -1.8810
19341TIP3   OH279437   4.072   0.146   3.478  0.2425  0.2538  0.7814
19341TIP3    H179438   4.157   0.182   3.504 -0.1504  2.0312 -0.1909
19341TIP3    H279439   4.020   0.145   3.558  0.9375 -0.1337  1.2317
19342TIP3   OH279440   4.308   1.085  15.277 -0.0226  0.2205 -0.5006
19342TIP3    H179441   4.339   1.043  15.197  0.4217  2.1035 -1.3607
19342TIP3    H279442   4.387   1.098  15.330 -0.0515  0.6240 -0.5555
19343TIP3   OH279443   4.427   3.955  11.285 -0.3141  0.3765  0.1001
19343TIP3    H179444   4.338   3.951  11.251 -0.5472  1.6475  0.4867
19343TIP3    H279445   4.422   4.016  11.358  1.0900  1.4406 -0.6289
19344TIP3   OH279446   5.903   4.454   3.464  0.3408 -0.1146  0.5996
19344TIP3    H179447   5.941   4.490   3.384 -0.4408 -0.7644 -0.0817
19344TIP3    H279448   5.922   4.520   3.531  0.7921  0.5523 -0.1617
19345TIP3   OH279449   5.854   1.359  16.717 -0.2025 -0.2094  0.3138
19345TIP3    H179450   5.900   1.282  16.683  0.1703 -0.2022  0.7977
19345TIP3    H279451   5.777   1.322  16.762 -0.6378 -0.2247 -0.4372
19346TIP3   OH279452   4.334   0.865   5.450  0.3354  0.3627  0.1777
19346TIP3    H179453   4.376   0.803   5.509  0.1372  0.3239  0.2799
19346TIP3    H279454   4.394   0.940   5.447  1.4522 -0.5328 -1.3410
19347TIP3   OH279455   3.532   2.306   0.859  0.0463  0.0799  0.7977
19347TIP3    H179456   3.495   2.394   0.860 -1.2576 -0.4274  0.0587
19347TIP3    H279457   3.627   2.319   0.856 -0.1328  1.4522  0.8299
19348TIP3   OH279458   4.705   2.590  12.954 -0.2220  0.0402  0.6817
19348TIP3    H179459   4.668   2.587  12.866 -1.7647  0.0761  1.3039
19348TIP3    H279460   4.682   2.505  12.992  1.0795 -0.2764  0.8266
19349TIP3   OH279461   2.399   0.149  15.223  0.3869 -0.1201  0.5378
19349TIP3    H179462   2.331   0.139  15.290  0.8549 -0.8490  0.9146
19349TIP3    H279463   2.479   0.116  15.265  0.7706 -0.2083 -0.2453
19350TIP3   OH279464   3.817   3.716  14.947  0.0574 -0.3495  0.3784
19350TIP3    H179465   3.861   3.636  14.975 -0.0705 -0.6491 -0.2705
19350TIP3    H279466   3.807   3.767  15.028 -1.6843 -1.8383  1.1629
19351TIP3   OH279467   5.808   5.885  16.747  0.1788 -0.2012 -0.1037
19351TIP3    H179468   5.761   5.803  16.766  0.5460 -0.1604  0.9984
19351TIP3    H279469   5.864   5.899  16.823  0.5238  0.7954 -0.5320
19352TIP3   OH279470   0.092   6.610   2.433  0.0828  0.5629 -0.0914
19352TIP3    H179471   0.033   6.535   2.438 -1.1533  1.4321 -1.2257
19352TIP3    H279472   0.179   6.573   2.452 -0.5847 -1.0212  0.0117
19353TIP3   OH279473   1.870   0.722   2.647  0.4307 -0.5456 -0.7271
19353TIP3    H179474   1.958   0.710   2.611  0.1778 -0.0375 -1.5617
19353TIP3    H279475   1.829   0.636   2.639  1.5826 -1.4186  1.8376
19354TIP3   OH279476   0.084   0.354  13.445 -0.7792 -0.1068  0.1420
19354TIP3    H179477   0.034   0.358  13.363 -1.4327 -0.0006  0.5371
19354TIP3    H279478   0.045   0.422  13.500 -0.0938  0.0720  0.4069
19355TIP3   OH279479   5.011   2.253  13.740  0.1316  0.1548 -0.4594
19355TIP3    H179480   4.920   2.230  13.718  0.2882 -0.5955 -0.3459
19355TIP3    H279481   5.064   2.187  13.696  0.5171 -0.6190  1.1229
19356TIP3   OH279482   6.304   5.327   1.827  0.0551  0.2500  0.5221
19356TIP3    H179483   6.227   5.272   1.813 -0.9037  1.3052  1.4120
19356TIP3    H279484   6.268   5.411   1.856  1.3986  1.6538 -1.5370
19357TIP3   OH279485   1.448   2.749   5.673  0.1100 -0.5960 -0.0810
19357TIP3    H179486   1.408   2.790   5.596 -0.0572  0.1543  0.3997
19357TIP3    H279487   1.414   2.660   5.673  0.3237 -0.6861 -1.0298
19358TIP3   OH279488   0.407   2.851  15.797 -0.1011 -0.6747 -0.1213
19358TIP3    H179489   0.469   2.786  15.828 -0.9744 -1.6478 -0.3440
19358TIP3    H279490   0.364   2.883  15.876  0.0237 -0.6884 -0.0479
19359TIP3   OH279491   3.774   3.105   3.746 -0.3368 -0.3937 -0.6577
19359TIP3    H179492   3.778   3.149   3.831  1.5650 -1.5651 -0.0756
19359TIP3    H279493   3.837   3.152   3.692  0.2359 -1.1062 -0.6385
19360TIP3   OH279494   3.376   1.894  13.676  0.3472  0.0922  0.0210
19360TIP3    H179495   3.336   1.844  13.748  0.3621  1.4599  1.0053
19360TIP3    H279496   3.417   1.827  13.621  1.3904 -0.9300  1.9287
19361TIP3   OH279497   3.926   3.650  12.747  0.3966 -0.4713 -0.0642
19361TIP3    H179498   3.871   3.575  12.726  0.6360 -0.6148 -0.1877
19361TIP3    H279499   3.920   3.707  12.670 -1.5692  0.7310  0.8964
19362TIP3   OH279500   2.233   5.015  16.307  0.2554  0.7011 -0.1562
19362TIP3    H179501   2.312   4.981  16.266  0.0936  1.0721 -0.7996
19362TIP3    H279502   2.238   5.110  16.293  1.6459  1.2805  3.2018
19363TIP3   OH279503   2.198   3.225   0.654 -0.6141 -0.3129 -0.1958
19363TIP3    H179504   2.279   3.214   0.605  1.3673  1.3439  2.4615
19363TIP3    H279505   2.201   3.158   0.722 -1.3252 -0.0307  0.1338
19364TIP3   OH279506   3.513   0.288   3.860  0.2488  0.1623  0.3552
19364TIP3    H179507   3.538   0.372   3.821  0.7103 -0.2362 -0.2157
19364TIP3    H279508   3.417   0.288   3.856  0.2529  0.5769  0.1789
19365TIP3   OH279509   3.298   5.421   3.909  0.4165 -1.5687 -0.1897
19365TIP3    H179510   3.331   5.373   3.985  1.1495 -0.9580 -0.1216
19365TIP3    H279511   3.364   5.487   3.890 -0.7116 -0.3615 -0.0874
19366TIP3   OH279512   4.905   6.450   1.942  0.0549 -0.2695  0.2714
19366TIP3    H179513   4.821   6.415   1.913 -1.5263  2.0507  1.7948
19366TIP3    H279514   4.909   6.538   1.905  2.7792 -0.9679 -1.3920
19367TIP3   OH279515   2.237   6.305  14.735 -0.4481  0.1306 -0.2454
19367TIP3    H179516   2.181   6.382  14.727 -1.2236 -0.4323 -0.4919
19367TIP3    H279517   2.233   6.263  14.649 -0.7057 -0.6129  0.1135
19368TIP3   OH279518   3.269   6.476  14.748  0.9690  0.5933  0.3174
19368TIP3    H179519   3.275   6.523  14.665  0.8999 -0.1537 -0.1203
19368TIP3    H279520   3.345   6.505  14.798  2.6081 -1.0039 -1.1044
19369TIP3   OH279521   1.141   0.968  13.594 -0.2997 -0.6911  0.5286
19369TIP3    H179522   1.234   0.961  13.616 -0.1333  1.0086  0.5020
19369TIP3    H279523   1.096   0.921  13.664  0.5151 -0.4366  1.2354
19370TIP3   OH279524   6.767   5.373   2.651  0.5489 -0.1479 -1.0688
19370TIP3    H179525   6.731   5.301   2.703 -1.0289  1.9586  1.0050
19370TIP3    H279526   6.861   5.358   2.650  1.0266  0.6138  4.3422
19371TIP3   OH279527   4.437   1.490   1.727  0.5347  0.3719 -0.0587
19371TIP3    H179528   4.487   1.514   1.649  1.2852  2.1477  0.8998
19371TIP3    H279529   4.348   1.520   1.710  0.5921  0.3379 -0.4109
19372TIP3   OH279530   0.288   5.918   3.246 -0.4032 -0.3424 -0.1016
19372TIP3    H179531   0.373   5.955   3.270 -1.0790  2.9666 -2.1124
19372TIP3    H279532   0.235   5.928   3.325  0.2213  0.5585  0.2277
19373TIP3   OH279533   1.948   6.051  15.425 -0.8557  0.8275  0.5546
19373TIP3    H179534   1.995   6.121  15.380 -0.5882  0.8153  0.8168
19373TIP3    H279535   1.983   5.970  15.387 -0.5747  0.8149  0.8362
19374TIP3   OH279536   4.841   2.217  14.280  0.2608 -0.3089 -0.0995
19374TIP3    H179537   4.906   2.282  14.254 -0.0992  0.6080  1.1609
19374TIP3    H279538   4.764   2.268  14.304 -0.5660 -1.3076 -0.5343
19375TIP3   OH279539   5.269   2.833   5.162  0.4253 -0.7375  0.1939
19375TIP3    H179540   5.352   2.873   5.188 -0.1485  0.8919 -0.3894
19375TIP3    H279541   5.292   2.773   5.092  1.1967 -0.8458  0.5282
19376TIP3   OH279542   1.067   2.330  14.081  0.1123  0.0555  0.4922
19376TIP3    H179543   0.982   2.376  14.083 -0.6015 -1.2187  0.3855
19376TIP3    H279544   1.088   2.322  13.989  0.5267  0.6652  0.5283
19377TIP3   OH279545   2.179   3.334  15.470 -0.2182  0.2280  0.6393
19377TIP3    H179546   2.101   3.283  15.450  0.1622  0.3653 -1.4814
19377TIP3    H279547   2.147   3.424  15.483 -0.5829 -0.0223  1.4755
19378TIP3   OH279548   3.896   1.511   6.244 -0.0432 -0.0678 -0.1462
19378TIP3    H179549   3.920   1.510   6.337 -1.3150 -1.1384  0.1920
19378TIP3    H279550   3.911   1.422   6.214  0.2701  0.2476 -0.9637
19379TIP3   OH279551   0.801   1.148   3.032 -0.4381 -0.4208 -0.2575
19379TIP3    H179552   0.736   1.078   3.040  0.6273 -1.3688  0.5740
19379TIP3    H279553   0.850   1.126   2.953  0.8475 -1.5014  0.7906
19380TIP3   OH279554   2.327   4.694   1.798 -0.5116  0.0236  0.4652
19380TIP3    H179555   2.235   4.692   1.770  0.0002  0.5037 -1.3455
19380TIP3    H279556   2.372   4.637   1.736  0.9032  2.2533 -0.6397
19381TIP3   OH279557   6.312   1.182   0.741 -0.8430 -0.2848  0.8079
19381TIP3    H179558   6.235   1.147   0.695 -1.0098  0.1038  0.7787
19381TIP3    H279559   6.285   1.186   0.833 -1.2940  0.9425  0.6466
19382TIP3   OH279560   1.772   2.670  13.162 -0.6312  0.6022  0.0092
19382TIP3    H179561   1.814   2.709  13.085  1.8468 -0.5266  0.6746
19382TIP3    H279562   1.753   2.745  13.219 -1.1826  1.3165 -1.0877
19383TIP3   OH279563   0.006   3.917  11.120 -0.1732  0.4886  1.2438
19383TIP3    H179564   0.055   3.955  11.193  0.8650 -0.2012  0.9378
19383TIP3    H279565  -0.082   3.952  11.129  0.1142  0.9600  2.4227
19384TIP3   OH279566   5.818   2.124   6.439  0.2672 -0.3433  0.2358
19384TIP3    H179567   5.888   2.070   6.476  0.1368  0.6107  1.9906
19384TIP3    H279568   5.738   2.088   6.477  0.2984  1.9960  2.7953
19385TIP3   OH279569   1.487   3.291   3.776  0.1906  0.1104  0.4657
19385TIP3    H179570   1.573   3.332   3.764 -0.4787  1.1693 -0.9884
19385TIP3    H279571   1.478   3.230   3.703 -0.6259  0.6477  0.0984
19386TIP3   OH279572   0.864   5.915   3.761  0.3552  0.0137 -0.6347
19386TIP3    H179573   0.802   5.977   3.800  2.2295  1.5312  0.0819
19386TIP3    H279574   0.884   5.854   3.832 -0.6084 -0.7754 -1.0059
19387TIP3   OH279575   0.397   5.662   4.570  0.0260 -0.1234  0.2043
19387TIP3    H179576   0.331   5.682   4.636 -0.1007  2.0035 -0.5024
19387TIP3    H279577   0.366   5.706   4.490  1.7814  0.0975 -0.4051
19388TIP3   OH279578   3.826   5.056   0.008  0.0326  0.4575 -0.3255
19388TIP3    H179579   3.752   5.035   0.066 -2.2571 -0.5334 -3.3201
19388TIP3    H279580   3.806   5.144  -0.025  1.3843  1.0774  0.4506
19389TIP3   OH279581   5.253   5.834  13.531  0.5095  0.1698 -0.0366
19389TIP3    H179582   5.345   5.826  13.557  0.6759  0.0419 -0.6578
19389TIP3    H279583   5.220   5.907  13.583  0.7258 -0.3420  0.8424
19390TIP3   OH279584   0.421   0.163  14.451  0.2489 -0.1080 -0.2348
19390TIP3    H179585   0.387   0.102  14.516  0.9206  0.6555  0.8627
19390TIP3    H279586   0.424   0.247  14.496 -0.1106  0.6377 -1.5306
19391TIP3   OH279587   6.450   6.717   4.516  0.0016  0.1692  0.2858
19391TIP3    H179588   6.420   6.757   4.598 -2.0105 -1.0375  0.2179
19391TIP3    H279589   6.370   6.705   4.465  1.0427 -0.3648 -1.2834
19392TIP3   OH279590   1.899   4.413  15.421 -0.2387 -0.0911  0.0698
19392TIP3    H179591   1.895   4.340  15.483 -0.5237 -1.7315 -1.7887
19392TIP3    H279592   1.841   4.479  15.459  0.1279 -0.7477  1.8777
19393TIP3   OH279593   1.585   1.180  11.879  0.0805 -0.3295  0.1894
19393TIP3    H179594   1.493   1.155  11.891 -0.1892  0.3602 -0.3699
19393TIP3    H279595   1.631   1.138  11.951 -0.6207 -0.9847  0.2643
19394TIP3   OH279596   1.024   4.823  12.352 -0.2385 -0.1219 -0.0852
19394TIP3    H179597   1.035   4.906  12.399  1.2099 -1.3639  1.9345
19394TIP3    H279598   0.948   4.783  12.395 -1.0556  0.1799 -1.1876
19395TIP3   OH279599   5.827   5.851   3.063  0.2079  0.1136 -0.0938
19395TIP3    H179600   5.848   5.787   3.130  0.2311 -0.0376 -0.2463
19395TIP3    H279601   5.907   5.903   3.054  0.1607  0.2193  0.0896
19396TIP3   OH279602   4.921   6.585  13.043  0.4585  0.4757  0.0984
19396TIP3    H179603   5.014   6.596  13.024  0.3340  0.3263 -0.6226
19396TIP3    H279604   4.890   6.674  13.063  0.7171  0.5489  0.1803
19397TIP3   OH279605   4.260   2.234   3.033  0.1733  0.3957 -0.1695
19397TIP3    H179606   4.257   2.249   3.127  2.4162 -1.5410  0.3063
19397TIP3    H279607   4.350   2.204   3.016 -0.5994 -0.7580 -2.6844
19398TIP3   OH279608   6.422   4.252  15.628  0.3950 -0.4616  0.4022
19398TIP3    H179609   6.442   4.326  15.686  1.3437  0.7226 -1.3389
19398TIP3    H279610   6.332   4.228  15.650 -1.1362  3.2347 -0.9471
19399TIP3   OH279611   2.332   3.968  14.343 -0.1699 -0.6391 -0.3333
19399TIP3    H179612   2.254   4.022  14.331 -0.7463 -1.6660 -1.3826
19399TIP3    H279613   2.336   3.952  14.438 -1.3489 -0.7334 -0.2925
19400TIP3   OH279614   3.176   6.507  10.210  0.5174  0.1369  0.1708
19400TIP3    H179615   3.224   6.430  10.241 -0.3353  0.1372  1.6052
19400TIP3    H279616   3.133   6.542  10.289 -0.8561  0.8291 -0.8370
19401TIP3   OH279617   3.592   1.641  16.193 -1.2410  0.4141  0.2696
19401TIP3    H179618   3.654   1.620  16.263  0.4234  1.8430 -0.7328
19401TIP3    H279619   3.608   1.732  16.172 -2.1801  0.2136 -1.5361
19402TIP3   OH279620   1.887   0.718  15.204 -0.4679 -0.7583 -0.1709
19402TIP3    H179621   1.938   0.697  15.283  0.0751 -0.7823 -0.5221
19402TIP3    H279622   1.865   0.811  15.213  1.7125 -0.0712 -1.1360
19403TIP3   OH279623   0.226   5.435   2.710 -0.1125  0.2379  0.2995
19403TIP3    H179624   0.284   5.460   2.782 -0.1460 -0.4733  0.5806
19403TIP3    H279625   0.283   5.388   2.649  0.2037  1.9217 -0.7805
19404TIP3   OH279626   1.671   5.082  11.114 -0.1914 -0.1037 -0.2892
19404TIP3    H179627   1.720   5.152  11.156  0.2977 -0.4467 -0.2840
19404TIP3    H279628   1.731   5.046  11.048 -0.3888 -0.6046 -0.2021
19405TIP3   OH279629   3.460   5.208  15.818 -0.1259  0.0122 -0.1661
19405TIP3    H179630   3.481   5.248  15.734 -1.9539  1.8726  0.1782
19405TIP3    H279631   3.545   5.192  15.860  0.7961 -0.6307 -2.1884
19406TIP3   OH279632   5.031   3.838   2.816  0.0044 -0.4380 -0.1254
19406TIP3    H179633   4.967   3.836   2.745  0.7330 -0.3671 -0.7970
19406TIP3    H279634   4.993   3.781   2.884 -1.0229  0.0538 -0.2708
19407TIP3   OH279635   2.843   3.573  16.551  0.3655 -0.1073 -0.2106
19407TIP3    H179636   2.846   3.526  16.634 -0.1135 -0.5159 -0.4153
19407TIP3    H279637   2.850   3.504  16.485 -0.8417  0.0446 -0.5216
19408TIP3   OH279638   6.569   3.706   0.270 -0.6275  0.2099 -0.1931
19408TIP3    H179639   6.575   3.741   0.181 -2.9899  1.6275  0.0944
19408TIP3    H279640   6.561   3.612   0.258 -3.8745  0.5400 -1.8239
19409TIP3   OH279641   3.058   0.888   0.797 -0.2560 -0.2989  0.3406
19409TIP3    H179642   3.015   0.803   0.800 -2.2132  0.6287  0.3971
19409TIP3    H279643   3.049   0.917   0.706  0.2692 -0.0962  0.3513
19410TIP3   OH279644   3.758   6.185  16.053 -0.9044  0.3358 -0.1026
19410TIP3    H179645   3.786   6.100  16.017 -0.3104  0.3652  0.2851
19410TIP3    H279646   3.673   6.200  16.012 -0.2907  0.3323 -1.4590
19411TIP3   OH279647   2.916   6.201  12.700  0.0039  0.1901  0.2001
19411TIP3    H179648   3.011   6.201  12.696 -0.0238  0.8082 -0.5941
19411TIP3    H279649   2.896   6.203  12.794  0.7580 -1.0043  0.4004
19412TIP3   OH279650   6.213   6.703   5.636  0.4087  0.1061 -0.2223
19412TIP3    H179651   6.157   6.687   5.560 -0.2162  1.0800  0.0130
19412TIP3    H279652   6.203   6.797   5.653  0.1116 -0.2020  1.4000
19413TIP3   OH279653   2.312   2.590   3.973  0.4504  0.5176  0.6388
19413TIP3    H179654   2.316   2.684   3.991  0.8388  0.6962 -0.3666
19413TIP3    H279655   2.260   2.583   3.893  2.3596  0.0635 -0.6100
19414TIP3   OH279656   4.651   4.046   0.960 -0.0146  0.2098 -0.6292
19414TIP3    H179657   4.697   4.111   1.013 -0.8554  0.5754 -0.3401
19414TIP3    H279658   4.697   3.964   0.978 -0.8909  0.1347  1.4571
19415TIP3   OH279659   4.548   1.790   4.844  0.0387  0.3184  0.5235
19415TIP3    H179660   4.480   1.848   4.879  0.8678  0.0728  2.6723
19415TIP3    H279661   4.500   1.730   4.786 -1.3593  1.0004  0.9355
19416TIP3   OH279662   1.567   2.912  12.867  0.5249  0.9805  0.2040
19416TIP3    H179663   1.542   2.867  12.786  0.5495  1.3301  0.0021
19416TIP3    H279664   1.659   2.887  12.880  0.5530  1.0108  0.0663
19417TIP3   OH279665   2.224   5.483   3.529 -0.1199 -0.5533  0.1705
19417TIP3    H179666   2.253   5.430   3.603 -0.0099 -1.3178 -0.4018
19417TIP3    H279667   2.129   5.476   3.530 -0.3768  1.9447  2.0420
19418TIP3   OH279668   6.771   5.817  15.829 -0.0193 -0.1888  0.6077
19418TIP3    H179669   6.747   5.794  15.919 -1.0489  3.1902  1.3349
19418TIP3    H279670   6.858   5.856  15.837  0.1147 -0.3625  0.0129
19419TIP3   OH279671   2.792   0.478  15.045  0.0480 -0.2279  0.6066
19419TIP3    H179672   2.865   0.473  14.983  0.0970  0.9814  0.5433
19419TIP3    H279673   2.806   0.404  15.104  0.9850 -0.3728  0.2234
19420TIP3   OH279674   2.472   5.514  16.096 -0.5574  0.4239 -0.3005
19420TIP3    H179675   2.444   5.447  16.034  0.9265  0.4974 -1.1233
19420TIP3    H279676   2.465   5.473  16.182 -1.7495 -0.0148 -0.5951
19421TIP3   OH279677   4.200   3.197   4.253  0.4529 -0.9712 -0.2541
19421TIP3    H179678   4.189   3.292   4.249  2.6213 -0.5615  1.6786
19421TIP3    H279679   4.207   3.170   4.161  2.1369  1.0667 -0.7871
19422TIP3   OH279680   1.470   4.481   1.947  0.0310 -0.2285  0.0230
19422TIP3    H179681   1.555   4.495   1.906 -0.3649  0.0843 -0.7158
19422TIP3    H279682   1.427   4.415   1.893 -1.3803  1.7694 -1.4786
19423TIP3   OH279683   1.423   4.015   6.363  0.1603  0.2419 -0.1958
19423TIP3    H179684   1.435   4.064   6.444  0.4998 -0.1475 -0.0067
19423TIP3    H279685   1.329   4.016   6.348  0.2682  2.2382 -1.0131
19424TIP3   OH279686   0.160   5.313   5.772 -0.0070  0.3143 -0.0129
19424TIP3    H179687   0.240   5.261   5.785 -0.4596  0.1216  2.4459
19424TIP3    H279688   0.152   5.366   5.852 -1.7075  1.2264 -0.7268
19425TIP3   OH279689   4.721   2.714   3.492 -1.4360 -0.2780  0.2246
19425TIP3    H179690   4.653   2.748   3.433 -1.2162  0.0153  0.1382
19425TIP3    H279691   4.726   2.621   3.471 -1.8801 -0.3188  0.2982
19426TIP3   OH279692   2.945   3.331  17.042 -0.4996  0.0440  0.1862
19426TIP3    H179693   2.898   3.313  17.124  0.6093 -0.0903  0.8118
19426TIP3    H279694   2.989   3.249  17.021 -2.4632 -0.6215 -1.7450
19427TIP3   OH279695   2.745   6.039   3.312  0.3329 -0.3185 -0.1169
19427TIP3    H179696   2.665   6.014   3.359  0.0608  1.6076  0.5266
19427TIP3    H279697   2.800   5.960   3.314 -0.8910 -1.1880  0.8079
19428TIP3   OH279698   6.222   4.732   5.031 -0.2202 -0.4303  0.1157
19428TIP3    H179699   6.301   4.680   5.044 -0.2504 -0.2974  0.9472
19428TIP3    H279700   6.210   4.736   4.937 -0.1672 -1.8541  0.0235
19429TIP3   OH279701   4.939   3.598   2.219  0.3432  0.1811  0.7979
19429TIP3    H179702   4.968   3.689   2.217  0.0187  0.2733 -0.9017
19429TIP3    H279703   4.845   3.602   2.202  0.4233 -0.5003  0.1777
19430TIP3   OH279704   0.671   0.870  14.925 -0.3383  0.1775  0.1655
19430TIP3    H179705   0.764   0.862  14.943 -0.8561  0.1659  3.2495
19430TIP3    H279706   0.628   0.855  15.009 -2.9533  3.3267 -0.3982
19431TIP3   OH279707   5.122   5.929  16.513 -0.7981  0.1004 -0.4250
19431TIP3    H179708   5.100   5.991  16.443 -0.4195 -0.1273 -0.7530
19431TIP3    H279709   5.218   5.925  16.511 -0.8342 -0.9845 -0.8425
19432TIP3   OH279710   2.558   1.078   6.556  0.2075  0.2791 -0.5044
19432TIP3    H179711   2.555   0.986   6.529 -0.9259 -0.1128  0.8153
19432TIP3    H279712   2.544   1.127   6.475 -1.7737 -0.8091 -0.8986
19433TIP3   OH279713   6.692   1.143   0.438 -0.2864 -0.3023 -0.3317
19433TIP3    H179714   6.701   1.059   0.484  1.3827 -0.0394 -0.1252
19433TIP3    H279715   6.598   1.149   0.418 -0.6840 -1.5017  0.9899
19434TIP3   OH279716   4.264   2.393  14.170  0.6518  0.1336 -0.0660
19434TIP3    H179717   4.180   2.354  14.145  1.2933 -2.1268  1.0054
19434TIP3    H279718   4.321   2.378  14.095  0.5087  0.2815 -0.2036
19435TIP3   OH279719   4.252   4.534  11.013 -0.2043  0.1514 -0.1155
19435TIP3    H179720   4.347   4.523  11.006  0.0152  0.6599  1.5148
19435TIP3    H279721   4.238   4.560  11.104 -1.8337  0.9345 -0.5522
19436TIP3   OH279722   2.364   5.072  11.742  0.0800 -0.0603  0.0011
19436TIP3    H179723   2.347   5.138  11.675 -0.5602  0.5097  0.6893
19436TIP3    H279724   2.340   4.989  11.702 -1.6406  0.4171 -0.0487
19437TIP3   OH279725   6.266   1.124  15.865  0.2200 -0.1484  0.6858
19437TIP3    H179726   6.229   1.162  15.945  0.1649  0.1814  0.5029
19437TIP3    H279727   6.330   1.188  15.835  1.0132 -0.7492  1.0442
19438TIP3   OH279728   4.986   0.718  15.790 -0.0872 -0.0058  0.0756
19438TIP3    H179729   4.960   0.685  15.876  0.2032  0.5477  0.3748
19438TIP3    H279730   5.034   0.799  15.808 -1.3026  0.9203 -0.6805
19439TIP3   OH279731   4.623   3.241  16.219 -0.1179 -0.7191 -0.3114
19439TIP3    H179732   4.659   3.293  16.290 -1.0794 -0.1630 -0.2098
19439TIP3    H279733   4.690   3.244  16.150  1.5810 -2.6376  1.1296
19440TIP3   OH279734   2.333   4.662   0.588 -0.0496  0.6446 -0.7921
19440TIP3    H179735   2.416   4.708   0.599 -0.8152  1.8698  0.1258
19440TIP3    H279736   2.302   4.690   0.502  1.1338 -0.9438 -1.7783
19441TIP3   OH279737   2.679   1.279   5.210  0.6242  0.5504  0.5657
19441TIP3    H179738   2.643   1.350   5.156 -0.3418  1.1068  1.8860
19441TIP3    H279739   2.681   1.204   5.152  0.7759  1.4276 -0.6041
19442TIP3   OH279740   3.391   5.095   1.671 -0.0121  0.5305  0.0877
19442TIP3    H179741   3.398   5.095   1.576 -1.3673 -0.1925 -0.0443
19442TIP3    H279742   3.374   5.186   1.694  2.6195  1.1421 -0.1054
19443TIP3   OH279743   4.639   2.659  13.235 -0.7825 -0.0361  0.1569
19443TIP3    H179744   4.637   2.563  13.233  1.0265 -0.1068  0.1126
19443TIP3    H279745   4.667   2.684  13.147 -2.7195  0.6367 -0.3087
19444TIP3   OH279746   1.469   0.632  10.298 -0.4707 -0.0139  0.4726
19444TIP3    H179747   1.448   0.566  10.365 -1.7866 -0.4129 -0.2959
19444TIP3    H279748   1.398   0.696  10.303 -0.0014  0.5415  0.1902
19445TIP3   OH279749   3.170   1.096   3.642 -0.2034 -0.0038 -0.2912
19445TIP3    H179750   3.213   1.181   3.629  0.4523 -0.5860 -2.4479
19445TIP3    H279751   3.126   1.079   3.558 -0.2136 -1.8413  0.0416
19446TIP3   OH279752   4.731   1.160  13.631 -0.0762  0.2863  0.5285
19446TIP3    H179753   4.673   1.229  13.599  0.2198  1.0212  1.5660
19446TIP3    H279754   4.759   1.114  13.551 -2.9912 -0.8593  0.0636
19447TIP3   OH279755   1.325   2.341  15.703  0.2459 -0.0950 -0.4466
19447TIP3    H179756   1.266   2.272  15.674 -0.0875 -0.3415  0.7786
19447TIP3    H279757   1.300   2.417  15.651 -0.2187 -0.5667 -0.9219
19448TIP3   OH279758   5.108   4.344   0.345 -0.4318  0.0392 -0.1559
19448TIP3    H179759   5.175   4.285   0.379  2.3469  1.7649 -2.1470
19448TIP3    H279760   5.127   4.428   0.387 -1.2295  0.6220 -0.9192
19449TIP3   OH279761   6.706   5.967   4.422 -0.5944  0.3045 -0.1976
19449TIP3    H179762   6.738   5.891   4.470  0.4670  1.1974  0.5566
19449TIP3    H279763   6.730   6.042   4.477  0.4501  1.3517 -1.9924
19450TIP3   OH279764   0.700   2.916  16.838 -0.0395 -0.1547 -0.7919
19450TIP3    H179765   0.646   2.863  16.779  0.6758  0.4055 -1.9826
19450TIP3    H279766   0.789   2.883  16.826  0.3860  1.1178 -1.3689
19451TIP3   OH279767   2.251   2.344  16.811  0.0615  0.6047 -0.1023
19451TIP3    H179768   2.308   2.392  16.752  0.3624 -0.9591 -1.1740
19451TIP3    H279769   2.310   2.294  16.867 -0.2294  1.9273  1.4410
19452TIP3   OH279770   0.230   5.955   0.964  0.2636  0.0741 -0.5405
19452TIP3    H179771   0.150   5.940   0.914  1.1344 -0.4545 -1.8400
19452TIP3    H279772   0.259   5.867   0.990  1.1570  0.1174 -1.3141
19453TIP3   OH279773   3.240   5.378  11.926 -0.1326 -0.0036 -0.1544
19453TIP3    H179774   3.230   5.459  11.875 -0.8457  0.0518  0.0636
19453TIP3    H279775   3.313   5.396  11.985  1.5988 -0.5293 -2.0252
19454TIP3   OH279776   0.039   0.026  14.351  0.5432 -0.3480 -0.9122
19454TIP3    H179777  -0.027   0.088  14.383  0.7582 -0.4537 -0.2552
19454TIP3    H279778   0.096   0.079  14.295  2.6329  0.8875  2.0787
19455TIP3   OH279779   5.029   3.142  15.763 -0.6309  0.7548  0.1817
19455TIP3    H179780   4.946   3.095  15.764 -1.4549  2.0632 -1.2329
19455TIP3    H279781   5.044   3.167  15.854 -1.5167  0.0470  0.5349
19456TIP3   OH279782   1.412   0.758  14.056 -0.5049  0.1824 -0.1600
19456TIP3    H179783   1.424   0.828  13.992 -1.1214 -1.4176 -2.1425
19456TIP3    H279784   1.381   0.802  14.135  0.7605  2.2890 -0.7739
19457TIP3   OH279785   5.626   4.872  12.656 -0.1729  0.2071 -0.2631
19457TIP3    H179786   5.621   4.843  12.748  0.0843  2.6590  0.5869
19457TIP3    H279787   5.599   4.795  12.606  1.4202 -1.8166  1.7447
19458TIP3   OH279788   4.877   0.532  14.766  0.4639  0.2831  0.4093
19458TIP3    H179789   4.876   0.598  14.835  0.4516  1.6968 -0.8946
19458TIP3    H279790   4.894   0.581  14.686 -1.1570 -1.0823 -0.8496
19459TIP3   OH279791   4.581   6.012  11.576  0.5703  0.0386 -0.0975
19459TIP3    H179792   4.545   5.940  11.627 -0.2967  0.5619  0.0482
19459TIP3    H279793   4.552   6.091  11.621 -0.1847  0.5135 -1.3408
19460TIP3   OH279794   6.016   4.984  10.901 -0.1216  0.4480 -0.0654
19460TIP3    H179795   5.948   4.966  10.966  1.4711 -0.9175  1.3312
19460TIP3    H279796   5.969   5.020  10.826 -2.1700  1.0540  1.4224
19461TIP3   OH279797   2.968   4.498   2.883  0.0711 -0.1247  0.4077
19461TIP3    H179798   3.026   4.492   2.807  1.3640  0.2546  1.3180
19461TIP3    H279799   2.896   4.439   2.864 -0.0896  0.6408 -1.5016
19462TIP3   OH279800   2.842   1.695  15.732  0.1777 -0.0186  0.0745
19462TIP3    H179801   2.825   1.614  15.780  0.2007  0.1168  0.3139
19462TIP3    H279802   2.765   1.749  15.748 -0.6931 -0.6969 -1.6082
19463TIP3   OH279803   1.377   1.417  11.962  0.8781  1.1686 -0.3264
19463TIP3    H179804   1.404   1.449  11.876  0.5990  2.0249 -0.1087
19463TIP3    H279805   1.296   1.369  11.946 -0.3695  3.1411 -0.2945
19464TIP3   OH279806   2.493   4.613  13.297  0.8221 -0.3287  0.2733
19464TIP3    H179807   2.444   4.693  13.317  1.2391  0.9782 -3.2398
19464TIP3    H279808   2.566   4.614  13.360  0.0419  1.2878  1.2206
19465TIP3   OH279809   2.488   3.518   1.610 -0.3328 -0.0773  0.0723
19465TIP3    H179810   2.495   3.489   1.519  0.6114 -1.2212  0.4885
19465TIP3    H279811   2.578   3.524   1.641 -0.5865  1.3160  0.6500
19466TIP3   OH279812   4.830   1.982  14.053  0.2086  0.4741  0.5187
19466TIP3    H179813   4.856   1.948  14.139  0.0787  2.6637  1.4996
19466TIP3    H279814   4.913   2.004  14.011  0.3544 -1.7205 -0.5036
19467TIP3   OH279815   5.724   4.821  16.537  0.0453 -0.1824 -0.0682
19467TIP3    H179816   5.670   4.801  16.614 -0.8639 -0.0974 -0.6596
19467TIP3    H279817   5.683   4.771  16.466  1.2393 -0.7586 -0.3869
19468TIP3   OH279818   0.282   3.930  12.020 -0.1407  0.3065  0.1285
19468TIP3    H179819   0.222   3.861  11.991  1.8046  0.3704 -5.3135
19468TIP3    H279820   0.363   3.884  12.041  0.5221  0.6790 -1.4607
19469TIP3   OH279821   2.562   0.897   2.964  0.1482 -0.8417 -0.1553
19469TIP3    H179822   2.605   0.816   2.935 -0.2691 -0.5980 -1.5618
19469TIP3    H279823   2.633   0.955   2.988  0.4646 -1.5212  0.6098
19470TIP3   OH279824   5.985   6.772  14.653 -0.1155  0.4646 -0.3752
19470TIP3    H179825   6.066   6.823  14.661 -0.2697  0.5794  0.5423
19470TIP3    H279826   5.989   6.710  14.726 -0.2633 -0.3863 -1.0694
19471TIP3   OH279827   3.398   2.569  16.699 -0.0433  0.0736  0.0601
19471TIP3    H179828   3.376   2.660  16.715  1.6801  0.4301  0.7293
19471TIP3    H279829   3.315   2.522  16.705 -0.4999  1.0009  4.3193
19472TIP3   OH279830   3.275   6.653   5.025  0.1982 -0.1536 -0.3481
19472TIP3    H179831   3.358   6.699   5.010 -0.3599  0.5627 -1.4232
19472TIP3    H279832   3.250   6.622   4.938 -0.7213 -0.2472 -0.0554
19473TIP3   OH279833   3.322   3.065  12.143  0.0887 -0.5283  0.1418
19473TIP3    H179834   3.418   3.069  12.146  0.0314  2.6118  0.3774
19473TIP3    H279835   3.300   3.092  12.054 -0.6221 -0.4920  0.3220
19474TIP3   OH279836   1.861   5.410  13.378  0.1629 -0.1223  0.6115
19474TIP3    H179837   1.787   5.349  13.373 -0.2162  0.3455  0.4349
19474TIP3    H279838   1.906   5.400  13.294 -2.0429  2.4972 -1.0573
19475TIP3   OH279839   2.814   5.073   4.403  0.1788  0.2338 -0.1715
19475TIP3    H179840   2.757   5.012   4.449 -1.1669  1.1211 -0.6279
19475TIP3    H279841   2.778   5.160   4.423  2.2742  0.9547  0.7939
19476TIP3   OH279842   5.047   3.172  13.412  0.0268 -0.8417 -0.4906
19476TIP3    H179843   5.013   3.252  13.452  1.0678 -0.3877 -0.4646
19476TIP3    H279844   4.974   3.111  13.413 -0.8432  0.1692 -0.6745
19477TIP3   OH279845   0.407   5.654   0.476  0.4350  0.0620 -0.5587
19477TIP3    H179846   0.331   5.630   0.424 -1.1948  0.7703  1.3969
19477TIP3    H279847   0.375   5.657   0.566  1.9683  3.5525  0.0143
19478TIP3   OH279848   1.341   3.296  13.618  0.3791  0.2587  0.1124
19478TIP3    H179849   1.379   3.235  13.681  0.4088 -1.7573 -1.7090
19478TIP3    H279850   1.416   3.333  13.572  0.3081  0.4352  0.1369
19479TIP3   OH279851   4.668   5.066   0.837  0.4407 -0.4829  0.5791
19479TIP3    H179852   4.661   5.158   0.812 -0.3132 -0.0671  2.1890
19479TIP3    H279853   4.758   5.042   0.814 -0.3955 -0.5095 -3.3956
19480TIP3   OH279854   1.592   3.799   4.527  0.0143  0.5541  0.0067
19480TIP3    H179855   1.686   3.819   4.518  0.4250 -1.1152  0.2002
19480TIP3    H279856   1.562   3.784   4.438  0.2765 -0.3048  0.0590
19481TIP3   OH279857   3.197   2.144   0.783 -0.0421  0.2249  0.2912
19481TIP3    H179858   3.277   2.189   0.810 -0.4530  1.7533 -0.8833
19481TIP3    H279859   3.141   2.145   0.861  1.6318 -2.4128  1.6882
19482TIP3   OH279860   1.837   1.891  15.229 -0.0940 -0.0503 -0.3555
19482TIP3    H179861   1.796   1.901  15.315  0.6558  0.7375 -0.0830
19482TIP3    H279862   1.809   1.804  15.199  1.3296 -1.2645  1.6051
19483TIP3   OH279863   4.601   5.092  12.515  0.3038 -0.1508  0.4521
19483TIP3    H179864   4.551   5.161  12.560 -1.5512 -1.1757  0.0711
19483TIP3    H279865   4.550   5.075  12.436  1.3274 -1.2233  0.0077
19484TIP3   OH279866   0.463   1.627  10.295 -0.9652 -0.1193  0.1350
19484TIP3    H179867   0.535   1.689  10.295  0.5697 -1.8009 -0.2460
19484TIP3    H279868   0.386   1.679  10.273  0.1971  1.6665  0.1187
19485TIP3   OH279869   1.072   0.256   3.222 -0.6123 -0.2742 -0.3247
19485TIP3    H179870   1.153   0.245   3.271  0.5755  0.8973 -1.9196
19485TIP3    H279871   1.006   0.271   3.289  0.9313  1.1734  0.9584
19486TIP3   OH279872   6.031   3.585  15.399 -0.0259  0.4740 -0.0059
19486TIP3    H179873   6.070   3.623  15.321  0.3796  1.1425  0.5023
19486TIP3    H279874   5.975   3.514  15.367  0.2547  0.6372 -0.8781
19487TIP3   OH279875   3.993   6.665  12.265 -0.1278  0.1157 -0.1871
19487TIP3    H179876   3.944   6.736  12.306  0.7306 -0.1545  1.4179
19487TIP3    H279877   4.085   6.686  12.283  0.1140 -2.1423  1.7664
19488TIP3   OH279878   6.745   5.899   3.548 -0.1668  0.0366  0.0383
19488TIP3    H179879   6.704   5.828   3.499  0.4112  0.4733 -1.1196
19488TIP3    H279880   6.671   5.951   3.580 -0.5674 -0.5729  0.1293
19489TIP3   OH279881   3.195   2.140   1.297  0.2854 -0.2476 -0.0632
19489TIP3    H179882   3.138   2.216   1.282 -0.1237 -0.8789 -1.8535
19489TIP3    H279883   3.179   2.082   1.223  1.9173 -1.2992  0.3559
19490TIP3   OH279884   3.862   4.444   4.964 -0.7275  0.2491  0.2351
19490TIP3    H179885   3.872   4.522   4.909  1.1207  0.0160  0.1704
19490TIP3    H279886   3.945   4.397   4.955 -0.4363  0.0472  2.9990
19491TIP3   OH279887   6.062   3.183  11.718 -0.3964  0.1229  0.0422
19491TIP3    H179888   6.075   3.277  11.706 -2.9584  0.4946 -0.2504
19491TIP3    H279889   6.027   3.174  11.806 -1.5680 -0.3816 -0.4623
19492TIP3   OH279890   2.680   3.685   2.758 -0.2668  0.1258 -0.2029
19492TIP3    H179891   2.614   3.635   2.807 -0.4889  0.6940  0.0894
19492TIP3    H279892   2.732   3.618   2.714 -1.2175 -0.3264 -0.6722
19493TIP3   OH279893   1.808   1.467   4.742  0.2159  0.1748 -0.1337
19493TIP3    H179894   1.782   1.378   4.717  2.3120 -0.7873  0.8284
19493TIP3    H279895   1.767   1.524   4.677 -0.8060 -1.5273 -1.0442
19494TIP3   OH279896   4.520   2.526   1.539  0.0013 -0.5323  0.4774
19494TIP3    H179897   4.609   2.548   1.509 -0.2918 -0.9887 -0.7746
19494TIP3    H279898   4.534   2.472   1.617  0.8604 -1.3712 -0.2251
19495TIP3   OH279899   2.426   3.584  15.730 -0.6192 -0.1092 -0.2438
19495TIP3    H179900   2.504   3.541  15.694 -0.8399 -1.2752  0.6117
19495TIP3    H279901   2.398   3.528  15.802 -0.8808  1.5441  1.0052
19496TIP3   OH279902   5.188   5.999   4.039 -0.2733  0.0657 -0.5631
19496TIP3    H179903   5.150   5.999   3.951 -2.7656  0.5147  0.4265
19496TIP3    H279904   5.253   6.070   4.037 -0.0601 -0.1437 -2.1172
19497TIP3   OH279905   0.504   1.898   2.545 -0.0027 -0.0610  0.0048
19497TIP3    H179906   0.412   1.880   2.522 -0.8369  1.9189  1.4143
19497TIP3    H279907   0.498   1.958   2.620  2.4629  0.3141 -0.0172
19498TIP3   OH279908   0.593   2.228  15.720  0.3270  0.1248 -0.0912
19498TIP3    H179909   0.559   2.233  15.809  2.0470 -0.5087  0.6415
19498TIP3    H279910   0.526   2.179  15.671 -0.9163  1.0120  0.6750
19499TIP3   OH279911   2.504   5.144   4.261  0.2680 -0.4888  0.0141
19499TIP3    H179912   2.506   5.183   4.174 -0.1823 -0.6819 -0.0857
19499TIP3    H279913   2.491   5.218   4.320 -0.2028 -0.4426 -0.1441
19500TIP3   OH279914   0.569   5.432  15.945 -0.4459 -0.1223 -0.2367
19500TIP3    H179915   0.653   5.464  15.913  0.4758 -2.5243 -0.4681
19500TIP3    H279916   0.506   5.453  15.876  0.5333 -0.7186 -1.3501
19501TIP3   OH279917   5.390   4.550  13.898  0.2819  0.2690 -0.1159
19501TIP3    H179918   5.461   4.487  13.890  1.6462  1.7768 -0.2752
19501TIP3    H279919   5.411   4.619  13.836 -1.9676  0.2085 -1.0584
19502TIP3   OH279920   3.752   4.219  12.752 -0.4118 -0.1267  0.1779
19502TIP3    H179921   3.836   4.249  12.786  0.2338 -0.2314 -1.2446
19502TIP3    H279922   3.774   4.174  12.670 -1.5734 -2.6026  1.1404
19503TIP3   OH279923   5.497   6.214   3.696 -0.5384 -0.0477  0.0360
19503TIP3    H179924   5.462   6.288   3.745 -1.8135 -0.2564 -0.5132
19503TIP3    H279925   5.547   6.164   3.760  0.5203  1.3672  0.3655
19504TIP3   OH279926   3.616   3.103  15.227  0.4739 -0.1134  0.0857
19504TIP3    H179927   3.608   3.192  15.193  1.3445 -0.1638 -0.2669
19504TIP3    H279928   3.663   3.114  15.310  1.7379 -0.3569 -0.5780
19505TIP3   OH279929   3.954   2.543  13.055 -0.7525 -0.3487  0.0153
19505TIP3    H179930   4.017   2.575  13.119 -2.4310 -1.0305  2.1462
19505TIP3    H279931   4.006   2.495  12.991  1.1675  1.7005 -0.0784
19506TIP3   OH279932   2.665   1.055   5.059 -0.1369 -0.0950 -0.0831
19506TIP3    H179933   2.736   1.069   4.996 -0.2859 -0.3879 -0.3198
19506TIP3    H279934   2.620   0.976   5.027  0.9721 -1.4241  1.4508
19507TIP3   OH279935   2.175   3.099  16.085  0.5037  0.2121  0.2835
19507TIP3    H179936   2.193   3.021  16.139  0.5105  1.1305  1.6622
19507TIP3    H279937   2.140   3.064  16.003 -0.1161 -1.2284  1.1267
19508TIP3   OH279938   2.354   5.330   3.103 -0.2738  0.0176 -0.3832
19508TIP3    H179939   2.271   5.291   3.075 -0.9549  0.2082  1.2454
19508TIP3    H279940   2.374   5.285   3.185  0.9238  0.4228 -0.4430
19509TIP3   OH279941   3.573   0.880  16.772  0.2358 -0.3527 -0.2484
19509TIP3    H179942   3.548   0.936  16.845  0.8314 -1.2755  0.6976
19509TIP3    H279943   3.667   0.866  16.785  0.1355 -1.3947 -0.5737
19510TIP3   OH279944   4.651   2.712  12.141  0.1941  0.3221  0.0761
19510TIP3    H179945   4.564   2.705  12.103 -0.8433  1.1675  2.1660
19510TIP3    H279946   4.673   2.805  12.133  0.4643  0.2947  0.4856
19511TIP3   OH279947   0.694   0.567   1.697 -0.6386 -0.3613 -0.4058
19511TIP3    H179948   0.607   0.539   1.669 -0.5848 -0.0219 -0.9513
19511TIP3    H279949   0.679   0.618   1.777 -1.0737  0.5874 -1.0624
19512TIP3   OH279950   3.315   4.618  15.112  0.4125  0.0971  0.0624
19512TIP3    H179951   3.291   4.693  15.058 -0.5911  0.7698  1.3865
19512TIP3    H279952   3.235   4.596  15.159  1.3796 -0.0696  1.7242
19513TIP3   OH279953   2.228   2.131  14.904 -0.3346  0.1334 -0.2026
19513TIP3    H179954   2.186   2.099  14.984 -0.4746  0.3387 -0.1937
19513TIP3    H279955   2.247   2.052  14.853  0.4348 -0.0614  0.3642
19514TIP3   OH279956   3.795   6.015  17.003  0.0272 -0.0680  0.1375
19514TIP3    H179957   3.849   5.989  16.928  0.6724 -1.7814  1.1437
19514TIP3    H279958   3.859   6.044  17.068 -0.5790  2.2932 -0.2331
19515TIP3   OH279959   2.754   5.339   4.400 -0.3022 -0.3786 -0.0634
19515TIP3    H179960   2.672   5.310   4.441  0.0967 -0.7558  0.4781
19515TIP3    H279961   2.749   5.435   4.403 -1.9962 -0.2843 -2.6004
19516TIP3   OH279962   1.306   2.940   0.821  0.6661 -0.1318  0.0104
19516TIP3    H179963   1.272   2.903   0.740 -0.4420  0.4075  0.2115
19516TIP3    H279964   1.290   2.873   0.887  0.0049  0.1079  0.0983
19517TIP3   OH279965   5.379   6.361   1.676  0.3579 -0.5156  0.1718
19517TIP3    H179966   5.386   6.276   1.634  2.2965  0.3062 -1.3169
19517TIP3    H279967   5.341   6.418   1.609 -1.4687 -0.2939  1.3405
19518TIP3   OH279968   1.203   1.637  13.294  0.5770  0.6035 -0.4933
19518TIP3    H179969   1.144   1.705  13.327 -0.5513 -1.0885  1.1157
19518TIP3    H279970   1.147   1.578  13.244  0.4731 -1.7879  2.1859
19519TIP3   OH279971   0.073   4.840  14.294 -0.3655 -0.0228  0.1853
19519TIP3    H179972   0.051   4.758  14.339 -0.5443 -0.3157 -0.4269
19519TIP3    H279973   0.055   4.909  14.358  1.1828 -0.5430  1.2297
19520TIP3   OH279974   4.689   5.480   0.412  0.1153 -0.1281 -0.2755
19520TIP3    H179975   4.732   5.521   0.337  0.5324  0.3808  0.2347
19520TIP3    H279976   4.634   5.549   0.449 -0.0042 -0.3422 -0.0496
19521TIP3   OH279977   2.163   6.182  14.496 -0.6203  0.1386  0.5719
19521TIP3    H179978   2.071   6.204  14.478 -0.5302 -0.4894 -0.8157
19521TIP3    H279979   2.161   6.088  14.513 -0.1088 -0.1024 -0.5965
19522TIP3   OH279980   6.021   5.434  16.034 -0.2088  0.0065  0.1226
19522TIP3    H179981   6.117   5.439  16.044 -0.2535 -0.5386  0.8882
19522TIP3    H279982   5.991   5.523  16.052  0.1682  0.2250 -0.3061
19523TIP3   OH279983   3.029   4.350  15.476 -0.2036 -0.2590  0.1605
19523TIP3    H179984   3.016   4.437  15.515 -0.6285  0.3238 -1.1963
19523TIP3    H279985   3.113   4.358  15.430 -1.2535  0.1823 -1.7824
19524TIP3   OH279986   2.007   2.428   4.064 -0.2213 -0.4632 -0.1612
19524TIP3    H179987   1.984   2.357   4.124 -0.5772  0.2895  0.6315
19524TIP3    H279988   2.089   2.400   4.023  0.0679 -0.9866  0.7353
19525TIP3   OH279989   6.604   0.689  15.386 -0.6913  0.0314  0.1584
19525TIP3    H179990   6.602   0.604  15.430 -3.7430  0.4355  1.0837
19525TIP3    H279991   6.566   0.673  15.300  1.0998  0.0575 -0.6713
19526TIP3   OH279992   3.673   1.717  14.437  0.4946 -0.1526 -0.0932
19526TIP3    H179993   3.742   1.773  14.401  0.5756 -1.2426 -1.7722
19526TIP3    H279994   3.592   1.753  14.401  0.2917  0.4156  0.9146
19527TIP3   OH279995   2.115   2.199   3.051  0.4064  0.2510 -0.3490
19527TIP3    H179996   2.129   2.285   3.011  0.9933  0.7040  0.7684
19527TIP3    H279997   2.203   2.161   3.055  0.0921 -0.5715 -1.1975
19528TIP3   OH279998   6.656   0.675   3.445  0.8464 -0.2181 -0.9064
19528TIP3    H179999   6.586   0.696   3.383  0.8815  1.1877 -0.5112
19528TIP3    H280000   6.667   0.581   3.438 -3.5207 -1.1667  1.5278
19529TIP3   OH280001   0.562   0.735   4.240  0.3805  0.0992 -0.1629
19529TIP3    H180002   0.579   0.774   4.326 -1.0373 -0.7979  0.5770
19529TIP3    H280003   0.563   0.808   4.179  1.7797  0.7097  0.5506
19530TIP3   OH280004   5.961   4.201  15.062  0.3287  0.5608  0.5638
19530TIP3    H180005   5.935   4.123  15.014  0.1244  1.0591 -0.1517
19530TIP3    H280006   6.032   4.172  15.119  1.3339  0.1681 -0.8282
19531TIP3   OH280007   2.773   3.574  12.153  0.9044 -0.3747 -0.0540
19531TIP3    H180008   2.832   3.647  12.134  1.8071 -1.0632  0.0499
19531TIP3    H280009   2.740   3.547  12.068 -0.0680  0.6530 -0.0296
19532TIP3   OH280010   6.505   1.002  14.329 -0.2144 -0.4244 -0.2471
19532TIP3    H180011   6.483   0.929  14.271  1.6903  0.1304 -1.7569
19532TIP3    H280012   6.455   1.076  14.295  1.9939  0.2654 -2.2172
19533TIP3   OH280013   1.873   1.753  16.679  0.0698 -0.1228 -0.0087
19533TIP3    H180014   1.954   1.720  16.719  0.4984 -1.2040 -1.6543
19533TIP3    H280015   1.893   1.844  16.658  1.5946 -0.8161 -1.9866
19534TIP3   OH280016   0.782   3.834   4.672  0.2473  0.2869  0.1098
19534TIP3    H180017   0.822   3.807   4.589 -1.0843 -0.2573 -0.3844
19534TIP3    H280018   0.829   3.785   4.739  0.7307  0.0396 -0.4042
19535TIP3   OH280019   0.054   1.646   0.133  0.1175 -0.0578  0.6372
19535TIP3    H180020   0.135   1.678   0.171  1.0271  0.8598 -1.8932
19535TIP3    H280021   0.074   1.556   0.106  1.2411  0.9411 -2.2526
19536TIP3   OH280022   0.737   2.719   1.701 -0.5841 -0.0695 -0.0493
19536TIP3    H180023   0.810   2.778   1.723  1.1871 -1.7158 -1.2177
19536TIP3    H280024   0.688   2.767   1.633  0.7275  0.1851 -0.8637
19537TIP3   OH280025   4.407   4.043   2.228 -0.1430 -0.4986 -0.0482
19537TIP3    H180026   4.459   3.979   2.277 -0.5531 -0.0744  0.9788
19537TIP3    H280027   4.415   4.124   2.279  0.2646  0.2453 -1.2533
19538TIP3   OH280028   1.032   2.133  11.864  0.0310 -0.7739 -0.4316
19538TIP3    H180029   1.048   2.220  11.828 -0.8439 -1.2750 -2.0914
19538TIP3    H280030   0.951   2.104  11.823  0.6156 -2.6194 -0.3617
19539TIP3   OH280031   1.883   5.510  16.390  0.2481  0.2217  0.2261
19539TIP3    H180032   1.976   5.487  16.397  0.2375  0.4311  1.1766
19539TIP3    H280033   1.882   5.596  16.348  0.4791  0.1837  0.1423
19540TIP3   OH280034   6.069   6.318   2.427 -0.7117  0.1750  0.3682
19540TIP3    H180035   6.109   6.294   2.343 -0.0847 -1.0707  0.9856
19540TIP3    H280036   5.975   6.312   2.411 -0.6219  0.6881 -0.4368
19541TIP3   OH280037   6.249   5.897  16.059  0.0213 -0.1955 -0.3149
19541TIP3    H180038   6.285   5.821  16.014  0.2274  0.4735 -1.3177
19541TIP3    H280039   6.209   5.862  16.138  0.8924 -1.2308 -0.3147
19542TIP3   OH280040   6.384   3.211  12.276  0.6941  0.4707  0.6826
19542TIP3    H180041   6.378   3.188  12.369 -1.6782  1.1836  0.7775
19542TIP3    H280042   6.294   3.232  12.251  1.4565  1.4520 -1.4863
19543TIP3   OH280043   1.600   2.291  12.457 -1.0248 -0.3978 -0.4042
19543TIP3    H180044   1.563   2.353  12.394  0.6585  0.6747 -0.3904
19543TIP3    H280045   1.625   2.345  12.532  1.6245 -0.8184 -0.8888
19544TIP3   OH280046   0.721   1.198  16.467 -0.0019  0.4606 -0.2003
19544TIP3    H180047   0.740   1.208  16.374 -1.3738  0.7603 -0.4642
19544TIP3    H280048   0.791   1.247  16.510  1.6797 -1.1409 -0.9699
19545TIP3   OH280049   5.872   6.795   1.043  0.3505 -0.9407  0.2814
19545TIP3    H180050   5.869   6.873   0.988  0.3208 -0.4387  0.9685
19545TIP3    H280051   5.789   6.750   1.028 -0.2476 -0.0862  0.9228
19546TIP3   OH280052   4.171   6.681  16.870  0.0379  0.3342 -0.4074
19546TIP3    H180053   4.223   6.655  16.794 -0.6113  1.9168 -1.4617
19546TIP3    H280054   4.228   6.665  16.945  1.4524  0.5556 -1.3972
19547TIP3   OH280055   0.799   0.707   0.615  0.2029 -0.4453 -0.0489
19547TIP3    H180056   0.879   0.689   0.566  0.2675 -2.2413  0.6584
19547TIP3    H280057   0.734   0.727   0.548  1.1684  0.8972 -0.6381
19548TIP3   OH280058   3.851   3.737   2.688 -0.3667 -0.1969 -0.0892
19548TIP3    H180059   3.776   3.735   2.748 -1.4246  0.3151 -1.3409
19548TIP3    H280060   3.921   3.778   2.738 -0.7552 -1.1121  1.2779
19549TIP3   OH280061   0.226   0.446  12.737 -0.4592  0.0085  0.0889
19549TIP3    H180062   0.321   0.440  12.734 -0.4048 -0.9529  2.1972
19549TIP3    H280063   0.206   0.482  12.823 -1.9962  1.8000 -0.9425
19550TIP3   OH280064   5.987   2.331   0.341  0.2947  0.4070  0.2125
19550TIP3    H180065   6.034   2.251   0.318 -0.1008 -0.1028  1.1064
19550TIP3    H280066   6.010   2.346   0.433 -0.2382  0.8931  0.2703
19551TIP3   OH280067   4.529   0.898  15.426 -0.2741 -0.4614 -0.1169
19551TIP3    H180068   4.574   0.965  15.374  0.1988 -0.5888  0.1212
19551TIP3    H280069   4.599   0.842  15.458 -0.7941 -2.2780 -1.9388
19552TIP3   OH280070   6.706   1.147   3.782 -0.5023 -0.1595 -0.0359
19552TIP3    H180071   6.698   1.070   3.724  1.5194  0.5602 -1.3786
19552TIP3    H280072   6.624   1.195   3.769  0.2794  0.5062 -3.1788
19553TIP3   OH280073   3.525   3.781  12.109  0.2417  0.2034 -0.5199
19553TIP3    H180074   3.531   3.767  12.014 -0.0432 -1.1931 -0.3523
19553TIP3    H280075   3.540   3.694  12.147  0.0807  0.6950  0.7083
19554TIP3   OH280076   6.417   0.595  15.717 -0.5317 -0.4659 -0.0147
19554TIP3    H180077   6.347   0.594  15.783 -0.8778 -1.3882 -0.3802
19554TIP3    H280078   6.388   0.532  15.651  0.2486 -0.2259 -0.5934
19555TIP3   OH280079   0.880   1.107   1.583 -0.2732 -0.2429  0.0120
19555TIP3    H180080   0.869   1.053   1.504 -2.5259 -0.4794  0.3998
19555TIP3    H280081   0.807   1.170   1.579  0.9806  1.3395  0.7111
19556TIP3   OH280082   0.100   2.796  11.091  0.0295  0.6265  0.0055
19556TIP3    H180083   0.132   2.849  11.018 -1.8190  1.2649 -0.3924
19556TIP3    H280084   0.037   2.852  11.135 -1.3283 -0.9050  0.1080
19557TIP3   OH280085   3.878   2.175   4.545 -0.2624 -0.3970  0.2793
19557TIP3    H180086   3.794   2.130   4.559  0.0381 -0.2922  2.9670
19557TIP3    H280087   3.942   2.121   4.591  0.6807  0.9178  0.5745
19558TIP3   OH280088   6.741   3.832   1.669  0.7145 -0.0599  0.1213
19558TIP3    H180089   6.831   3.826   1.638  0.8945  2.0083  0.1172
19558TIP3    H280090   6.711   3.919   1.641 -0.8562 -0.2047  1.2006
19559TIP3   OH280091   5.417   0.071  16.979  0.1850  0.6329  0.1385
19559TIP3    H180092   5.327   0.038  16.983  0.0701  0.9516  0.1811
19559TIP3    H280093   5.408   0.165  16.963  0.5426  0.2271 -3.1564
19560TIP3   OH280094   5.284   1.457   4.347 -0.2935  0.2122 -0.4133
19560TIP3    H180095   5.300   1.551   4.360 -2.3964  0.5060  0.4580
19560TIP3    H280096   5.355   1.428   4.290  1.3023  1.9812  0.5878
19561TIP3   OH280097   4.141   1.793  16.215  0.3759 -0.0938 -0.2812
19561TIP3    H180098   4.086   1.817  16.289 -1.1130  0.4298 -1.5032
19561TIP3    H280099   4.127   1.699  16.204 -1.0059  0.1815 -1.1100
19562TIP3   OH280100   2.666   1.106  12.603 -0.3412  0.3444  0.2231
19562TIP3    H180101   2.632   1.081  12.688  0.6529 -0.4736  0.3932
19562TIP3    H280102   2.639   1.036  12.544  0.1880  0.1858  0.1623
19563TIP3   OH280103   4.893   1.160   5.534 -0.2178  0.4487 -0.1913
19563TIP3    H180104   4.887   1.139   5.627  1.5501  0.1545 -0.1027
19563TIP3    H280105   4.885   1.076   5.489 -4.8737  0.9056 -0.6467
19564TIP3   OH280106   3.148   1.978   2.968 -0.0048  0.2547 -0.7106
19564TIP3    H180107   3.178   2.056   2.920 -0.0552  1.1004  0.5874
19564TIP3    H280108   3.111   2.013   3.049 -0.2090 -1.1213 -0.1947
19565TIP3   OH280109   1.621   1.808  11.005  0.3309  0.3452 -0.2887
19565TIP3    H180110   1.549   1.862  10.971 -0.1612  1.4167  2.1889
19565TIP3    H280111   1.577   1.743  11.061  1.1710 -0.3313 -0.4014
19566TIP3   OH280112   4.600   6.145  14.963  0.4134  0.5150  0.0190
19566TIP3    H180113   4.564   6.145  14.874 -2.1251 -2.4493  0.8737
19566TIP3    H280114   4.688   6.108  14.953 -0.1457 -0.5430 -1.1826
19567TIP3   OH280115   2.261   3.608  16.503  0.6890 -0.0587 -0.1790
19567TIP3    H180116   2.330   3.656  16.548 -0.6388  2.0734 -0.2467
19567TIP3    H280117   2.242   3.534  16.560  1.7290  0.3753  0.7762
19568TIP3   OH280118   6.716   2.113  16.520 -0.2016 -0.0410  0.0377
19568TIP3    H180119   6.655   2.077  16.584 -1.6389  2.0634 -0.0440
19568TIP3    H280120   6.798   2.067  16.536 -1.0621 -0.9893  2.0410
19569TIP3   OH280121   3.154   2.695  13.101 -0.2787  0.0036 -0.6635
19569TIP3    H180122   3.145   2.713  13.007 -2.0520 -0.5592 -0.6320
19569TIP3    H280123   3.175   2.780  13.139  0.9225  0.1609 -1.6025
19570TIP3   OH280124   3.124   4.369  10.621  0.2964 -0.4664 -0.0855
19570TIP3    H180125   3.145   4.302  10.686  1.6631 -1.3728 -1.4066
19570TIP3    H280126   3.066   4.325  10.559 -1.4274  0.5425  0.7318
19571TIP3   OH280127   1.778   6.448   2.017  0.3171 -0.3429 -0.1928
19571TIP3    H180128   1.766   6.530   2.065 -1.3183 -1.6482  1.8497
19571TIP3    H280129   1.737   6.463   1.932 -3.7330 -0.1858  1.5763
19572TIP3   OH280130   1.210   0.136   2.250 -0.1253  0.5954 -0.4382
19572TIP3    H180131   1.283   0.098   2.300 -0.5830 -0.1337 -0.3155
19572TIP3    H280132   1.143   0.068   2.251 -0.0284  0.4346 -2.3248
19573TIP3   OH280133   6.049   1.068   3.393 -0.5416 -0.5861 -0.1961
19573TIP3    H180134   6.047   0.980   3.356 -0.8835 -0.9552  0.6750
19573TIP3    H280135   5.957   1.088   3.412 -0.3812 -0.3644  0.3523
19574TIP3   OH280136   1.723   0.821  17.062 -0.0686  0.4949  0.4672
19574TIP3    H180137   1.693   0.907  17.033 -0.2976  0.7814  1.5135
19574TIP3    H280138   1.802   0.804  17.010 -1.0197  0.5280 -1.0219
19575TIP3   OH280139   4.521   4.162   0.400 -0.5236 -0.0168 -0.2963
19575TIP3    H180140   4.532   4.132   0.309  0.2566 -0.1029 -0.1847
19575TIP3    H280141   4.520   4.081   0.451  0.3573  0.0825 -0.1092
19576TIP3   OH280142   3.258   3.643  16.624 -0.2448  0.0357 -0.1221
19576TIP3    H180143   3.189   3.700  16.589  0.1763  0.2849 -0.5621
19576TIP3    H280144   3.324   3.640  16.555 -0.1139 -0.7374  0.0213
19577TIP3   OH280145   5.206   2.976  14.442 -0.0498 -0.0601 -0.4199
19577TIP3    H180146   5.161   2.996  14.360  0.7578 -0.9528 -1.1080
19577TIP3    H280147   5.296   2.956  14.416  0.8227  1.8592  0.9488
19578TIP3   OH280148   2.542   2.808  15.650 -0.5613 -0.0453 -0.0407
19578TIP3    H180149   2.615   2.767  15.697 -0.9878 -1.2536 -0.3895
19578TIP3    H280150   2.506   2.871  15.712  1.0397  0.9025 -0.0217
19579TIP3   OH280151   5.887   6.760  13.963  0.6172  0.5654 -0.2595
19579TIP3    H180152   5.909   6.696  14.032 -1.1800  0.9993  0.7858
19579TIP3    H280153   5.872   6.842  14.010  0.0261  1.0461 -1.2581
19580TIP3   OH280154   4.278   1.979  15.657  0.1478  0.2114 -0.1557
19580TIP3    H180155   4.231   1.973  15.741  1.9713  0.6360  0.9585
19580TIP3    H280156   4.297   2.072  15.647  0.6863  0.0605 -0.6041
19581TIP3   OH280157   2.884   4.060   0.854 -0.3138 -0.8868 -1.0458
19581TIP3    H180158   2.971   4.024   0.836 -0.0927 -1.0710  0.2837
19581TIP3    H280159   2.849   4.004   0.923 -0.4212  0.7534  0.2968
19582TIP3   OH280160   1.632   3.379   2.542  0.1356  0.8569 -0.1617
19582TIP3    H180161   1.560   3.329   2.503 -0.3141  1.2716  0.1304
19582TIP3    H280162   1.709   3.352   2.493  0.0559 -0.8014  0.5621
19583TIP3   OH280163   5.050   0.337  12.685  0.4715  0.0699 -0.2936
19583TIP3    H180164   5.059   0.243  12.702 -2.6486 -0.3153 -0.1131
19583TIP3    H280165   5.012   0.342  12.597  2.0018  1.2732 -0.9238
19584TIP3   OH280166   4.805   4.040  12.618 -0.4347  0.7175  0.3150
19584TIP3    H180167   4.861   4.117  12.622  0.8009 -0.1172 -0.2987
19584TIP3    H280168   4.841   3.979  12.682  0.7167 -0.6534 -1.5205
19585TIP3   OH280169   4.747   6.163  14.101 -0.0106  0.0143  0.5459
19585TIP3    H180170   4.733   6.069  14.093 -0.1934 -0.1481  2.3252
19585TIP3    H280171   4.770   6.192  14.013  0.4019 -1.7470  0.0443
19586TIP3   OH280172   2.751   1.544   5.343  0.4224 -0.3656 -0.8387
19586TIP3    H180173   2.801   1.466   5.318 -0.2014 -0.2848 -2.4586
19586TIP3    H280174   2.706   1.570   5.262  0.7172  1.7508 -0.3628
19587TIP3   OH280175   0.471   4.190   2.976 -0.2368 -0.2576  0.1074
19587TIP3    H180176   0.478   4.161   3.068 -3.2217 -0.6380  0.3367
19587TIP3    H280177   0.491   4.111   2.925 -2.0791 -1.1023  0.5891
19588TIP3   OH280178   5.054   4.162   3.607 -0.0227  0.5178 -0.3042
19588TIP3    H180179   5.118   4.211   3.555  1.3480 -0.5486  0.2942
19588TIP3    H280180   5.035   4.219   3.681 -0.9487  1.4776 -1.2509
19589TIP3   OH280181   1.040   6.683   3.317  0.1678 -0.0130  0.5759
19589TIP3    H180182   1.031   6.705   3.410  0.6314  0.0515  0.6072
19589TIP3    H280183   1.021   6.589   3.313  0.6867 -0.1269  0.8154
19590TIP3   OH280184   4.826   6.206  12.110 -0.4149  0.2941  0.1111
19590TIP3    H180185   4.885   6.204  12.185 -0.3573  1.4081  0.1195
19590TIP3    H280186   4.852   6.132  12.056  0.6220  0.4385  0.4023
19591TIP3   OH280187   1.499   4.008   3.117  0.3801  0.0752  0.9488
19591TIP3    H180188   1.561   3.936   3.109  0.2369  0.1420 -2.4583
19591TIP3    H280189   1.554   4.086   3.129  0.8197 -0.1305  0.2873
19592TIP3   OH280190   1.050   4.882   5.171 -0.1745 -0.7344  1.0369
19592TIP3    H180191   1.057   4.837   5.087  0.6310  1.4702 -0.1534
19592TIP3    H280192   1.074   4.816   5.236  0.8650 -2.0394 -0.5997
19593TIP3   OH280193   0.652   6.603   0.349 -0.0107 -0.4018 -0.9259
19593TIP3    H180194   0.557   6.615   0.343 -0.1888 -1.3607 -0.3125
19593TIP3    H280195   0.680   6.666   0.416 -0.4914 -1.3035  0.1635
19594TIP3   OH280196   3.547   2.004   4.119 -0.0975  0.0213  0.3585
19594TIP3    H180197   3.497   1.990   4.039 -0.4374 -0.2729  0.6177
19594TIP3    H280198   3.594   1.921   4.133  1.2984  0.6368 -0.4473
19595TIP3   OH280199   5.614   4.064  11.539  0.0533 -0.5030 -0.3629
19595TIP3    H180200   5.610   4.155  11.570 -0.4521 -0.1358 -1.4712
19595TIP3    H280201   5.629   4.072  11.445  1.4725 -1.5936 -0.2616
19596TIP3   OH280202   1.426   3.858  16.451  0.1880  0.0927  0.1543
19596TIP3    H180203   1.420   3.919  16.377 -2.2044 -0.7574 -0.4416
19596TIP3    H280204   1.436   3.772  16.410  0.5483 -0.2153  0.8840
19597TIP3   OH280205   6.121   2.320  14.789 -0.2806 -0.9492  0.0783
19597TIP3    H180206   6.132   2.348  14.881 -1.6517  0.3144 -0.1037
19597TIP3    H280207   6.172   2.239  14.783 -0.6545 -1.4007  2.1154
19598TIP3   OH280208   6.597   1.707  15.284 -1.1192 -0.2859  0.0320
19598TIP3    H180209   6.689   1.723  15.304 -1.0573  1.0491 -1.1792
19598TIP3    H280210   6.549   1.756  15.352 -0.8986  2.8571 -1.8825
19599TIP3   OH280211   0.204   3.884   6.084 -0.2336 -0.1736 -0.2455
19599TIP3    H180212   0.162   3.904   6.167 -0.3460 -0.1417 -0.3087
19599TIP3    H280213   0.276   3.824   6.106 -1.7889 -2.1865 -0.4192
19600TIP3   OH280214   6.649   2.204  14.494 -0.1815  0.2190  0.5372
19600TIP3    H180215   6.624   2.112  14.501  1.8334 -0.4366 -0.1168
19600TIP3    H280216   6.695   2.223  14.575 -0.3108  0.5495  0.5337
19601TIP3   OH280217   0.120   4.424  16.237  0.1896  0.2583 -0.5609
19601TIP3    H180218   0.046   4.407  16.180 -0.3489  1.0704 -0.1293
19601TIP3    H280219   0.125   4.347  16.294  0.7437 -0.5658 -1.6782
19602TIP3   OH280220   5.710   4.388  11.402  0.3136 -0.5817  0.3176
19602TIP3    H180221   5.764   4.451  11.354  1.7598 -1.0156  1.3163
19602TIP3    H280222   5.750   4.303  11.385 -0.7272 -1.0711  0.2072
19603TIP3   OH280223   6.159   4.474  14.953 -0.5933 -0.0642  0.5692
19603TIP3    H180224   6.089   4.514  15.004 -1.2138  0.4349 -0.6373
19603TIP3    H280225   6.237   4.526  14.974 -0.9717  0.5209  0.5431
19604TIP3   OH280226   4.937   6.585  16.303 -0.4494  1.2690  0.4620
19604TIP3    H180227   4.860   6.625  16.262  0.6664  2.1255 -0.9173
19604TIP3    H280228   4.984   6.658  16.343  0.3443  1.0035  0.0560
19605TIP3   OH280229   1.040   3.170  12.188  0.0747 -0.0317 -0.2129
19605TIP3    H180230   0.986   3.240  12.225  0.9231  0.1060  0.8447
19605TIP3    H280231   1.086   3.211  12.115  0.9640  0.7021  0.7195
19606TIP3   OH280232   5.343   1.824   2.074  0.3325 -0.4485 -0.3619
19606TIP3    H180233   5.406   1.895   2.062 -0.5125  0.2801 -0.5689
19606TIP3    H280234   5.355   1.797   2.165  1.3098 -0.6918 -0.5490
19607TIP3   OH280235   6.595   1.920   4.794 -0.3107 -0.2486 -0.0657
19607TIP3    H180236   6.606   1.891   4.704 -0.7918 -0.7361  0.0275
19607TIP3    H280237   6.641   2.004   4.798  1.2986 -1.0915 -0.2722
19608TIP3   OH280238   3.641   1.425  14.457  0.2299 -0.1262  0.0875
19608TIP3    H180239   3.709   1.403  14.520 -2.0790  0.5755  3.0755
19608TIP3    H280240   3.654   1.518  14.439 -0.7242  0.4108  1.8830
19609TIP3   OH280241   0.481   3.326  13.966  0.1352  0.4212  0.2401
19609TIP3    H180242   0.405   3.332  13.908  1.5426  0.1357 -1.7148
19609TIP3    H280243   0.496   3.417  13.994 -2.0427  0.2643  2.3020
19610TIP3   OH280244   3.075   6.796   6.149 -0.7097 -0.8769  0.0915
19610TIP3    H180245   3.062   6.786   6.055  0.2404  0.7887 -0.2556
19610TIP3    H280246   3.022   6.872   6.172  0.0448 -0.5110  0.6536
19611TIP3   OH280247   3.616   1.684  12.823 -0.3378 -0.0776 -0.3969
19611TIP3    H180248   3.602   1.765  12.772 -1.5822  0.7913  1.2461
19611TIP3    H280249   3.696   1.647  12.786  0.6217  2.2254 -0.8136
19612TIP3   OH280250   2.069   5.618   2.278  0.2409  0.3152 -0.5436
19612TIP3    H180251   2.044   5.657   2.362 -0.6474  1.4750 -1.3011
19612TIP3    H280252   1.987   5.616   2.228  0.9989  0.9934 -1.8744
19613TIP3   OH280253   5.286   2.237   3.203  0.1308  0.7672  0.1525
19613TIP3    H180254   5.314   2.306   3.143  0.1219  0.6087 -0.0343
19613TIP3    H280255   5.361   2.178   3.210  0.0982  0.7329  0.2210
19614TIP3   OH280256   1.486   6.095  15.849  0.5838  0.0852  0.1138
19614TIP3    H180257   1.499   6.083  15.755 -0.5831  0.2006 -0.0713
19614TIP3    H280258   1.564   6.142  15.878  2.1702 -2.1362 -0.3186
19615TIP3   OH280259   4.192   3.368  13.139  0.1464  0.5939 -0.4151
19615TIP3    H180260   4.229   3.447  13.179  0.5484  1.4178 -2.3041
19615TIP3    H280261   4.196   3.302  13.209  2.7709  1.3592  0.2817
19616TIP3   OH280262   4.839   4.499  11.681 -0.0431 -0.2772  0.6773
19616TIP3    H180263   4.787   4.422  11.706  0.3051 -0.5179  0.6593
19616TIP3    H280264   4.845   4.551  11.762  0.0945 -0.4851  0.8021
19617TIP3   OH280265   4.285   2.033   2.107 -0.1433  0.1829 -0.5632
19617TIP3    H180266   4.331   2.073   2.034 -0.0512  0.2870 -0.4489
19617TIP3    H280267   4.214   1.982   2.066 -0.4258  0.6733 -0.6990
19618TIP3   OH280268   5.929   6.165   0.936  0.1979  0.2377  0.1002
19618TIP3    H180269   5.881   6.144   1.016  1.5386 -2.6088  0.2592
19618TIP3    H280270   5.871   6.136   0.865 -0.6532  2.0496 -0.0123
19619TIP3   OH280271   1.404   6.045   3.647  0.4556  0.0652 -0.2569
19619TIP3    H180272   1.441   5.981   3.708 -2.5154 -2.2206 -0.6263
19619TIP3    H280273   1.337   6.091   3.699 -0.6128 -0.4123 -1.1749
19620TIP3   OH280274   0.914   4.673   2.390  0.0978  0.2388 -0.6733
19620TIP3    H180275   0.858   4.631   2.325  0.2794 -2.7796  0.9589
19620TIP3    H280276   1.003   4.648   2.364  0.1760 -0.9010  0.6195
19621TIP3   OH280277   1.150   1.360   3.346  0.2017 -0.2556  0.0632
19621TIP3    H180278   1.063   1.340   3.313  0.0393  0.2953  0.1533
19621TIP3    H280279   1.147   1.453   3.370  0.9056 -0.1522 -0.2184
19622TIP3   OH280280   5.113   4.355  14.826 -0.5981  0.1665  0.2084
19622TIP3    H180281   5.040   4.356  14.888 -1.7323 -1.7205 -1.0195
19622TIP3    H280282   5.074   4.332  14.742  1.3389 -0.4390 -0.5918
19623TIP3   OH280283   1.793   3.169   4.461  0.4477 -0.1592 -0.5880
19623TIP3    H180284   1.739   3.243   4.435 -0.5403 -0.7390 -0.2379
19623TIP3    H280285   1.751   3.136   4.541 -0.3427 -2.3270 -1.8256
19624TIP3   OH280286   3.450   4.852   3.455 -0.1072  0.1839 -0.1377
19624TIP3    H180287   3.510   4.867   3.528 -2.1641  1.9746  1.3063
19624TIP3    H280288   3.417   4.763   3.468  0.8647 -0.1649  0.0376
19625TIP3   OH280289   1.222   3.944   3.154 -0.5480 -0.0607  0.1724
19625TIP3    H180290   1.250   3.854   3.138  0.0843 -0.1499  1.6059
19625TIP3    H280291   1.302   3.995   3.149 -0.6262  0.1611  1.0584
19626TIP3   OH280292   2.378   5.879  13.556  0.0278  0.4685  0.1410
19626TIP3    H180293   2.351   5.915  13.471 -0.4092  1.6927  0.7863
19626TIP3    H280294   2.296   5.870  13.605  0.1903 -0.9031  0.2139
19627TIP3   OH280295   4.785   4.539  16.504  0.3966 -0.1554  0.1195
19627TIP3    H180296   4.877   4.531  16.531  0.6009  1.6518  0.1081
19627TIP3    H280297   4.788   4.539  16.408  0.1516 -1.9722  0.0756
19628TIP3   OH280298   3.990   0.897   0.737  0.4488 -0.2286  0.4107
19628TIP3    H180299   3.915   0.888   0.795  0.6285  0.3686  0.7415
19628TIP3    H280300   4.050   0.955   0.783 -0.1346  1.6443 -1.0774
19629TIP3   OH280301   3.538   1.293  13.129 -0.1691  0.0136  0.2505
19629TIP3    H180302   3.615   1.277  13.074 -1.1814 -0.5227 -1.0595
19629TIP3    H280303   3.566   1.267  13.217  0.4924 -2.2739 -0.5566
19630TIP3   OH280304   5.496   0.655   5.219  0.0915  0.2810  0.0804
19630TIP3    H180305   5.527   0.683   5.305  2.3935 -0.5397 -0.3930
19630TIP3    H280306   5.415   0.609   5.236  1.8001 -2.2287  2.2372
19631TIP3   OH280307   3.260   1.961   0.050 -0.4615  0.3763  0.1026
19631TIP3    H180308   3.347   1.947   0.013  0.0256  1.4762  0.7515
19631TIP3    H280309   3.220   1.875   0.052  0.4876 -0.0976 -0.5200
19632TIP3   OH280310   6.330   1.939  16.769  0.1665 -0.4122 -0.5735
19632TIP3    H180311   6.240   1.922  16.796 -0.1243 -0.7057 -1.6737
19632TIP3    H280312   6.383   1.920  16.847 -0.8663  1.6962  0.7195
19633TIP3   OH280313   0.745   4.897   2.317  0.1695 -0.4245  0.4638
19633TIP3    H180314   0.821   4.840   2.327  0.3115 -0.3522 -0.1922
19633TIP3    H280315   0.681   4.844   2.269 -0.1968 -0.4849  1.0113
19634TIP3   OH280316   0.343   3.040  11.829 -0.5911 -0.1648 -0.1902
19634TIP3    H180317   0.299   3.027  11.913 -0.0319  0.1644  0.1625
19634TIP3    H280318   0.277   3.083  11.774 -0.1295  2.1602  0.9584
19635TIP3   OH280319   5.151   6.338   4.263  1.0077  0.1445 -0.0966
19635TIP3    H180320   5.214   6.385   4.318 -0.0877  0.8644  0.5824
19635TIP3    H280321   5.143   6.252   4.304 -2.0447  1.5912  2.8619
19636TIP3   OH280322   2.206   0.017   4.530  0.0847  0.1238 -0.2064
19636TIP3    H180323   2.196  -0.026   4.445  0.9710 -0.7311  0.1029
19636TIP3    H280324   2.116   0.033   4.559 -0.2520  1.3748 -1.7426
19637TIP3   OH280325   1.826   5.956   1.113 -0.2268 -0.0959 -0.0807
19637TIP3    H180326   1.838   5.872   1.067 -1.7017 -0.0249 -0.6476
19637TIP3    H280327   1.743   5.946   1.160 -0.1752  0.8863  0.2426
19638TIP3   OH280328   1.229   2.884  16.482  0.2030 -0.1435 -0.1771
19638TIP3    H180329   1.150   2.886  16.537 -0.4344  0.5328 -1.0853
19638TIP3    H280330   1.280   2.810  16.517 -0.7699 -0.5260  0.5051
19639TIP3   OH280331   3.897   2.407  11.996 -0.7368  0.5825 -0.5025
19639TIP3    H180332   3.951   2.333  12.023  2.3253  2.3351 -1.2541
19639TIP3    H280333   3.892   2.399  11.900 -1.4404  0.6742 -0.4745
19640TIP3   OH280334   4.190   1.367  15.039  0.0330 -0.2689 -0.3425
19640TIP3    H180335   4.264   1.332  14.989 -1.6066 -2.2969 -1.5043
19640TIP3    H280336   4.112   1.341  14.989 -1.5863 -0.0015  1.8723
19641TIP3   OH280337   2.531   4.876   4.274  0.1131  0.2277  0.6955
19641TIP3    H180338   2.526   4.971   4.265 -1.1129  0.1249  0.0852
19641TIP3    H280339   2.551   4.862   4.366  2.3102  1.0953  0.4247
19642TIP3   OH280340   5.816   5.424   5.614 -1.0996  0.2147  0.3150
19642TIP3    H180341   5.810   5.351   5.676 -3.1388  0.4964  0.5341
19642TIP3    H280342   5.796   5.502   5.666 -3.0028  0.4361 -0.6594
19643TIP3   OH280343   3.124   2.850   4.212 -0.2421 -0.2848  0.0987
19643TIP3    H180344   3.212   2.884   4.226 -0.6882  0.4384  1.4173
19643TIP3    H280345   3.087   2.905   4.143  0.2475 -0.4210 -0.2723
19644TIP3   OH280346   6.081   0.562  11.063 -0.0295 -0.3153  0.0998
19644TIP3    H180347   6.055   0.620  10.991  0.2874  0.9883  0.9898
19644TIP3    H280348   6.047   0.476  11.039  0.0561  0.0911 -1.5866
19645TIP3   OH280349   6.455   1.833   0.175  0.5898 -0.7560  0.1639
19645TIP3    H180350   6.462   1.840   0.270 -0.8955  0.0341  0.2452
19645TIP3    H280351   6.439   1.740   0.159  0.2874 -0.8125  0.7396
19646TIP3   OH280352   3.105   4.950  12.410  0.1775 -0.0406 -0.3317
19646TIP3    H180353   3.093   5.019  12.344  1.1895  0.9572  0.4845
19646TIP3    H280354   3.197   4.956  12.434  0.3463 -1.8797 -0.4145
19647TIP3   OH280355   6.533   0.005   1.573 -0.2248 -0.0646 -0.0590
19647TIP3    H180356   6.598  -0.052   1.613  0.6803  1.3830  0.6160
19647TIP3    H280357   6.534  -0.018   1.480  0.9845 -0.3371  0.0063
19648TIP3   OH280358   4.858   0.960  14.426  0.2128 -0.1557  0.3854
19648TIP3    H180359   4.870   0.868  14.450  0.7852 -0.2680 -0.3020
19648TIP3    H280360   4.766   0.966  14.402  0.4340 -0.8429 -0.7323
19649TIP3   OH280361   2.386   0.429  14.960 -0.0418  0.2399 -0.0161
19649TIP3    H180362   2.423   0.515  14.940  1.6283 -0.7437 -1.4328
19649TIP3    H280363   2.310   0.448  15.015  0.6923  2.5591  0.3071
19650TIP3   OH280364   5.949   2.359  13.337 -0.3221 -0.2618 -0.2285
19650TIP3    H180365   5.994   2.291  13.288  0.1275  0.5941 -1.0456
19650TIP3    H280366   6.009   2.434  13.334 -0.7692  0.1512  0.7090
19651TIP3   OH280367   1.677   5.699  13.706 -0.3583  0.3293  0.1296
19651TIP3    H180368   1.672   5.626  13.767  3.2334 -0.2858 -0.0808
19651TIP3    H280369   1.636   5.666  13.626  0.7003 -1.3006  0.2109
19652TIP3   OH280370   4.349   4.769   4.132 -0.0166  0.1301  0.3641
19652TIP3    H180371   4.266   4.730   4.107 -0.6388  3.1968 -3.3026
19652TIP3    H280372   4.409   4.746   4.061  1.2925  0.6844  1.2511
19653TIP3   OH280373   3.900   0.396   0.158  0.0594 -0.3522  0.4585
19653TIP3    H180374   3.901   0.304   0.182 -0.0150 -0.3181  0.5956
19653TIP3    H280375   3.855   0.399   0.074 -0.0290 -0.4291  0.5032
19654TIP3   OH280376   3.343   1.625   3.548  0.3165 -0.0052 -0.0663
19654TIP3    H180377   3.386   1.633   3.633 -0.6743 -0.1446  0.4647
19654TIP3    H280378   3.342   1.714   3.513 -0.8588  0.3764  0.8806
19655TIP3   OH280379   4.887   3.200  16.853  0.2119  0.0846  0.3523
19655TIP3    H180380   4.852   3.257  16.921  2.5196  1.0606  0.8163
19655TIP3    H280381   4.820   3.200  16.784 -1.5865  0.1184  2.0203
19656TIP3   OH280382   4.089   3.824  15.256 -0.0911 -0.0223 -0.2249
19656TIP3    H180383   4.024   3.810  15.324 -1.4436  1.4819 -1.1333
19656TIP3    H280384   4.165   3.772  15.283 -0.5809  0.5110  2.3904
19657TIP3   OH280385   0.819   3.643  16.621 -0.1502 -0.4006 -0.2259
19657TIP3    H180386   0.780   3.569  16.573 -0.1934  0.5670 -1.7583
19657TIP3    H280387   0.745   3.688  16.661 -0.3020 -0.2812 -0.6353
19658TIP3   OH280388   3.385   1.376   6.579 -0.1314 -0.2180  0.8251
19658TIP3    H180389   3.426   1.302   6.624 -0.2320 -1.2178 -0.6848
19658TIP3    H280390   3.373   1.441   6.648  1.8350 -0.7954  1.7837
19659TIP3   OH280391   4.689   1.325   5.555 -0.2925 -0.0856 -0.6354
19659TIP3    H180392   4.665   1.361   5.470 -1.1147  3.2071  0.8319
19659TIP3    H280393   4.778   1.292   5.542 -0.4634  0.1470 -2.8035
19660TIP3   OH280394   2.668   2.222   0.664  0.2152  0.0441 -0.4647
19660TIP3    H180395   2.749   2.177   0.641  0.1369  0.2659 -1.2082
19660TIP3    H280396   2.697   2.306   0.701  0.3348  0.0486 -0.5670
19661TIP3   OH280397   6.372   1.680  14.116  0.0401 -0.0445  0.7522
19661TIP3    H180398   6.320   1.736  14.173 -0.4717  0.0288  0.2247
19661TIP3    H280399   6.390   1.735  14.039  1.1642  0.0390  1.0616
19662TIP3   OH280400   0.122   4.249   1.179  0.2507 -0.5118 -0.1053
19662TIP3    H180401   0.152   4.334   1.212 -0.0340 -0.2793 -0.4425
19662TIP3    H280402   0.035   4.239   1.217 -0.2354 -0.0716 -1.0772
19663TIP3   OH280403   4.878   3.311   0.572 -0.0112 -0.1065 -0.0305
19663TIP3    H180404   4.967   3.341   0.590 -0.0099  0.6426 -1.2233
19663TIP3    H280405   4.862   3.335   0.481 -1.7461  0.5442  0.4077
19664TIP3   OH280406   3.051   3.483   0.941  0.0963  0.0565 -0.0533
19664TIP3    H180407   3.043   3.412   1.005 -0.4088  0.5070  0.3886
19664TIP3    H280408   3.020   3.444   0.859  0.7329 -0.5209 -0.0297
19665TIP3   OH280409   2.216   0.317   4.018  0.6776  0.1511 -0.0619
19665TIP3    H180410   2.125   0.329   4.044  0.2076 -2.4917 -0.2447
19665TIP3    H280411   2.212   0.308   3.922  1.1941  0.4481 -0.1146
19666TIP3   OH280412   2.053   6.229  15.211  0.4066  0.3174 -0.4561
19666TIP3    H180413   2.126   6.238  15.150 -0.1921  1.3533 -1.0610
19666TIP3    H280414   1.981   6.194  15.159  0.0105  0.8077 -0.2529
19667TIP3   OH280415   2.258   1.419  14.359 -0.2545  0.4883  1.0040
19667TIP3    H180416   2.275   1.369  14.280  1.5402  1.3391  0.8016
19667TIP3    H280417   2.321   1.385  14.423 -0.4391  1.0542  1.4980
19668TIP3   OH280418   5.940   2.266  16.473 -0.3824  0.4942  0.0457
19668TIP3    H180419   5.872   2.301  16.531  0.5655  1.7052  0.4571
19668TIP3    H280420   5.954   2.334  16.408  2.5000  1.6257  1.6902
19669TIP3   OH280421   1.207   5.812   2.668  0.1952  0.2095 -0.7495
19669TIP3    H180422   1.139   5.782   2.728 -0.7974 -1.1739 -2.4735
19669TIP3    H280423   1.241   5.892   2.708 -3.2538  1.6602 -0.3779
19670TIP3   OH280424   2.525   4.710  15.258  0.3186  0.0494 -0.0207
19670TIP3    H180425   2.558   4.790  15.299 -0.7173 -0.3917  1.8085
19670TIP3    H280426   2.490   4.738  15.173  0.8539  1.3551  0.1725
19671TIP3   OH280427   2.333   5.759  16.744  0.0735 -0.0484  0.3948
19671TIP3    H180428   2.411   5.813  16.757  0.4220 -0.5546  0.4726
19671TIP3    H280429   2.260   5.820  16.750  0.5458  0.9702 -2.4327
19672TIP3   OH280430   4.184   6.625   1.786  0.4124  0.0763 -0.0124
19672TIP3    H180431   4.253   6.665   1.838  0.2597 -0.8420  0.9156
19672TIP3    H280432   4.131   6.576   1.848 -1.2086  0.8933 -0.6671
19673TIP3   OH280433   2.736   5.331  12.007  0.5934  0.1477 -0.2496
19673TIP3    H180434   2.830   5.325  12.023  0.9564  0.4434 -2.0547
19673TIP3    H280435   2.716   5.254  11.953  0.0682  0.7811 -0.9770
19674TIP3   OH280436   6.358   5.088  11.587  0.3094 -0.5509 -0.4516
19674TIP3    H180437   6.379   5.023  11.520 -0.6816  0.7668 -2.1123
19674TIP3    H280438   6.285   5.138  11.550 -0.6580 -0.1130  1.8579
19675TIP3   OH280439   3.692   3.068   1.231  0.1018 -0.1258  0.3821
19675TIP3    H180440   3.767   3.111   1.189 -0.6817  1.3795  0.4591
19675TIP3    H280441   3.634   3.046   1.159  0.7145 -1.5656  0.2926
19676TIP3   OH280442   4.685   5.530  13.348 -0.1655  0.1705  0.5470
19676TIP3    H180443   4.635   5.476  13.287  0.0267  0.9310 -0.2991
19676TIP3    H280444   4.777   5.509  13.329  0.1213  2.9409 -1.9756
19677TIP3   OH280445   5.442   4.466   2.914 -0.5839 -0.2425  0.6259
19677TIP3    H180446   5.513   4.420   2.870 -1.1450  0.8036 -1.5050
19677TIP3    H280447   5.377   4.399   2.933 -1.0185 -0.5175 -1.6399
19678TIP3   OH280448   2.419   0.863  12.557  0.1362  0.5874  0.4805
19678TIP3    H180449   2.353   0.855  12.626  0.4842  1.1152  0.8827
19678TIP3    H280450   2.425   0.956  12.539 -0.5889  0.3908 -0.9066
19679TIP3   OH280451   1.531   0.623   2.923  0.4031 -0.2342  0.0515
19679TIP3    H180452   1.539   0.609   3.017 -0.5925  1.0036  0.3520
19679TIP3    H280453   1.442   0.596   2.901  0.1906  0.6789 -0.2804
19680TIP3   OH280454   3.471   6.564  13.216  0.5178 -0.1494 -0.2865
19680TIP3    H180455   3.414   6.560  13.139  0.0389  0.3984  0.0338
19680TIP3    H280456   3.554   6.599  13.182  0.3492 -0.0245 -0.5756
19681TIP3   OH280457   3.935   5.761   3.763 -0.0908 -0.1509  0.1488
19681TIP3    H180458   3.850   5.804   3.764 -0.0585 -0.0802 -0.0675
19681TIP3    H280459   3.916   5.668   3.755 -0.1345 -0.0943 -0.3979
19682TIP3   OH280460   0.141   6.510  11.204 -0.3448 -0.4269 -0.0363
19682TIP3    H180461   0.047   6.504  11.189 -0.3298  1.7135 -1.4322
19682TIP3    H280462   0.170   6.581  11.147  1.8659  0.0271  1.5157
19683TIP3   OH280463   6.455   0.527   1.608  0.1417  0.5677 -0.0179
19683TIP3    H180464   6.375   0.481   1.584  0.8036 -0.9023  0.5054
19683TIP3    H280465   6.477   0.578   1.530 -0.5936 -0.0215 -0.6324
19684TIP3   OH280466   0.238   6.791   0.422 -0.3897 -0.3229 -0.6317
19684TIP3    H180467   0.273   6.726   0.360 -1.4882 -1.4799 -0.0883
19684TIP3    H280468   0.225   6.870   0.369  2.2151 -0.0563 -1.0284
19685TIP3   OH280469   0.132   5.949   0.503  0.3288 -0.2365  0.1794
19685TIP3    H180470   0.072   5.926   0.431 -0.3570 -0.1867  0.7202
19685TIP3    H280471   0.180   6.025   0.471 -0.7245  0.4458  0.1640
19686TIP3   OH280472   4.572   5.723   4.790 -0.3192 -0.5989 -0.1809
19686TIP3    H180473   4.650   5.777   4.804 -0.7799 -0.4767  2.3834
19686TIP3    H280474   4.499   5.782   4.804 -0.8709 -1.1485 -0.6638
19687TIP3   OH280475   3.767   4.729  15.995  0.4066  0.1849 -0.1328
19687TIP3    H180476   3.729   4.642  15.983 -1.6996  1.0286 -0.0716
19687TIP3    H280477   3.790   4.757  15.907  0.6466 -0.2466 -0.2096
19688TIP3   OH280478   5.525   6.735  12.383 -0.4385 -0.1866 -0.7550
19688TIP3    H180479   5.560   6.719  12.470 -0.1991  0.6184 -0.6922
19688TIP3    H280480   5.445   6.683  12.379  0.3058 -1.3652 -0.5873
19689TIP3   OH280481   0.699   2.969   2.147  0.1660 -0.0479  0.2462
19689TIP3    H180482   0.682   2.892   2.201 -1.5827  0.1476  0.0433
19689TIP3    H280483   0.629   3.030   2.170  0.6946  0.9082 -0.6234
19690TIP3   OH280484   6.541   2.321   1.837  0.2410 -0.3661  0.0320
19690TIP3    H180485   6.631   2.293   1.820  0.6273  1.3233 -0.9421
19690TIP3    H280486   6.497   2.315   1.753 -0.0739  0.4723  0.1307
19691TIP3   OH280487   2.978   5.852  13.672  0.5209 -0.0090  0.4046
19691TIP3    H180488   2.925   5.779  13.705  1.5173 -0.2833  1.4608
19691TIP3    H280489   2.968   5.920  13.738  0.1238  0.5798 -0.2532
19692TIP3   OH280490   0.216   1.249   1.327 -0.1894  0.1260  0.0954
19692TIP3    H180491   0.197   1.157   1.345  1.7205 -0.1344  0.9893
19692TIP3    H280492   0.207   1.257   1.232 -0.8489 -0.8680  0.0668
19693TIP3   OH280493   5.139   0.338   4.735 -0.0225  0.2218  0.2916
19693TIP3    H180494   5.211   0.385   4.694 -0.2926  0.4099  0.0233
19693TIP3    H280495   5.060   0.377   4.697 -0.2528 -0.5239 -0.0174
19694TIP3   OH280496   5.832   6.686   5.533 -0.4141  0.3740  0.5005
19694TIP3    H180497   5.901   6.680   5.468  1.1750  1.2724  2.0347
19694TIP3    H280498   5.783   6.604   5.523  0.4264  0.0268 -1.0836
19695TIP3   OH280499   3.634   1.305  11.673 -0.4222  0.5665  0.4767
19695TIP3    H180500   3.674   1.376  11.623 -0.5731 -1.1190 -2.2620
19695TIP3    H280501   3.653   1.226  11.622 -0.8449 -1.3223  3.0160
19696TIP3   OH280502   4.568   2.276  14.962  0.0118  0.5292 -0.2980
19696TIP3    H180503   4.499   2.333  14.995 -0.1664  0.2116 -0.1192
19696TIP3    H280504   4.580   2.302  14.871 -0.7633  0.1750 -0.5070
19697TIP3   OH280505   1.840   4.021   2.379  0.0222  0.0141 -0.1539
19697TIP3    H180506   1.868   3.944   2.429  0.6574  0.4192  0.1367
19697TIP3    H280507   1.888   4.094   2.419 -0.1126  0.4709 -0.8048
19698TIP3   OH280508   3.349   2.500  12.156  0.0507 -0.3360 -0.6490
19698TIP3    H180509   3.347   2.594  12.175 -0.5618 -0.0343 -2.0883
19698TIP3    H280510   3.256   2.474  12.156  0.2060 -0.9161 -0.4346
19699TIP3   OH280511   2.686   0.587  15.732 -0.4691  0.1752 -0.4517
19699TIP3    H180512   2.743   0.609  15.806  0.4981  2.6081 -1.8133
19699TIP3    H280513   2.606   0.636  15.748 -0.1852  0.8601 -1.0905
19700TIP3   OH280514   4.878   1.158  16.943 -0.7584 -0.1941  0.1639
19700TIP3    H180515   4.952   1.100  16.960 -0.7523  0.3892  2.4692
19700TIP3    H280516   4.900   1.239  16.991 -2.4066  0.3655  0.0292
19701TIP3   OH280517   6.167   2.162  11.835 -0.1903  0.3565  0.0872
19701TIP3    H180518   6.198   2.098  11.898 -0.3562 -0.6672 -0.8350
19701TIP3    H280519   6.237   2.167  11.770 -1.1806 -0.7059 -1.1106
19702TIP3   OH280520   4.343   3.670   5.120 -0.0137  0.0879 -0.2688
19702TIP3    H180521   4.281   3.732   5.081 -1.1810 -1.5482 -1.1258
19702TIP3    H280522   4.392   3.722   5.184 -0.3927  2.0629 -1.4871
19703TIP3   OH280523   3.538   1.317   5.297  0.6604 -0.4967  0.2265
19703TIP3    H180524   3.453   1.360   5.292  0.2509 -1.3997 -0.9923
19703TIP3    H280525   3.591   1.360   5.230  0.4991 -1.3148 -0.4428
19704TIP3   OH280526   0.641   4.753   3.862  0.3843  0.4252  0.1304
19704TIP3    H180527   0.725   4.746   3.906 -0.1586 -0.4984  1.0806
19704TIP3    H280528   0.582   4.789   3.929 -0.0508  0.7063 -0.4012
19705TIP3   OH280529   0.474   4.551   2.352  0.0641 -0.0745 -0.2338
19705TIP3    H180530   0.533   4.543   2.427 -1.1618  1.1115  0.9172
19705TIP3    H280531   0.525   4.517   2.278  1.4848 -0.8449  1.0264
19706TIP3   OH280532   6.330   5.589   2.424  0.0101 -0.0967  0.5476
19706TIP3    H180533   6.397   5.521   2.423 -0.4803 -0.6255  1.6627
19706TIP3    H280534   6.248   5.541   2.417 -0.3309  0.4006  1.1301
19707TIP3   OH280535   0.488   5.432  11.789 -0.1399 -0.0944 -0.8430
19707TIP3    H180536   0.520   5.379  11.716  1.6109  0.4115 -0.4928
19707TIP3    H280537   0.502   5.523  11.760  1.0175  0.1048  0.2901
19708TIP3   OH280538   0.388   6.440   3.154 -0.1898 -0.1990  0.0574
19708TIP3    H180539   0.319   6.491   3.111 -0.3370  0.2669  0.8364
19708TIP3    H280540   0.411   6.373   3.090 -0.2588  0.6048 -0.8266
19709TIP3   OH280541   4.366   1.022  14.108  1.0472  0.2598  0.0010
19709TIP3    H180542   4.312   1.023  14.029  1.1012  3.1430 -0.1181
19709TIP3    H280543   4.454   1.046  14.077  1.9149 -2.0337  0.5170
19710TIP3   OH280544   1.853   3.528   4.436 -0.4777  0.0644  0.3386
19710TIP3    H180545   1.827   3.605   4.486 -1.1075 -0.1534  0.3567
19710TIP3    H280546   1.776   3.471   4.439 -0.6749  0.2016 -1.1877
19711TIP3   OH280547   5.669   5.988   3.798  0.0084 -0.5834 -0.1678
19711TIP3    H180548   5.731   5.926   3.835 -0.1779 -2.0269 -2.0943
19711TIP3    H280549   5.600   5.933   3.760 -2.2349  0.9253  1.4168
19712TIP3   OH280550   2.296   2.907   1.785 -0.2617 -0.1958 -0.4728
19712TIP3    H180551   2.351   2.908   1.707  1.3642 -0.7136  0.6110
19712TIP3    H280552   2.354   2.876   1.855 -1.7280  0.0134  0.8979
19713TIP3   OH280553   0.059   6.655   5.543 -0.2662 -0.4766 -0.1234
19713TIP3    H180554   0.067   6.576   5.490  0.4522 -0.3271 -0.2568
19713TIP3    H280555  -0.026   6.692   5.519 -0.3552 -0.9097 -0.4821
19714TIP3   OH280556   3.801   6.304  14.039 -0.5939  0.0726 -0.2525
19714TIP3    H180557   3.839   6.367  14.100 -0.2067 -0.1208 -0.2892
19714TIP3    H280558   3.710   6.330  14.031 -0.6610  0.0780  0.4426
19715TIP3   OH280559   4.465   5.195  10.928  0.2412 -0.1554 -0.2428
19715TIP3    H180560   4.438   5.285  10.915  2.7850  0.6007 -0.9445
19715TIP3    H280561   4.392   5.154  10.974 -0.5671  2.5262  1.0800
19716TIP3   OH280562   4.907   6.592   0.986 -0.6652  0.2793  0.4435
19716TIP3    H180563   4.895   6.552   0.900 -0.2225 -1.7788  1.2827
19716TIP3    H280564   4.820   6.621   1.011 -1.1792 -0.9490  0.1505
19717TIP3   OH280565   3.190   4.439   3.335  0.2340 -0.3741 -0.1817
19717TIP3    H180566   3.152   4.477   3.256 -0.3351  1.0880  0.7527
19717TIP3    H280567   3.115   4.410   3.387  0.4499  0.7172  0.7901
19718TIP3   OH280568   2.052   1.400   3.774  0.1137 -0.0036  0.6112
19718TIP3    H180569   1.959   1.381   3.790 -0.2175 -0.0273 -1.1349
19718TIP3    H280570   2.057   1.496   3.776 -0.2923  0.0668 -0.8996
19719TIP3   OH280571   2.799   0.705  15.946 -0.2157  0.1386  0.5421
19719TIP3    H180572   2.818   0.643  16.016 -2.8744 -0.7726  0.5678
19719TIP3    H280573   2.786   0.788  15.991 -0.9035 -0.2270  1.0375
19720TIP3   OH280574   0.406   0.744   4.607 -0.0504  0.0328 -0.4063
19720TIP3    H180575   0.404   0.689   4.684 -0.1313 -0.8805 -1.0441
19720TIP3    H280576   0.333   0.805   4.619  0.9182  0.9762  0.9860
19721TIP3   OH280577   4.264   2.836   5.293  0.4133 -0.4836 -0.0921
19721TIP3    H180578   4.277   2.766   5.358  2.7755  1.3909  1.6164
19721TIP3    H280579   4.196   2.891   5.331  0.0985 -0.6742 -0.3780
19722TIP3   OH280580   3.549   5.760   0.052  0.0380  0.1578 -0.3711
19722TIP3    H180581   3.551   5.798  -0.036  0.9528 -0.4725 -0.6402
19722TIP3    H280582   3.530   5.667   0.038  0.9153 -0.0911  0.0265
19723TIP3   OH280583   0.108   2.276  11.819 -0.2183 -0.7716  0.0685
19723TIP3    H180584   0.195   2.248  11.849 -0.2860 -0.4561  0.5493
19723TIP3    H280585   0.055   2.196  11.822  0.0763 -0.9903 -0.3315
19724TIP3   OH280586   1.592   6.078   4.918  0.7024  0.0938 -0.2007
19724TIP3    H180587   1.624   6.064   4.828  0.2904 -0.1999 -0.3047
19724TIP3    H280588   1.641   6.015   4.971  1.2724  0.5760 -0.1450
19725TIP3   OH280589   0.481   1.591  11.114  0.1165  0.6504 -0.3772
19725TIP3    H180590   0.498   1.503  11.148 -0.9142  0.6239  0.0904
19725TIP3    H280591   0.468   1.578  11.020  0.8237  0.4288 -0.4524
19726TIP3   OH280592   3.576   5.210  12.840  0.0661  0.3287  0.0244
19726TIP3    H180593   3.561   5.186  12.931  0.0321  2.0067  0.4756
19726TIP3    H280594   3.505   5.269  12.818  0.9894  1.2419 -0.5715
19727TIP3   OH280595   2.430   4.635  10.911 -0.2306 -0.6162  0.1496
19727TIP3    H180596   2.439   4.565  10.976 -1.1053 -1.6233 -0.7676
19727TIP3    H280597   2.519   4.648  10.877  0.5015  0.8785  2.4450
19728TIP3   OH280598   2.241   4.334   1.316  0.0443  0.2832 -0.2348
19728TIP3    H180599   2.309   4.289   1.265 -1.7297 -2.9359 -0.0158
19728TIP3    H280600   2.198   4.392   1.253  1.4578  0.5940 -0.9491
19729TIP3   OH280601   0.497   3.421  15.206  0.0512  0.1091 -0.1666
19729TIP3    H180602   0.541   3.506  15.197  0.3449  0.0826  0.9651
19729TIP3    H280603   0.554   3.371  15.263  0.5402 -1.3290 -1.8211
19730TIP3   OH280604   5.548   3.107  17.094  0.3537  0.3463  0.3905
19730TIP3    H180605   5.466   3.065  17.066 -0.8929  2.4909  0.5583
19730TIP3    H280606   5.565   3.070  17.181 -0.5669  0.0427  0.4542
19731TIP3   OH280607   1.101   2.483  11.171 -0.6109  0.2245 -0.1083
19731TIP3    H180608   1.018   2.463  11.129 -0.3341  0.5036 -0.7975
19731TIP3    H280609   1.088   2.457  11.262 -0.8204 -1.5494 -0.5998
19732TIP3   OH280610   2.672   6.429  16.822 -0.0285  0.1976 -0.4124
19732TIP3    H180611   2.578   6.411  16.829  0.1046 -1.0459 -1.4205
19732TIP3    H280612   2.677   6.517  16.785 -0.7985  0.0195 -0.9516
19733TIP3   OH280613   4.927   5.074   0.700  0.0455 -0.7231 -0.8206
19733TIP3    H180614   4.940   5.135   0.627 -0.8303 -0.8804 -1.1237
19733TIP3    H280615   4.966   5.118   0.775  0.4218 -0.2869 -1.2613
19734TIP3   OH280616   4.104   2.492   2.637 -0.4257 -0.4149  0.2315
19734TIP3    H180617   4.055   2.506   2.555  0.0729 -0.0243 -0.0060
19734TIP3    H280618   4.058   2.547   2.701 -0.3991 -0.1713  0.0460
19735TIP3   OH280619   1.685   0.939   0.428  0.0094  0.0689  0.1496
19735TIP3    H180620   1.724   1.026   0.434  0.8545 -0.3537  0.9886
19735TIP3    H280621   1.738   0.894   0.362 -1.2794  0.5956 -1.3150
19736TIP3   OH280622   1.483   4.803   1.107 -0.0769  0.0256 -0.4875
19736TIP3    H180623   1.454   4.715   1.086  0.6198 -1.2986  3.1982
19736TIP3    H280624   1.566   4.790   1.154  1.1708  2.8502 -1.6662
19737TIP3   OH280625   4.368   4.008  14.142 -0.0302 -0.5585 -0.0618
19737TIP3    H180626   4.306   4.081  14.141  0.4507 -0.1014  1.4396
19737TIP3    H280627   4.345   3.958  14.221  1.1999 -0.6391  0.2685
19738TIP3   OH280628   4.358   1.284  14.351  0.1452  0.1678 -0.3167
19738TIP3    H180629   4.330   1.205  14.304 -1.4280  0.7008 -0.3197
19738TIP3    H280630   4.295   1.294  14.422  0.6864  1.0988  0.0544
19739TIP3   OH280631   1.371   4.991  15.958  0.3782 -0.2424  0.8548
19739TIP3    H180632   1.441   4.938  15.995  1.0292  0.6876  0.9692
19739TIP3    H280633   1.299   4.983  16.021 -1.0634 -4.1391 -0.9303
19740TIP3   OH280634   2.163   6.453   3.633 -0.0557  0.4765  0.2549
19740TIP3    H180635   2.225   6.441   3.705 -1.2376  2.0869  1.6006
19740TIP3    H280636   2.204   6.408   3.559  2.2158  0.5958  1.3542
19741TIP3   OH280637   2.132   0.104  10.579 -0.0593  0.2654  0.2502
19741TIP3    H180638   2.177   0.074  10.500  0.4224 -3.0993  1.6313
19741TIP3    H280639   2.058   0.156  10.546  1.6388  1.3218 -2.2457
19742TIP3   OH280640   2.794   5.409  12.824  0.1323 -0.1724  0.5443
19742TIP3    H180641   2.820   5.320  12.803  0.6252 -0.0011  0.4087
19742TIP3    H280642   2.776   5.450  12.740  2.8791  0.7527  0.2977
19743TIP3   OH280643   0.218   5.305  13.794 -0.4040  0.2019 -0.1574
19743TIP3    H180644   0.172   5.366  13.737  0.5511  0.0718 -1.0994
19743TIP3    H280645   0.205   5.219  13.753  0.2268  0.0950 -0.1399
19744TIP3   OH280646   0.830   2.889  15.177  0.0758  0.4627 -0.1741
19744TIP3    H180647   0.768   2.852  15.239  1.6511 -0.2621  1.0510
19744TIP3    H280648   0.810   2.846  15.094 -0.7945 -0.0360  0.2860
19745TIP3   OH280649   3.551   5.104   3.831  0.3036 -0.1672 -0.1920
19745TIP3    H180650   3.606   5.178   3.858 -0.5011  0.5462 -0.4729
19745TIP3    H280651   3.478   5.104   3.893  0.9007 -1.4922  0.5635
19746TIP3   OH280652   3.809   5.396   0.835 -0.0170  0.2121 -0.0126
19746TIP3    H180653   3.750   5.337   0.788 -0.0825 -0.0713  0.4126
19746TIP3    H280654   3.890   5.346   0.845  0.5414  0.8358 -1.1631
19747TIP3   OH280655   6.087   3.158  16.283 -0.1747  0.1827  0.4572
19747TIP3    H180656   6.144   3.234  16.290 -1.3998  1.3952 -1.5204
19747TIP3    H280657   6.097   3.128  16.192 -2.9384  0.7594 -0.1496
19748TIP3   OH280658   0.533   3.189  11.692  0.0210  0.7132  0.3473
19748TIP3    H180659   0.567   3.202  11.781 -0.7915  1.6636  0.5340
19748TIP3    H280660   0.460   3.128  11.703  0.3283  0.3233  0.2381
19749TIP3   OH280661   3.178   3.687  14.971 -0.4648 -0.6163  0.0358
19749TIP3    H180662   3.261   3.641  14.979 -0.6784 -0.8730  0.8584
19749TIP3    H280663   3.126   3.656  15.045 -0.6753  0.8369  0.5261
19750TIP3   OH280664   4.875   3.664   4.066  0.4367  0.5642  0.0082
19750TIP3    H180665   4.926   3.745   4.061  3.0799 -1.0423 -1.9711
19750TIP3    H280666   4.933   3.603   4.113 -0.4497 -0.8343 -0.6525
19751TIP3   OH280667   1.727   2.291   0.031 -0.2238 -0.2095  0.1299
19751TIP3    H180668   1.672   2.276  -0.046 -0.0986  1.1854 -0.2608
19751TIP3    H280669   1.810   2.320  -0.005 -0.2028  0.5701  0.7942
19752TIP3   OH280670   1.133   3.735   0.411  0.4688 -0.0283  0.3813
19752TIP3    H180671   1.184   3.655   0.417 -0.4042 -0.4794  3.4368
19752TIP3    H280672   1.045   3.710   0.437  0.6585  2.2154  3.7880
19753TIP3   OH280673   0.642   2.434   4.702  0.0123 -0.2107 -0.1700
19753TIP3    H180674   0.707   2.390   4.756 -1.5128 -3.1148 -0.4911
19753TIP3    H280675   0.677   2.430   4.613  0.9922  1.5693  0.0871
19754TIP3   OH280676   6.552   5.813  13.535  0.1621 -0.5295 -0.1417
19754TIP3    H180677   6.475   5.803  13.479 -0.3000 -0.6168  0.5050
19754TIP3    H280678   6.566   5.907  13.541 -0.0174 -0.5064 -0.0920
19755TIP3   OH280679   5.248   4.622  14.422 -0.0907 -0.1973  0.3355
19755TIP3    H180680   5.295   4.541  14.442 -0.0843 -0.5058 -0.8401
19755TIP3    H280681   5.285   4.650  14.338 -0.3309  0.8487  0.5745
19756TIP3   OH280682   1.596   4.788  17.037  0.4349 -0.3518  0.0881
19756TIP3    H180683   1.516   4.836  17.061  0.4843 -1.3838  2.6862
19756TIP3    H280684   1.661   4.856  17.022 -1.3985  0.6862 -4.8021
19757TIP3   OH280685   0.641   0.205   5.260  0.4586  0.2313  0.2651
19757TIP3    H180686   0.711   0.257   5.299 -0.9610  1.4542  1.2714
19757TIP3    H280687   0.627   0.245   5.174  1.4245 -0.4598 -0.2397
19758TIP3   OH280688   4.696   3.615  12.649 -0.4362  0.1952  0.1673
19758TIP3    H180689   4.771   3.597  12.592 -0.0548 -1.6265  1.1535
19758TIP3    H280690   4.704   3.708  12.670 -0.7967  1.0530 -2.9612
19759TIP3   OH280691   5.317   1.815  15.890 -0.2656  0.4990  0.1329
19759TIP3    H180692   5.259   1.891  15.886 -0.2887  0.5661  1.3788
19759TIP3    H280693   5.322   1.793  15.983  0.2711 -0.6217 -0.1410
19760TIP3   OH280694   6.366   6.796  16.806 -0.1532  0.2474 -0.4383
19760TIP3    H180695   6.272   6.798  16.792 -0.0502  0.8611 -1.0790
19760TIP3    H280696   6.401   6.865  16.750  0.5371  1.0264  0.8924
19761TIP3   OH280697   5.517   3.198   1.779 -0.2241 -0.0294  0.0912
19761TIP3    H180698   5.507   3.204   1.874 -2.5706  2.1555 -0.1722
19761TIP3    H280699   5.611   3.206   1.764 -0.0238  3.0179  2.1235
19762TIP3   OH280700   1.492   6.063  11.658  0.1361  0.0367 -0.6739
19762TIP3    H180701   1.559   6.111  11.609  1.6758 -2.3966 -1.0766
19762TIP3    H280702   1.496   5.974  11.624 -1.6205 -0.7720  1.0457
19763TIP3   OH280703   3.981   4.111  14.855  0.0122  0.0791  0.3006
19763TIP3    H180704   4.005   4.203  14.840  0.0122 -0.1272 -1.0952
19763TIP3    H280705   3.921   4.091  14.783  2.3109 -1.8695 -1.2062
19764TIP3   OH280706   4.926   3.138  12.193 -0.0359  0.0297  0.5073
19764TIP3    H180707   4.992   3.078  12.227  1.3072  0.5777 -0.9664
19764TIP3    H280708   4.976   3.215  12.166 -1.4424  0.9507  0.4130
19765TIP3   OH280709   6.005   4.186   3.517 -0.7165 -0.4157 -0.4530
19765TIP3    H180710   5.990   4.277   3.489  1.0675 -0.2259 -0.9223
19765TIP3    H280711   5.953   4.177   3.597  0.3841  1.6085  0.6036
19766TIP3   OH280712   4.295   1.711   3.150  0.2735 -0.9225  0.5497
19766TIP3    H180713   4.294   1.702   3.246  1.1433  0.6081  0.7396
19766TIP3    H280714   4.388   1.717   3.129  0.0349  2.6204  0.0653
19767TIP3   OH280715   2.547   4.576   4.677 -0.1496 -0.1507  0.4153
19767TIP3    H180716   2.471   4.615   4.633 -1.0194 -0.7177  1.3802
19767TIP3    H280717   2.573   4.504   4.620 -2.3217 -1.9593  1.5949
19768TIP3   OH280718   5.258   2.200   3.479  0.3495 -0.3375 -0.5755
19768TIP3    H180719   5.234   2.107   3.479 -2.1217  0.2258  1.0281
19768TIP3    H280720   5.272   2.220   3.386  0.3488 -2.1427 -1.0161
19769TIP3   OH280721   6.641   5.880  14.707 -0.1824 -0.5625 -0.9828
19769TIP3    H180722   6.630   5.807  14.647 -0.6722 -0.1641 -1.3904
19769TIP3    H280723   6.591   5.951  14.668 -0.8031 -0.3918  0.0685
19770TIP3   OH280724   3.087   6.109  16.784 -0.3726  0.2407 -0.0343
19770TIP3    H180725   3.135   6.181  16.826 -0.2862 -0.1036  0.4742
19770TIP3    H280726   3.154   6.043  16.767 -0.7018 -0.3739  0.9711
19771TIP3   OH280727   1.868   2.721   4.022  0.2054  0.0417 -0.6062
19771TIP3    H180728   1.851   2.751   4.111  1.8333  0.3595 -0.3595
19771TIP3    H280729   1.883   2.627   4.030 -0.7534 -0.1313 -0.7336
19772TIP3   OH280730   5.825   0.238   2.987  0.2697  0.1446  0.6386
19772TIP3    H180731   5.769   0.271   3.057 -0.3733 -0.0632  0.2261
19772TIP3    H280732   5.803   0.145   2.980  0.5308  0.1021  0.3486
19773TIP3   OH280733   3.168   4.601  16.666  0.0657 -0.5167 -0.1470
19773TIP3    H180734   3.161   4.684  16.620  1.8999 -0.2103  0.0814
19773TIP3    H280735   3.120   4.538  16.611  0.1404  0.3266 -1.1942
19774TIP3   OH280736   6.274   2.291  11.367  0.4851 -0.0889  0.1938
19774TIP3    H180737   6.313   2.230  11.304  0.8340  0.4111 -0.0836
19774TIP3    H280738   6.282   2.377  11.325  0.9686  0.2916  1.0357
19775TIP3   OH280739   5.297   5.667  16.648 -0.9239 -0.2905  0.0113
19775TIP3    H180740   5.272   5.757  16.667  0.1749 -0.0764  0.5536
19775TIP3    H280741   5.214   5.621  16.634 -1.6196  0.3746  1.6735
19776TIP3   OH280742   0.328   1.477  12.898  0.0232 -0.2004 -0.3199
19776TIP3    H180743   0.313   1.441  12.986 -2.0370  0.4124 -0.3753
19776TIP3    H280744   0.288   1.414  12.839 -1.7629  1.0882 -0.5490
19777TIP3   OH280745   2.870   4.256   1.986  0.4682  0.1018  0.5338
19777TIP3    H180746   2.812   4.332   1.988  0.1842 -0.0189 -1.1215
19777TIP3    H280747   2.900   4.246   2.076 -0.6392  1.2806  1.0724
19778TIP3   OH280748   5.487   2.934  15.200 -0.2418 -0.0586 -0.6212
19778TIP3    H180749   5.419   2.895  15.255  0.7865 -0.2814  0.5232
19778TIP3    H280750   5.455   3.023  15.183  0.9724  1.3611  3.3928
19779TIP3   OH280751   6.680   3.807  13.089  0.0214 -0.2517 -0.1449
19779TIP3    H180752   6.761   3.831  13.043  0.7052 -0.6555  0.8104
19779TIP3    H280753   6.660   3.719  13.057 -0.1690 -0.0577 -0.5582
19780TIP3   OH280754   3.466   0.071   5.364 -0.5369 -0.2615  0.2207
19780TIP3    H180755   3.553   0.079   5.405 -0.5206  0.4261  0.0611
19780TIP3    H280756   3.457  -0.023   5.346  0.7900 -0.1729 -1.0707
19781TIP3   OH280757   3.228   3.126  11.893 -0.2821 -0.3175  0.1562
19781TIP3    H180758   3.161   3.190  11.920  0.1176 -0.3882  1.3412
19781TIP3    H280759   3.179   3.061  11.843 -0.9955 -0.0184  0.4408
19782TIP3   OH280760   3.951   1.832   5.812 -0.3460 -0.6602  0.6907
19782TIP3    H180761   3.938   1.918   5.773 -1.7702 -0.5336  1.3586
19782TIP3    H280762   4.035   1.838   5.858  1.8508 -1.0750 -2.8792
19783TIP3   OH280763   5.035   6.348   2.775  0.4218 -0.2300  0.0040
19783TIP3    H180764   5.084   6.280   2.822 -0.7371 -0.8837  0.3212
19783TIP3    H280765   5.086   6.364   2.696 -0.2085 -2.9390 -1.0813
19784TIP3   OH280766   4.637   4.966  11.953 -0.3721 -0.6184 -0.1455
19784TIP3    H180767   4.705   4.955  12.020  1.3930  1.4996 -1.4670
19784TIP3    H280768   4.660   4.902  11.885  0.9466  0.7170 -1.0157
19785TIP3   OH280769   5.108   6.271  16.915  0.4718  0.0607 -0.2414
19785TIP3    H180770   5.194   6.246  16.948 -0.6186 -1.6333  1.5296
19785TIP3    H280771   5.083   6.347  16.967  0.9903  0.7529 -0.9759
19786TIP3   OH280772   0.979   5.349   0.571 -0.3323  0.1669  0.9728
19786TIP3    H180773   1.049   5.285   0.562 -0.6956 -0.0201 -1.1686
19786TIP3    H280774   0.899   5.298   0.558 -0.6751  0.8781  0.2062
19787TIP3   OH280775   0.815   4.565   5.376 -0.3918  0.2198 -0.4429
19787TIP3    H180776   0.837   4.475   5.401 -0.1785  0.1935 -0.7219
19787TIP3    H280777   0.898   4.604   5.349 -0.8265 -0.2785 -2.7406
19788TIP3   OH280778   4.316   0.517  14.504  0.2032 -0.3565  0.3549
19788TIP3    H180779   4.319   0.520  14.600  1.1573  1.4646  0.3118
19788TIP3    H280780   4.222   0.510  14.484  0.0874 -2.5182  1.4004
19789TIP3   OH280781   5.160   5.202  11.619  0.0399 -0.5764 -0.3113
19789TIP3    H180782   5.086   5.161  11.664 -1.9999  0.9832 -2.0358
19789TIP3    H280783   5.206   5.251  11.687 -0.8191 -1.1738  0.7142
19790TIP3   OH280784   0.493   4.736   5.584 -0.0957  0.0190 -0.8661
19790TIP3    H180785   0.491   4.651   5.540  0.1359 -0.2146 -0.4298
19790TIP3    H280786   0.584   4.747   5.611 -0.7583 -1.1965  2.1571
19791TIP3   OH280787   3.555   2.833  15.388 -0.1915  0.0890  0.2546
19791TIP3    H180788   3.515   2.913  15.423  0.5938 -0.1864  1.8724
19791TIP3    H280789   3.641   2.861  15.357 -0.9870  0.3912 -1.8748
19792TIP3   OH280790   5.931   2.515  16.391  0.4132 -0.0975 -0.0037
19792TIP3    H180791   5.850   2.528  16.341 -0.2300 -2.0923  0.4416
19792TIP3    H280792   5.986   2.590  16.368 -1.1874  0.8081 -1.0500
19793TIP3   OH280793   6.126   0.838   6.111  1.0777 -0.1198 -0.3373
19793TIP3    H180794   6.217   0.864   6.121  1.4366 -1.6619  0.8558
19793TIP3    H280795   6.128   0.742   6.113 -0.5173 -0.1939 -0.8022
19794TIP3   OH280796   2.429   2.026   3.943  0.1545 -0.0170 -0.0397
19794TIP3    H180797   2.496   2.062   4.001  0.8652 -0.3487 -0.6374
19794TIP3    H280798   2.346   2.055   3.981  0.6731  2.2426 -0.4749
19795TIP3   OH280799   5.132   4.657   3.667  0.1881  0.7894 -0.1327
19795TIP3    H180800   5.084   4.588   3.622  0.9247  0.8226 -1.0194
19795TIP3    H280801   5.171   4.614   3.743 -1.0300  0.7195  0.4780
19796TIP3   OH280802   0.046   1.789  15.692 -0.8595 -0.1604 -0.1652
19796TIP3    H180803   0.098   1.712  15.667  0.5037 -0.2057  2.4871
19796TIP3    H280804   0.085   1.861  15.644  0.4728 -0.5135  0.3435
19797TIP3   OH280805   3.020   3.576   0.063  0.1269  0.1851 -0.2165
19797TIP3    H180806   2.973   3.531   0.133  1.5931 -2.2060 -0.6584
19797TIP3    H280807   3.030   3.510  -0.006  0.6268  1.8222 -1.7878
19798TIP3   OH280808   2.037   3.466  14.380 -0.8254  0.2872 -0.2379
19798TIP3    H180809   2.086   3.523  14.440 -1.5566  1.8332 -1.0680
19798TIP3    H280810   2.105   3.424  14.327 -0.0535 -1.9845  2.2935
19799TIP3   OH280811   1.246   3.798   3.435  0.1907  0.5464  0.0464
19799TIP3    H180812   1.191   3.862   3.391  1.9090  0.8374 -1.7978
19799TIP3    H280813   1.330   3.843   3.450  1.0420 -0.8729 -0.2091
19800TIP3   OH280814   4.366   5.837  13.741  0.3652  0.4069 -0.1280
19800TIP3    H180815   4.274   5.851  13.720  0.6560 -0.4833 -2.3535
19800TIP3    H280816   4.382   5.745  13.719  1.3764  0.0268  1.9856
19801TIP3   OH280817   1.413   2.326   4.108 -0.2633  0.3712  0.3179
19801TIP3    H180818   1.403   2.415   4.074 -2.2510  0.2032  0.3408
19801TIP3    H280819   1.505   2.321   4.135 -0.0187  2.2902  0.0073
19802TIP3   OH280820   0.355   6.683   1.709 -0.1469  0.0787 -0.4270
19802TIP3    H180821   0.338   6.726   1.793 -0.7138  0.7826 -0.8886
19802TIP3    H280822   0.360   6.755   1.646 -0.5111 -0.4888 -1.1215
19803TIP3   OH280823   0.631   5.842  13.524 -0.4482 -0.2011 -0.7171
19803TIP3    H180824   0.585   5.785  13.585  0.1432  0.3076  0.2265
19803TIP3    H280825   0.580   5.922  13.523 -0.4231 -0.1866 -0.8437
19804TIP3   OH280826   4.659   6.109   6.242 -0.1317  0.4395 -0.7150
19804TIP3    H180827   4.620   6.064   6.317  0.8678 -0.4529 -0.7064
19804TIP3    H280828   4.750   6.123   6.267 -0.3797  2.4442 -0.7556
19805TIP3   OH280829   0.289   0.752   6.288 -0.1137  0.5552 -0.1549
19805TIP3    H180830   0.374   0.708   6.289  0.1439  0.8208 -2.9052
19805TIP3    H280831   0.226   0.683   6.307  0.5325 -0.2140 -0.7510
19806TIP3   OH280832   5.203   0.070   0.846 -0.0539 -0.2197  0.6099
19806TIP3    H180833   5.255   0.016   0.787  1.0125  0.9649  0.4120
19806TIP3    H280834   5.210   0.027   0.931  2.0889  0.4026  0.8048
19807TIP3   OH280835   4.725   3.862   3.780  0.6082  0.1500  0.0852
19807TIP3    H180836   4.640   3.906   3.778  1.3414  1.7670 -2.9962
19807TIP3    H280837   4.704   3.769   3.793 -1.5733  0.5773  0.0165
19808TIP3   OH280838   3.282   5.240  14.795  0.5535  0.2442  0.7042
19808TIP3    H180839   3.205   5.242  14.738 -0.2941 -0.6784  1.7528
19808TIP3    H280840   3.284   5.150  14.830  2.8342 -0.1362 -0.2180
19809TIP3   OH280841   0.852   5.732  16.909  0.3822 -0.2123 -0.4879
19809TIP3    H180842   0.766   5.773  16.907  0.1852 -0.6266 -0.8513
19809TIP3    H280843   0.906   5.790  16.961 -0.2828 -0.2724  0.2769
19810TIP3   OH280844   5.409   2.386  14.356 -0.0198  0.3976 -0.1968
19810TIP3    H180845   5.404   2.394  14.451  1.0383  1.1985 -0.1831
19810TIP3    H280846   5.393   2.474  14.323  1.3947  0.5184 -0.6482
19811TIP3   OH280847   2.771   5.517   2.129  0.0921  0.4047  0.5138
19811TIP3    H180848   2.805   5.429   2.142  2.8113  1.2078 -0.5463
19811TIP3    H280849   2.769   5.529   2.035  5.5543  3.2934  0.3481
19812TIP3   OH280850   6.548   2.294  13.500  0.2127 -0.2599 -0.2049
19812TIP3    H180851   6.603   2.287  13.578 -1.4267 -0.3501  0.9904
19812TIP3    H280852   6.562   2.383  13.467 -0.2929  0.3353  1.1496
19813TIP3   OH280853   3.547   0.692  13.302  0.2019  0.5508 -0.4920
19813TIP3    H180854   3.542   0.785  13.322  3.0600  0.9514 -1.1696
19813TIP3    H280855   3.576   0.689  13.211 -1.8998 -1.0870 -1.1918
19814TIP3   OH280856   3.576   1.631   5.779  0.1300  0.2643  0.1734
19814TIP3    H180857   3.519   1.572   5.731  0.2620  0.9504 -0.8631
19814TIP3    H280858   3.567   1.604   5.871 -0.7774 -0.5274 -0.1312
19815TIP3   OH280859   3.565   1.995   0.943 -0.3171  0.0675  0.5463
19815TIP3    H180860   3.568   2.088   0.921 -0.6437  0.1403  0.7928
19815TIP3    H280861   3.513   1.992   1.024 -0.0360 -0.2942  0.7131
19816TIP3   OH280862   0.870   5.393   1.704 -0.1150  0.3953 -0.1640
19816TIP3    H180863   0.843   5.419   1.616 -0.1753  0.1469 -0.2192
19816TIP3    H280864   0.860   5.473   1.756 -0.1875  0.5141 -0.3580
19817TIP3   OH280865   5.202   0.552   6.083 -0.2368  0.2854 -0.0996
19817TIP3    H180866   5.218   0.623   6.145 -0.5872  1.2888 -1.1232
19817TIP3    H280867   5.281   0.497   6.089 -0.1917  0.4598  1.0833
19818TIP3   OH280868   2.913   4.829  10.932 -0.0487  0.4312 -0.1348
19818TIP3    H180869   2.912   4.854  11.024  0.3097  0.1826 -0.0625
19818TIP3    H280870   2.960   4.900  10.888 -0.3061  0.5983 -0.1421
19819TIP3   OH280871   3.953   2.370   6.017  0.1963 -0.0286 -0.9925
19819TIP3    H180872   3.952   2.311   5.942  1.3947 -0.3742 -0.7501
19819TIP3    H280873   4.015   2.439   5.994  0.6945 -0.2190 -0.2667
19820TIP3   OH280874   5.549   0.235  10.711  0.1116 -0.0062  0.0325
19820TIP3    H180875   5.535   0.140  10.706  0.4518 -0.0588  0.0796
19820TIP3    H280876   5.597   0.256  10.631 -0.1808  0.1658 -0.0985
19821TIP3   OH280877   3.916   4.735   5.579  0.2708 -0.9096 -0.2413
19821TIP3    H180878   3.878   4.716   5.665 -0.1590  0.6567 -0.0510
19821TIP3    H280879   3.912   4.830   5.572  1.3794 -0.9332 -1.5200
19822TIP3   OH280880   1.229   6.564  10.736 -0.1429 -0.0855  0.5508
19822TIP3    H180881   1.144   6.523  10.717  0.0020 -0.0215 -0.2928
19822TIP3    H280882   1.258   6.597  10.651  0.4241  0.4736  0.9562
19823TIP3   OH280883   4.036   0.813  12.688  0.7678  0.0854 -0.0123
19823TIP3    H180884   3.965   0.876  12.672 -0.2818 -0.3969  2.3112
19823TIP3    H280885   4.033   0.798  12.782  2.0280 -2.2475 -0.2795
19824TIP3   OH280886   0.650   0.406  15.007 -0.0345 -0.0563 -0.0062
19824TIP3    H180887   0.576   0.349  15.030  1.1149 -1.1406  1.1177
19824TIP3    H280888   0.682   0.372  14.923 -0.7340  0.3796 -0.4678
19825TIP3   OH280889   0.550   1.510  14.049  0.8130 -0.3708  0.1469
19825TIP3    H180890   0.639   1.478  14.034  1.2992  0.0364  1.8963
19825TIP3    H280891   0.558   1.606  14.042  0.2380 -0.3965 -0.9505
19826TIP3   OH280892   5.265   6.162  16.253 -0.3544 -0.1024 -0.5658
19826TIP3    H180893   5.274   6.254  16.229  0.8325 -0.2246 -0.6422
19826TIP3    H280894   5.319   6.152  16.332  0.9842 -1.0952 -1.5605
19827TIP3   OH280895   0.175   2.611   5.302  0.4823  0.3208  0.0917
19827TIP3    H180896   0.249   2.634   5.246 -0.8237  1.5394 -1.2132
19827TIP3    H280897   0.098   2.647   5.257 -1.0270 -1.6475  0.9488
19828TIP3   OH280898   6.696   5.257   0.481  0.4841 -0.4496  0.5149
19828TIP3    H180899   6.645   5.213   0.549 -0.7386 -0.5547 -0.4236
19828TIP3    H280900   6.631   5.280   0.415  1.3978  1.0513  0.0995
19829TIP3   OH280901   3.341   2.774   5.097 -0.2129 -0.5353 -0.6410
19829TIP3    H180902   3.427   2.789   5.136 -0.5381  0.5846 -0.2981
19829TIP3    H280903   3.309   2.693   5.138 -0.5864  0.6412  1.5832
19830TIP3   OH280904   4.633   4.417   5.934  0.3140  0.1823 -0.3080
19830TIP3    H180905   4.541   4.401   5.951  0.6520 -0.1362  1.4546
19830TIP3    H280906   4.634   4.480   5.862 -1.2571  0.0278 -0.4918
19831TIP3   OH280907   2.939   4.835  13.267  0.1927 -0.2242 -0.3476
19831TIP3    H180908   2.866   4.859  13.324  0.0158 -0.4351 -0.4813
19831TIP3    H280909   3.014   4.830  13.325  0.0240 -0.3819 -0.1419
19832TIP3   OH280910   2.518   5.175  14.802  0.0722  0.5347  0.5185
19832TIP3    H180911   2.507   5.104  14.865 -1.1421  0.0179 -0.2470
19832TIP3    H280912   2.430   5.214  14.795  0.2630  0.7918 -0.5916
19833TIP3   OH280913   0.434   0.018   4.077  0.2861 -0.1297 -0.2108
19833TIP3    H180914   0.359   0.051   4.027 -1.0063 -1.0593  1.0271
19833TIP3    H280915   0.462   0.091   4.131 -0.0742  0.0609 -0.2805
19834TIP3   OH280916   2.308   4.404   3.751  0.4894  0.3285 -0.5285
19834TIP3    H180917   2.334   4.326   3.799  1.7087  1.9432  1.6014
19834TIP3    H280918   2.244   4.447   3.807  0.1210  1.0589 -1.4842
19835TIP3   OH280919   0.090   4.151  13.290  0.0125  0.4294  0.1163
19835TIP3    H180920   0.148   4.208  13.341  2.3625 -0.2115 -1.6547
19835TIP3    H280921   0.056   4.089  13.354  2.5221 -0.0950  1.0516
19836TIP3   OH280922   6.616   3.106  11.835  0.1652  0.1451 -0.1971
19836TIP3    H180923   6.634   3.035  11.773  1.2575  1.4434 -1.4301
19836TIP3    H280924   6.687   3.102  11.899  1.4206  1.3535 -1.4509
19837TIP3   OH280925   6.639   5.599   2.700  0.3275 -0.0281 -0.5624
19837TIP3    H180926   6.613   5.602   2.607  1.0595  0.5784 -0.7551
19837TIP3    H280927   6.700   5.525   2.705  0.9654  0.4726 -0.7551
19838TIP3   OH280928   3.683   3.546   0.685 -0.2097  0.0765  0.1090
19838TIP3    H180929   3.767   3.559   0.642  0.1756  0.0525  0.8519
19838TIP3    H280930   3.702   3.491   0.761 -1.0040 -0.5038 -0.0936
19839TIP3   OH280931   0.145   4.098  14.741 -0.4566 -0.0811  0.0487
19839TIP3    H180932   0.209   4.150  14.788  0.1097  1.0397 -1.8458
19839TIP3    H280933   0.093   4.162  14.692 -0.7872 -1.1806 -1.0974
19840TIP3   OH280934   3.626   4.658   4.203 -0.3299 -0.2061 -0.2393
19840TIP3    H180935   3.542   4.641   4.161 -0.3033 -0.4360 -0.2001
19840TIP3    H280936   3.666   4.727   4.150 -0.2769 -0.5225 -0.6188
19841TIP3   OH280937   6.588   1.353   5.244  0.3078 -0.0378  1.1414
19841TIP3    H180938   6.523   1.294   5.282 -1.4349  2.0875  1.6144
19841TIP3    H280939   6.669   1.332   5.291 -0.2403 -2.0089  1.2948
19842TIP3   OH280940   5.844   1.444   1.830 -0.1599  0.6771 -0.3342
19842TIP3    H180941   5.832   1.349   1.841  1.2960  0.7930  3.4425
19842TIP3    H280942   5.768   1.471   1.777 -0.9955 -2.4565 -0.9465
19843TIP3   OH280943   1.076   3.560   2.011  0.3058  0.0585  0.2243
19843TIP3    H180944   1.012   3.620   1.972  0.4515 -0.0173 -0.1281
19843TIP3    H280945   1.030   3.524   2.087 -0.0900 -0.0276 -0.0494
19844TIP3   OH280946   6.162   0.060  16.222  0.0589 -0.2436 -0.0186
19844TIP3    H180947   6.191   0.010  16.146  2.3418  1.3500 -0.3031
19844TIP3    H280948   6.172   0.000  16.296  0.3771 -0.9582 -0.6305
19845TIP3   OH280949   0.083   0.157  17.012 -0.0249 -0.2673  0.1462
19845TIP3    H180950   0.001   0.108  17.008 -0.6331  0.7705 -0.6488
19845TIP3    H280951   0.060   0.239  17.057  0.6077 -0.0347  0.0521
19846TIP3   OH280952   4.801   5.064   3.667 -0.3140  0.1535 -0.1185
19846TIP3    H180953   4.859   4.993   3.638 -0.7010 -0.2335  0.0435
19846TIP3    H280954   4.714   5.025   3.669 -0.2600  0.0112  1.9871
19847TIP3   OH280955   5.116   6.395  16.395 -0.1189 -0.1481  0.2840
19847TIP3    H180956   5.061   6.465  16.429 -1.5807 -0.2658 -1.6549
19847TIP3    H280957   5.186   6.441  16.348  0.0201 -0.0036  0.6274
19848TIP3   OH280958   5.925   4.293  14.382  0.0151 -0.1960 -0.0776
19848TIP3    H180959   5.893   4.285  14.292 -0.0470  0.4346 -0.1117
19848TIP3    H280960   6.019   4.276  14.376 -0.2362 -1.7537 -0.0199
19849TIP3   OH280961   6.153   5.539   4.488  0.0203 -0.1539  0.0996
19849TIP3    H180962   6.131   5.586   4.568  1.5100  0.0928  0.3950
19849TIP3    H280963   6.238   5.499   4.506  1.0489  1.0420 -1.8271
19850TIP3   OH280964   0.139   4.213   2.163  0.0127 -0.3621 -0.0295
19850TIP3    H180965   0.193   4.166   2.100 -0.4936 -1.8594  0.6244
19850TIP3    H280966   0.097   4.145   2.215 -2.4413  0.7300 -0.4305
19851TIP3   OH280967   1.795   5.047  15.259  0.4024 -0.9923  0.5530
19851TIP3    H180968   1.855   5.085  15.195 -0.0721 -1.4838 -0.1937
19851TIP3    H280969   1.753   5.123  15.299  0.7772 -0.6770  0.3651
19852TIP3   OH280970   3.893   1.898   3.541 -0.6715 -0.2164  0.0833
19852TIP3    H180971   3.902   1.865   3.451 -0.0339 -2.4876  0.9071
19852TIP3    H280972   3.979   1.937   3.560  0.0278 -1.8344  0.4369
19853TIP3   OH280973   5.721   3.171   2.806  0.4421 -0.6447  0.3809
19853TIP3    H180974   5.691   3.177   2.715 -0.8353 -0.2634  0.8013
19853TIP3    H280975   5.642   3.152   2.856  0.6320  1.7421  1.7198
19854TIP3   OH280976   3.333   4.449  12.803  0.0174 -0.3446  0.0641
19854TIP3    H180977   3.343   4.472  12.711 -1.3457 -2.5761 -0.7099
19854TIP3    H280978   3.273   4.515  12.838 -3.0093 -1.9138 -1.8227
19855TIP3   OH280979   5.354   3.972   3.395 -0.1759 -0.0120 -0.3435
19855TIP3    H180980   5.367   3.958   3.489  2.3701  0.9108 -0.4947
19855TIP3    H280981   5.436   3.947   3.354 -1.0902 -0.0225 -2.3176
19856TIP3   OH280982   3.175   0.599  16.549  0.2103  0.7952 -0.1671
19856TIP3    H180983   3.240   0.622  16.615  0.7288  0.0064 -0.3811
19856TIP3    H280984   3.226   0.560  16.478 -0.5905 -1.5119  0.4081
19857TIP3   OH280985   0.329   1.586   2.893 -0.4336 -0.0849 -0.4530
19857TIP3    H180986   0.266   1.521   2.864 -1.0153  0.3422 -0.1755
19857TIP3    H280987   0.332   1.575   2.989 -0.8351  0.5579 -0.3647
19858TIP3   OH280988   6.575   6.192  15.725  0.1826 -0.5365  0.0898
19858TIP3    H180989   6.513   6.131  15.763 -0.1636  0.6456  1.5395
19858TIP3    H280990   6.529   6.276  15.723  1.1994  0.0440 -0.2506
19859TIP3   OH280991   6.617   5.225   2.404 -0.7861 -0.0329  0.2349
19859TIP3    H180992   6.668   5.290   2.453 -1.2740  0.0035  0.7005
19859TIP3    H280993   6.659   5.222   2.318  1.0167 -1.1663  1.0772
19860TIP3   OH280994   2.903   2.943  11.297  0.0936  0.4591  0.4176
19860TIP3    H180995   2.953   2.905  11.224  0.6818  0.0505  1.0280
19860TIP3    H280996   2.838   2.997  11.254  0.2458 -0.0034 -0.4334
19861TIP3   OH280997   5.120   4.793  13.095  0.2103  0.0908  0.6786
19861TIP3    H180998   5.092   4.819  13.007  2.2409  3.9102  0.9152
19861TIP3    H280999   5.108   4.698  13.098 -0.7066 -0.0879 -3.3918
19862TIP3   OH281000   4.297   3.895   0.970 -0.2691  0.4551 -0.5086
19862TIP3    H181001   4.287   3.983   1.005  0.4776  0.9240 -1.4417
19862TIP3    H281002   4.263   3.838   1.039  1.5795  1.3007  1.1908
19863TIP3   OH281003   1.355   5.894   1.028 -0.2219  0.1507  0.0580
19863TIP3    H181004   1.262   5.913   1.019  0.2614  2.9156  0.1341
19863TIP3    H281005   1.361   5.842   1.109 -1.6913 -0.1355 -0.0004
19864TIP3   OH281006   4.948   0.437   5.296  0.4009  0.7124 -0.5873
19864TIP3    H181007   5.029   0.424   5.245 -0.0444  0.5110 -1.2560
19864TIP3    H281008   4.914   0.521   5.266 -0.7615 -0.1902 -1.9036
19865TIP3   OH281009   2.718   3.411  14.820 -0.9944 -0.0753  0.1029
19865TIP3    H181010   2.655   3.364  14.875 -1.0475  0.7246  0.7450
19865TIP3    H281011   2.773   3.342  14.782 -1.4130 -0.6864  0.5784
19866TIP3   OH281012   5.191   1.240  12.073  0.1897  0.0562  0.1596
19866TIP3    H181013   5.245   1.161  12.080 -1.7954 -1.5172 -1.1252
19866TIP3    H281014   5.137   1.225  11.995 -0.7590  2.3951  0.2919
19867TIP3   OH281015   0.396   4.778  15.043 -0.0681 -0.2177 -0.1077
19867TIP3    H181016   0.428   4.830  14.970 -0.1768 -0.2318 -0.1659
19867TIP3    H281017   0.367   4.696  15.003  0.0204 -0.2878 -0.0282
19868TIP3   OH281018   3.711   2.129   5.511 -0.1358  0.1563 -0.0075
19868TIP3    H181019   3.705   2.176   5.427  0.6078  1.7250  0.7651
19868TIP3    H281020   3.680   2.193   5.575 -0.9191 -1.1069  0.9115
19869TIP3   OH281021   6.284   4.949   2.520  0.1391  0.2147  0.1674
19869TIP3    H181022   6.215   4.996   2.473  1.4210  0.7276 -1.3033
19869TIP3    H281023   6.290   4.864   2.476 -0.0954 -0.1582  0.8347
19870TIP3   OH281024   6.284   6.157   1.517  0.1550 -0.0266 -0.3249
19870TIP3    H181025   6.263   6.068   1.490 -1.0188  0.9897 -3.1852
19870TIP3    H281026   6.228   6.173   1.593 -1.0358 -1.1436 -0.9257
19871TIP3   OH281027   0.459   2.702  12.103 -0.2160  0.0326 -0.3413
19871TIP3    H181028   0.408   2.714  12.183  0.6523  1.7645 -0.0021
19871TIP3    H281029   0.419   2.626  12.061 -0.8376 -0.7973  1.6094
19872TIP3   OH281030   1.245   3.484   0.448  0.0679 -0.1224 -0.4553
19872TIP3    H181031   1.284   3.484   0.360  0.1850 -0.2298 -0.4041
19872TIP3    H281032   1.209   3.396   0.458  1.7859 -0.7793  0.3592
19873TIP3   OH281033   6.324   6.418   2.496  0.3978  0.0017  0.3431
19873TIP3    H181034   6.411   6.446   2.524 -0.5803  1.2580  2.4635
19873TIP3    H281035   6.321   6.434   2.402  2.4238 -0.0507  0.2438
19874TIP3   OH281036   1.372   1.742   4.132  0.3796  0.1572 -0.2739
19874TIP3    H181037   1.403   1.704   4.051  0.2237  0.2492 -0.3787
19874TIP3    H281038   1.334   1.826   4.106  0.6538  0.3499 -0.0561
19875TIP3   OH281039   4.947   3.275  14.039 -0.0844  0.3777 -0.3164
19875TIP3    H181040   4.982   3.237  14.119 -1.2065 -0.5365 -0.2336
19875TIP3    H281041   5.018   3.267  13.976  0.7968  1.0741  0.5624
19876TIP3   OH281042   4.812   3.004   4.171 -0.1052 -1.5826  0.1298
19876TIP3    H181043   4.718   3.007   4.154  0.1672  0.9816 -1.4697
19876TIP3    H281044   4.851   3.053   4.098  2.2138 -0.0542  2.2344
19877TIP3   OH281045   1.496   6.752  12.977  0.2460  0.2787  0.5364
19877TIP3    H181046   1.435   6.681  12.995 -0.2533  0.8312  1.0706
19877TIP3    H281047   1.560   6.747  13.048  0.1666  0.4061  0.6179
19878TIP3   OH281048   1.010   3.753   0.702 -0.0991 -0.0576  0.2232
19878TIP3    H181049   0.964   3.683   0.657 -0.4373 -0.3560  1.0192
19878TIP3    H281050   1.099   3.751   0.666 -1.2226  2.1673 -3.2784
19879TIP3   OH281051   4.777   5.792   3.094 -0.0052  0.2884  0.1922
19879TIP3    H181052   4.717   5.741   3.148  1.3480 -1.2809  0.2649
19879TIP3    H281053   4.723   5.821   3.020 -0.4087 -3.1992 -1.0719
19880TIP3   OH281054   4.947   6.239  16.683 -0.3338 -0.2335 -0.1717
19880TIP3    H181055   4.978   6.183  16.754 -0.0723  1.2489  0.9468
19880TIP3    H281056   4.896   6.181  16.627  2.2509 -2.2228 -0.6740
19881TIP3   OH281057   5.901   2.229  11.843  0.5821  0.1892 -0.1260
19881TIP3    H181058   5.854   2.145  11.845  0.6411  0.1749  0.9977
19881TIP3    H281059   5.993   2.205  11.849  0.6611  0.2917 -0.8587
19882TIP3   OH281060   4.287   3.528   3.759  0.4900 -0.9129  0.4163
19882TIP3    H181061   4.332   3.541   3.676 -1.0151  0.7131 -0.2090
19882TIP3    H281062   4.312   3.603   3.812 -0.3524 -0.7243  0.5662
19883TIP3   OH281063   3.387   0.043   5.634 -0.4341  0.3877  0.7563
19883TIP3    H181064   3.396   0.134   5.661 -0.5195 -0.0273  2.2548
19883TIP3    H281065   3.408   0.044   5.541  0.3185  1.8142  0.9128
19884TIP3   OH281066   5.911   1.290  16.399  0.0694  0.4739  0.4027
19884TIP3    H181067   5.950   1.205  16.376 -0.0580  0.0693  1.5786
19884TIP3    H281068   5.825   1.267  16.435  0.2156  1.0580  1.1383
19885TIP3   OH281069   0.039   6.538  10.898  0.0956 -0.3146 -0.0782
19885TIP3    H181070   0.027   6.630  10.922 -2.1541 -0.3464 -0.8075
19885TIP3    H281071  -0.040   6.516  10.848  1.5354 -2.0622 -1.7679
19886TIP3   OH281072   2.834   1.030  11.878  0.3625 -0.1190  0.1590
19886TIP3    H181073   2.927   1.051  11.867  0.7437 -1.7876 -0.0363
19886TIP3    H281074   2.830   0.986  11.963 -0.4420  0.8636  0.6514
19887TIP3   OH281075   5.832   1.411   5.294 -0.9163 -0.2641  0.1787
19887TIP3    H181076   5.886   1.448   5.224 -1.1487 -0.8184 -0.3018
19887TIP3    H281077   5.795   1.487   5.338 -0.8863  0.0890 -0.3988
19888TIP3   OH281078   3.963   1.879  11.023 -0.4268 -0.1139 -0.4867
19888TIP3    H181079   3.942   1.846  10.936  1.5584  1.0164 -1.4724
19888TIP3    H281080   3.969   1.974  11.012  1.3514 -0.0693  0.4790
19889TIP3   OH281081   2.041   3.686  11.050 -0.6770  0.1998 -0.5498
19889TIP3    H181082   2.013   3.698  10.959 -1.5017  0.2123 -0.3060
19889TIP3    H281083   2.012   3.765  11.095  0.2396  0.4502 -0.3849
19890TIP3   OH281084   4.431   2.933  15.024  0.3937  0.0261  0.3790
19890TIP3    H181085   4.367   2.947  15.094  0.6293  0.8868  0.4343
19890TIP3    H281086   4.412   2.845  14.991 -0.6985  0.2019  0.5132
19891TIP3   OH281087   3.805   0.214   1.216  0.8631  0.5306  0.1710
19891TIP3    H181088   3.741   0.147   1.193  0.4533  0.8911  0.2617
19891TIP3    H281089   3.760   0.270   1.278  1.0314  1.1841 -0.2882
19892TIP3   OH281090   2.675   5.614   5.644 -0.4268 -0.7774 -0.3636
19892TIP3    H181091   2.702   5.687   5.700 -0.4521 -2.2488  1.6633
19892TIP3    H281092   2.616   5.562   5.699 -0.7287 -2.1109 -1.8850
19893TIP3   OH281093   1.294   2.583   1.455 -0.2855 -0.6863 -0.2763
19893TIP3    H181094   1.327   2.529   1.527 -0.4802 -1.6763 -0.8994
19893TIP3    H281095   1.242   2.522   1.402  0.6849 -0.2255 -1.8130
19894TIP3   OH281096   1.357   5.762   3.923 -0.0526  0.1397 -0.6542
19894TIP3    H181097   1.401   5.692   3.971 -0.0563  0.7741  0.2942
19894TIP3    H281098   1.426   5.825   3.902 -0.3786  0.8493  0.3190
19895TIP3   OH281099   0.593   4.034  12.031 -0.2882 -0.2460 -0.1242
19895TIP3    H181100   0.541   3.968  12.076 -0.7023  0.9289  1.2126
19895TIP3    H281101   0.563   4.032  11.940  1.1669 -3.2786 -0.6563
19896TIP3   OH281102   6.598   2.987  14.697  0.5376  0.8409 -0.0443
19896TIP3    H181103   6.577   3.078  14.715 -0.6180  0.5486  0.2081
19896TIP3    H281104   6.552   2.968  14.615 -1.2636 -0.1459  1.1131
19897TIP3   OH281105   3.699   0.126   1.539 -0.2292 -0.1040  0.0989
19897TIP3    H181106   3.689   0.209   1.586 -0.1192  1.6975 -2.7908
19897TIP3    H281107   3.611   0.089   1.536 -0.9228  1.5458 -1.2515
19898TIP3   OH281108   2.810   3.883   4.202 -0.3672 -0.1120  0.2738
19898TIP3    H181109   2.871   3.833   4.258 -1.1415  0.6279  1.8348
19898TIP3    H281110   2.866   3.949   4.160  0.2105 -0.5726  0.2993
19899TIP3   OH281111   2.253   1.197  11.468 -0.2147 -0.0567 -0.2526
19899TIP3    H181112   2.273   1.190  11.561  2.2540 -0.9203 -0.7605
19899TIP3    H281113   2.172   1.147  11.456  0.2021 -1.1515  1.2175
19900TIP3   OH281114   1.457   3.452   5.423 -0.0528  0.2341  0.1969
19900TIP3    H181115   1.437   3.543   5.400 -1.6984  0.0437  0.7493
19900TIP3    H281116   1.391   3.400   5.377  0.4761 -0.6314  0.3914
19901TIP3   OH281117   6.140   3.599  13.226  0.3292  0.3909 -0.5229
19901TIP3    H181118   6.062   3.608  13.279 -0.2346  1.0015 -1.4166
19901TIP3    H281119   6.175   3.688  13.220 -0.0507  0.4849 -1.7757
19902TIP3   OH281120   3.261   5.231   4.289  0.1724  0.5274 -0.6376
19902TIP3    H181121   3.323   5.179   4.340  0.8298  2.2056  0.3654
19902TIP3    H281122   3.316   5.281   4.228 -0.3177  0.9665 -0.7297
19903TIP3   OH281123   2.425   6.689   2.452 -0.3197  0.3594  0.2316
19903TIP3    H181124   2.495   6.725   2.399  0.1605  1.5024  1.5817
19903TIP3    H281125   2.350   6.682   2.392  0.5290  0.4718 -0.8617
19904TIP3   OH281126   3.295   5.426  14.535 -0.0716 -0.3698 -0.0725
19904TIP3    H181127   3.362   5.459  14.475 -1.3948  0.0253 -1.4012
19904TIP3    H281128   3.344   5.384  14.606  1.5601 -0.1563 -1.0294
19905TIP3   OH281129   6.777   3.477  13.703 -0.1988  0.0714  0.0887
19905TIP3    H181130   6.721   3.483  13.625  0.4239  0.4770 -0.3419
19905TIP3    H281131   6.763   3.560  13.749  1.6921  1.1792 -1.1890
19906TIP3   OH281132   3.486   1.143  15.969  0.0025 -0.0911 -0.1668
19906TIP3    H181133   3.517   1.232  15.987 -0.1962  0.0774 -0.6394
19906TIP3    H281134   3.553   1.086  16.007  0.6092  0.2626 -0.6845
19907TIP3   OH281135   2.301   5.681   1.812 -0.5950 -0.0444  0.2446
19907TIP3    H181136   2.335   5.649   1.896 -1.2268 -0.5153  0.3334
19907TIP3    H281137   2.213   5.644   1.807 -0.1529 -0.9866 -1.1546
19908TIP3   OH281138   2.348   0.726  15.114  0.0605 -0.3252 -0.2257
19908TIP3    H181139   2.371   0.697  15.025 -0.2390 -0.6931 -0.1846
19908TIP3    H281140   2.266   0.774  15.103 -0.6500 -1.4461  0.0183
19909TIP3   OH281141   0.511   4.125  15.112 -0.0145 -0.6100 -0.4490
19909TIP3    H181142   0.437   4.163  15.159 -0.3688 -2.4559  0.5781
19909TIP3    H281143   0.588   4.167  15.149 -0.4694  0.7077 -0.9281
19910TIP3   OH281144   1.612   0.355  14.353 -0.3823  0.5610 -0.2351
19910TIP3    H181145   1.598   0.397  14.268 -2.9980 -0.1305 -0.2308
19910TIP3    H281146   1.664   0.277  14.334 -1.7749 -0.1098 -1.3737
19911TIP3   OH281147   5.169   6.695  12.992 -0.0613 -0.4915  0.4182
19911TIP3    H181148   5.193   6.773  13.042 -2.0072  0.3736  0.1038
19911TIP3    H281149   5.244   6.636  13.003  2.4521  2.1484 -1.0682
19912TIP3   OH281150   3.710   6.656  15.044  0.0692 -0.1768 -0.4741
19912TIP3    H181151   3.781   6.595  15.062 -0.1830 -0.1068  0.8949
19912TIP3    H281152   3.688   6.693  15.130 -1.5823 -0.1631 -0.8693
19913TIP3   OH281153   3.173   0.214   2.691 -0.5793 -0.4823 -0.1481
19913TIP3    H181154   3.133   0.189   2.775 -0.2996 -0.5494 -0.0355
19913TIP3    H281155   3.107   0.271   2.650 -0.3234  0.3482  0.5456
19914TIP3   OH281156   1.479   3.487   1.190 -0.1593  0.1576 -0.0554
19914TIP3    H181157   1.559   3.449   1.226 -0.7320 -0.0741  1.0322
19914TIP3    H281158   1.421   3.412   1.177 -1.4344  0.5811  2.4621
19915TIP3   OH281159   1.109   0.753  13.445  1.0898  0.3236  0.3424
19915TIP3    H181160   1.166   0.757  13.368 -1.0219  2.9633 -1.2644
19915TIP3    H281161   1.117   0.840  13.484 -0.9874  0.4208  0.6408
19916TIP3   OH281162   2.685   2.474   0.374  0.3538  0.4275 -0.0109
19916TIP3    H181163   2.605   2.426   0.399  0.7062 -1.8034 -2.6862
19916TIP3    H281164   2.735   2.412   0.321  2.5811  2.6785 -0.7588
19917TIP3   OH281165   5.318   2.743  11.752  0.2175  1.0725 -0.2701
19917TIP3    H181166   5.398   2.792  11.737 -0.6778  2.1482 -1.8841
19917TIP3    H281167   5.273   2.790  11.822  0.6425  0.8974  0.1252
19918TIP3   OH281168   4.675   5.995  12.539  0.3949  0.4114  0.2207
19918TIP3    H181169   4.743   6.001  12.472 -0.6694  1.3616 -0.8298
19918TIP3    H281170   4.720   6.017  12.621  1.7130 -0.7294 -0.1544
19919TIP3   OH281171   2.199   0.814  12.344  0.3277 -0.0377 -0.4910
19919TIP3    H181172   2.259   0.827  12.418 -0.7698  1.4892  0.1767
19919TIP3    H281173   2.226   0.730  12.306  2.8546  0.5521 -0.2112
19920TIP3   OH281174   3.562   4.321   5.632  0.6710  0.5510  0.8402
19920TIP3    H181175   3.571   4.338   5.538 -1.2030 -0.5787  0.4082
19920TIP3    H281176   3.477   4.279   5.641  1.3456 -0.5304  2.9085
19921TIP3   OH281177   1.555   0.466  14.794  0.6697  0.0899  0.2312
19921TIP3    H181178   1.499   0.391  14.816  0.3274  0.6406  1.3463
19921TIP3    H281179   1.553   0.520  14.873  2.0269  0.5933 -0.0621
19922TIP3   OH281180   5.333   2.774   1.004  0.1077  0.1766  0.5390
19922TIP3    H181181   5.246   2.790   1.040 -0.2971  1.2873 -0.8497
19922TIP3    H281182   5.389   2.840   1.045 -0.4023  1.6012 -0.9561
19923TIP3   OH281183   0.767   4.471  16.519  0.3470  0.0487 -0.0985
19923TIP3    H181184   0.721   4.553  16.537 -0.3250 -0.2901 -0.2255
19923TIP3    H281185   0.806   4.485  16.433  0.5508  0.3698  0.0441
19924TIP3   OH281186   3.646   3.534  16.160 -0.2940  0.0479 -0.0256
19924TIP3    H181187   3.586   3.603  16.191  2.3439  2.3647  0.3588
19924TIP3    H281188   3.670   3.561  16.072  0.4497 -0.6233 -0.0411
19925TIP3   OH281189   5.983   0.926  11.027 -0.3886 -0.0609 -0.1223
19925TIP3    H181190   5.982   0.876  10.945  0.2076  1.7135 -1.2945
19925TIP3    H281191   6.076   0.943  11.043 -0.5043 -0.4477  0.9678
19926TIP3   OH281192   0.765   5.541  10.947  0.0021 -0.1414 -0.5347
19926TIP3    H181193   0.674   5.513  10.959 -0.2032  0.2149 -1.1991
19926TIP3    H281194   0.758   5.625  10.901  0.6465  0.3038  0.1602
19927TIP3   OH281195   1.369   6.535  12.681  0.1305  0.2592  0.1966
19927TIP3    H181196   1.310   6.561  12.752  0.6366 -0.6477  0.9790
19927TIP3    H281197   1.446   6.498  12.726 -0.5421 -2.5957 -0.7737
19928TIP3   OH281198   6.300   2.689  11.784  0.0078  0.1358 -0.0867
19928TIP3    H181199   6.395   2.681  11.769 -0.0548 -0.8857 -0.0017
19928TIP3    H281200   6.293   2.748  11.858  0.5540  0.6542 -0.4317
19929TIP3   OH281201   4.985   5.759   1.152 -0.3066 -0.3042 -0.2842
19929TIP3    H181202   4.900   5.748   1.109 -0.3876  0.6223 -0.3852
19929TIP3    H281203   5.024   5.835   1.109 -1.2471  1.9737  2.5580
19930TIP3   OH281204   1.373   0.421  16.238 -0.0989  0.4177 -0.1131
19930TIP3    H181205   1.450   0.476  16.253  0.7292 -0.3235 -1.4394
19930TIP3    H281206   1.353   0.384  16.324  1.8972 -0.4678  0.0276
19931TIP3   OH281207   6.272   4.295  13.967 -0.1199 -0.5234 -0.4204
19931TIP3    H181208   6.297   4.229  13.903 -1.3108 -0.0196 -1.4437
19931TIP3    H281209   6.355   4.338  13.991  0.5668 -1.8591 -0.2893
19932TIP3   OH281210   6.018   1.010   5.917  0.5951 -0.2580  0.2161
19932TIP3    H181211   6.046   0.939   5.974  1.5201 -0.1092 -0.0288
19932TIP3    H281212   6.001   1.083   5.976  0.6013 -0.3952  0.3875
19933TIP3   OH281213   3.571   2.487  16.903 -0.2807 -0.0886 -0.2941
19933TIP3    H181214   3.547   2.548  16.973  1.5208  0.0613  0.2598
19933TIP3    H281215   3.513   2.509  16.831 -1.5990  0.3499  0.8465
19934TIP3   OH281216   1.883   2.154  13.022  0.1782 -0.3039  0.2254
19934TIP3    H181217   1.815   2.160  12.955 -0.2820  0.6657  0.7633
19934TIP3    H281218   1.936   2.078  12.996 -0.7087 -0.6657 -0.5598
19935TIP3   OH281219   4.883   6.703  14.042 -0.4095  0.0056  0.5747
19935TIP3    H181220   4.796   6.739  14.058  0.3885  2.6235 -0.4746
19935TIP3    H281221   4.939   6.780  14.033  2.2496 -1.5948  2.2401
19936TIP3   OH281222   0.554   0.659   6.004  0.0417  0.0774  0.0987
19936TIP3    H181223   0.580   0.599   6.074  1.1388  0.1161 -0.2514
19936TIP3    H281224   0.472   0.623   5.970 -0.7084  0.2698  1.6369
19937TIP3   OH281225   2.986   4.301   4.089  0.0331  0.5415  0.5791
19937TIP3    H181226   3.054   4.317   4.155  0.9427  0.2503 -0.2633
19937TIP3    H281227   3.020   4.229   4.036 -1.0899  0.1688  0.3272
19938TIP3   OH281228   2.713   6.672   4.602 -0.1711 -0.0947  0.3808
19938TIP3    H181229   2.765   6.752   4.614 -1.5265  0.6467  1.7298
19938TIP3    H281230   2.756   6.606   4.656  0.6789 -0.1673 -0.3609
19939TIP3   OH281231   2.424   1.527   0.400 -0.0554 -0.4597 -0.0998
19939TIP3    H181232   2.350   1.588   0.391  0.8881  0.5555 -1.2554
19939TIP3    H281233   2.427   1.480   0.317  0.2207 -0.9566  0.1840
19940TIP3   OH281234   0.281   3.068   1.297  0.2865  0.1817 -0.1167
19940TIP3    H181235   0.217   3.022   1.244  1.0600 -0.6857 -0.3322
19940TIP3    H281236   0.252   3.159   1.297  0.7605  0.4016 -2.7877
19941TIP3   OH281237   1.341   3.846  12.968 -0.7074  0.2103  0.4561
19941TIP3    H181238   1.412   3.790  13.001 -0.3254  1.0518  1.0853
19941TIP3    H281239   1.289   3.867  13.045 -1.4903 -0.1655  0.0416
19942TIP3   OH281240   6.466   1.235  11.949 -0.0882 -0.3090 -0.3494
19942TIP3    H181241   6.421   1.153  11.928 -2.0035  0.9571 -1.4984
19942TIP3    H281242   6.545   1.233  11.895 -1.3471 -0.3454 -2.2837
19943TIP3   OH281243   0.518   1.226  12.335 -0.4937 -0.2722 -0.0066
19943TIP3    H181244   0.473   1.292  12.281  1.3946  0.0318 -1.3075
19943TIP3    H281245   0.603   1.265  12.355  0.6803 -2.2729 -0.7970
19944TIP3   OH281246   1.506   1.711   0.892 -0.4041  0.0978 -0.6411
19944TIP3    H181247   1.517   1.789   0.947  0.4025 -0.0033 -0.6447
19944TIP3    H281248   1.593   1.696   0.855 -0.6248 -0.6341 -0.8719
19945TIP3   OH281249   4.534   2.772   1.289  0.7499  0.3778  0.1950
19945TIP3    H181250   4.478   2.764   1.366  0.2928  1.3044 -0.0190
19945TIP3    H281251   4.607   2.827   1.318  0.7227  0.4923  0.0487
19946TIP3   OH281252   5.518   1.465  12.578  0.5470 -0.4182  0.0000
19946TIP3    H181253   5.563   1.387  12.609  0.6423 -0.3886 -0.0621
19946TIP3    H281254   5.497   1.514  12.658 -0.1280 -0.8372  0.0908
19947TIP3   OH281255   3.633   0.981   0.650 -0.2247  0.0770  0.5421
19947TIP3    H181256   3.690   0.948   0.580 -1.1869  0.5753 -0.5189
19947TIP3    H281257   3.692   1.002   0.722  1.2128  2.2839 -1.1474
19948TIP3   OH281258   6.480   1.690  15.042  0.3398 -0.9482 -0.3455
19948TIP3    H181259   6.495   1.598  15.022  1.8620 -0.7730 -0.1366
19948TIP3    H281260   6.521   1.703  15.128  0.9962  0.1286 -0.7972
19949TIP3   OH281261   1.141   5.015  15.330  0.1087 -0.5990  0.0299
19949TIP3    H181262   1.062   4.972  15.297 -0.1352 -0.9795  1.0676
19949TIP3    H281263   1.194   4.944  15.365 -0.4874 -0.0738  2.1456
19950TIP3   OH281264   2.591   1.366  12.194  0.0422 -0.7655 -0.4559
19950TIP3    H181265   2.496   1.365  12.186 -0.1370  1.9845  0.2123
19950TIP3    H281266   2.621   1.302  12.130 -2.2419 -1.8896 -0.5109
19951TIP3   OH281267   4.349   4.966   1.314 -0.3826  0.3017 -0.5037
19951TIP3    H181268   4.407   4.942   1.241  0.0297 -1.3417  0.3271
19951TIP3    H281269   4.379   5.053   1.340  0.9081  0.0057 -0.9094
19952TIP3   OH281270   2.423   0.189   2.789 -0.0127  0.0920 -0.2539
19952TIP3    H181271   2.334   0.174   2.821  0.5092  0.6439  1.5520
19952TIP3    H281272   2.450   0.105   2.752 -1.3683 -0.0012 -1.0616
19953TIP3   OH281273   4.861   3.707   3.407  0.6117 -0.0846  0.0453
19953TIP3    H181274   4.827   3.797   3.406  1.4511  0.2618  1.1639
19953TIP3    H281275   4.815   3.664   3.334 -0.2092  1.0886 -0.1681
19954TIP3   OH281276   4.883   2.642  11.810 -0.4940 -0.1869  0.1709
19954TIP3    H181277   4.819   2.601  11.752 -0.3308 -0.0731 -0.0914
19954TIP3    H281278   4.847   2.632  11.897 -0.7409 -0.3629  0.0478
19955TIP3   OH281279   5.660   0.865  12.598  0.1706  0.5899  0.0723
19955TIP3    H181280   5.655   0.771  12.579  0.5571  0.4681  0.5357
19955TIP3    H281281   5.694   0.904  12.518  0.3457  0.2843 -0.0049
19956TIP3   OH281282   2.394   0.591   0.881  0.1438 -0.3312 -0.0692
19956TIP3    H181283   2.406   0.518   0.941 -1.5841 -2.0426 -1.7050
19956TIP3    H281284   2.320   0.640   0.917  0.0745 -0.4754 -0.0174
19957TIP3   OH281285   4.002   2.856  11.315  0.0404 -0.2006 -0.7001
19957TIP3    H181286   4.093   2.853  11.345 -0.0646  0.5009 -0.2578
19957TIP3    H281287   3.991   2.946  11.283 -0.4773 -0.2982 -0.8020
19958TIP3   OH281288   4.766   0.393   3.131 -0.3406 -0.2371 -0.0550
19958TIP3    H181289   4.836   0.416   3.070 -1.4481  1.7167 -0.6807
19958TIP3    H281290   4.804   0.327   3.188  1.3787 -0.6411 -1.5923
19959TIP3   OH281291   5.070   6.054  11.733  0.3328 -0.4854 -0.1776
19959TIP3    H181292   5.045   5.967  11.702 -3.1804 -0.5479  2.1301
19959TIP3    H281293   5.162   6.046  11.758 -0.3527 -4.2522  1.8290
19960TIP3   OH281294   4.615   4.247   5.634  0.0168  0.0379  0.3666
19960TIP3    H181295   4.623   4.331   5.680 -2.5382  0.5628  0.0070
19960TIP3    H281296   4.570   4.190   5.696  1.5630 -1.0718  0.5350
19961TIP3   OH281297   3.009   1.981   4.064  0.1020  0.5465 -0.5350
19961TIP3    H181298   3.076   2.048   4.053  0.2890  0.4877  0.2099
19961TIP3    H281299   2.985   1.956   3.975 -0.9470  2.5719 -0.8571
19962TIP3   OH281300   5.756   0.100  12.667  0.0573  0.7431 -0.8359
19962TIP3    H181301   5.721   0.158  12.600  0.1653  1.8812  0.0514
19962TIP3    H281302   5.749   0.151  12.748  0.5599 -0.3291 -0.0927
19963TIP3   OH281303   1.465   5.076   2.038  0.4647  0.3339  0.2109
19963TIP3    H181304   1.484   4.994   1.993 -0.1974  0.4266 -0.2536
19963TIP3    H281305   1.530   5.081   2.108  0.4338 -0.6431  0.3185
19964TIP3   OH281306   4.077   5.169  15.884 -0.2189  0.1814  0.2932
19964TIP3    H181307   4.070   5.168  15.789  1.0534  1.1780  0.1548
19964TIP3    H281308   4.022   5.243  15.911  0.5042  0.7719  0.1923
19965TIP3   OH281309   1.624   0.973  10.829  0.4535  0.1509  0.5781
19965TIP3    H181310   1.619   0.879  10.846 -0.7058  0.4969  2.4802
19965TIP3    H281311   1.605   1.014  10.914  2.5603  2.1269  0.1882
19966TIP3   OH281312   2.755   2.380   5.030 -0.2578  0.6181  0.0036
19966TIP3    H181313   2.726   2.372   5.121 -2.1423 -0.8516 -0.6601
19966TIP3    H281314   2.752   2.474   5.012 -2.5041  0.7251  0.6917
19967TIP3   OH281315   5.895   2.797  15.607 -0.1546  0.0520 -0.1168
19967TIP3    H181316   5.985   2.770  15.620  0.1159  1.2314  0.6628
19967TIP3    H281317   5.902   2.880  15.558 -0.7559  0.6279  0.7497
19968TIP3   OH281318   4.226   0.694   5.701 -0.2985  0.3774  0.6265
19968TIP3    H181319   4.317   0.692   5.672 -0.1104  0.6415  1.1819
19968TIP3    H281320   4.202   0.602   5.711 -0.5535  0.2468 -0.8874
19969TIP3   OH281321   3.959   4.158   2.313  0.1670  0.1221  0.1300
19969TIP3    H181322   3.936   4.234   2.367 -0.6878 -0.3083  0.3992
19969TIP3    H281323   3.992   4.195   2.231 -2.1982  0.8414 -0.5774
19970TIP3   OH281324   5.690   5.047  15.213 -0.3670  0.2909  0.3462
19970TIP3    H181325   5.612   5.003  15.249  1.0105  0.1910  3.5623
19970TIP3    H281326   5.692   5.131  15.258  0.9112  0.6647 -0.3718
19971TIP3   OH281327   2.776   4.507   2.631 -0.3850 -0.2076 -0.4730
19971TIP3    H181328   2.756   4.598   2.650  0.3477 -0.2129  0.4208
19971TIP3    H281329   2.868   4.497   2.655 -0.7130 -1.4117  0.4383
19972TIP3   OH281330   3.512   3.211   4.200 -0.5365 -0.0130 -0.2042
19972TIP3    H181331   3.471   3.248   4.121  1.5141  0.6114 -1.0431
19972TIP3    H281332   3.543   3.288   4.248  1.0302 -0.4916 -0.4110
19973TIP3   OH281333   4.222   4.454  16.447 -0.3233  0.0161 -0.2858
19973TIP3    H181334   4.179   4.395  16.385 -0.5900  1.3922 -1.4737
19973TIP3    H281335   4.314   4.426  16.446 -0.7729 -1.6048  0.6818
19974TIP3   OH281336   4.514   5.105  11.688 -0.2958  0.1104  0.3346
19974TIP3    H181337   4.478   5.086  11.601 -0.2576 -0.3716  0.4179
19974TIP3    H281338   4.603   5.071  11.684 -0.9080 -1.7383  1.1796
19975TIP3   OH281339   0.111   3.528   4.642  0.2524  0.4277  0.1437
19975TIP3    H181340   0.067   3.468   4.703 -1.5518  1.0434 -0.4793
19975TIP3    H281341   0.202   3.499   4.642 -0.0372 -0.6667  1.8179
19976TIP3   OH281342   5.341   5.044   4.886 -0.8011 -0.3059 -0.1021
19976TIP3    H181343   5.391   5.124   4.870  2.4560 -2.1054  0.2497
19976TIP3    H281344   5.382   5.004   4.962 -4.4603 -0.8122  1.8372
19977TIP3   OH281345   3.933   2.537   2.848  0.1577  0.3730 -0.3678
19977TIP3    H181346   3.972   2.519   2.934  0.1304 -0.6630 -0.5544
19977TIP3    H281347   3.853   2.483   2.847 -1.5027  2.6631  0.1340
19978TIP3   OH281348   4.659   0.547  11.092  0.1953  0.3464  0.1379
19978TIP3    H181349   4.723   0.532  11.162 -1.3457  2.0370  2.0066
19978TIP3    H281350   4.575   0.551  11.137 -1.0499  0.0627 -2.0311
19979LIG     O181351   1.458   1.024   2.218  0.2918  0.3724  0.4532
19979LIG     O281352   1.321   1.442   2.347  0.0542  0.1520 -0.7056
19979LIG     N181353   1.195   1.342   2.182  0.4137 -0.5426  0.2253
19979LIG     N281354   1.260   1.044   1.992  0.0760  0.5536  0.0195
19979LIG     N381355   1.380   1.229   2.286  0.0434 -0.1053 -0.3624
19979LIG     N481356   1.119   1.220   1.967  0.5611  0.0820  0.0262
19979LIG     C181357   1.281   1.123   2.101 -0.2612  0.4691  0.2619
19979LIG     C281358   1.187   1.233   2.093  0.3125  0.1611  0.4750
19979LIG     C381359   1.375   1.116   2.202 -0.1438  0.4820  0.0714
19979LIG     C481360   1.300   1.343   2.276  0.5746 -0.0228 -0.8650
19979LIG     C581361   1.163   1.103   1.918  0.5799 -0.0408 -0.0962
19979LIG     C681362   1.111   1.460   2.176  0.4619  0.1876 -0.7713
19979LIG     C781363   1.317   0.912   1.970 -0.8012 -0.9773  0.0992
19979LIG     C881364   1.492   1.234   2.380  0.2993 -0.4904 -0.4653
19979LIG     H181365   1.122   1.061   1.826 -1.2877  0.0333  0.6569
19979LIG     H281366   1.158   1.560   2.165 -0.5963  1.0413  1.7457
19979LIG     H381367   1.057   1.464   2.273 -1.5180  0.9140 -1.8644
19979LIG     H481368   1.039   1.446   2.093  2.0364 -3.5319 -1.7119
19979LIG     H581369   1.308   0.845   2.058 -2.7004  1.0723  1.6060
19979LIG     H681370   1.425   0.931   1.955 -0.8079 -0.6402  0.4563
19979LIG     H781371   1.281   0.865   1.876 -0.1451 -0.7953 -0.2418
19979LIG     H881372   1.560   1.317   2.353 -0.8134  0.2216 -1.1755
19979LIG     H981373   1.554   1.143   2.393  3.1675  1.3832 -0.3366
19979LIG    H1081374   1.462   1.249   2.486  0.5686 -1.7200 -0.1951
   6.81638   6.81638  17.12447
